 argument  1 = /home/list1234/source/nwchem-6.8.1-release/QA/tests/hess_ch4/hess_ch4.nw



============================== echo of input deck ==============================
echo
start ch4

# SCF geometry optimization and frequencies for CH4

geometry units au
  c 0    0    0
  h 1.18 1.18 1.18
  symmetry Td
end

basis spherical
  c library cc-pvdz
  h library cc-pvdz
end

scf; thresh 1e-7; print low; end

task scf optimize
task scf frequencies

dft
xc becke88 lyp
end

task dft optimize
set hess:restart f
task dft freq

================================================================================


                                         
                                         


              Northwest Computational Chemistry Package (NWChem) 6.8
              ------------------------------------------------------


                    Environmental Molecular Sciences Laboratory
                       Pacific Northwest National Laboratory
                                Richland, WA 99352

                              Copyright (c) 1994-2018
                       Pacific Northwest National Laboratory
                            Battelle Memorial Institute

             NWChem is an open-source computational chemistry package
                        distributed under the terms of the
                      Educational Community License (ECL) 2.0
             A copy of the license is included with this distribution
                              in the LICENSE.TXT file

                                  ACKNOWLEDGMENT
                                  --------------

            This software and its documentation were developed at the
            EMSL at Pacific Northwest National Laboratory, a multiprogram
            national laboratory, operated for the U.S. Department of Energy
            by Battelle under Contract Number DE-AC05-76RL01830. Support
            for this work was provided by the Department of Energy Office
            of Biological and Environmental Research, Office of Basic
            Energy Sciences, and the Office of Advanced Scientific Computing.


           Job information
           ---------------

    hostname        = list1234-B360M-H
    program         = /home/list1234/source/nwchem-6.8.1-release/bin/LINUX64/nwchem
    date            = Sun Jun 30 14:07:20 2019

    compiled        = Sun_Jun_30_11:55:59_2019
    source          = /home/list1234/source/nwchem-6.8.1-release
    nwchem branch   = Development
    nwchem revision = N/A
    ga revision     = 5.6.5
    use scalapack   = T
    input           = /home/list1234/source/nwchem-6.8.1-release/QA/tests/hess_ch4/hess_ch4.nw
    prefix          = ch4.
    data base       = ./ch4.db
    status          = startup
    nproc           =        4
    time left       =     -1s



           Memory information
           ------------------

    heap     =   86247162 doubles =    658.0 Mbytes
    stack    =   86247167 doubles =    658.0 Mbytes
    global   =  172494336 doubles =   1316.0 Mbytes (distinct from heap & stack)
    total    =  344988665 doubles =   2632.1 Mbytes
    verify   = yes
    hardfail = no 


           Directory information
           ---------------------

  0 permanent = .
  0 scratch   = .




                                NWChem Input Module
                                -------------------


 Turning off AUTOSYM since
 SYMMETRY directive was detected!


          ------
          auto-z
          ------
  Looking for out-of-plane bends
  no constraints, skipping    0.0000000000000000     
  no constraints, skipping    0.0000000000000000     


                             Geometry "geometry" -> ""
                             -------------------------

 Output coordinates in a.u. (scale by  1.000000000 to convert to a.u.)

  No.       Tag          Charge          X              Y              Z
 ---- ---------------- ---------- -------------- -------------- --------------
    1 c                    6.0000     0.00000000     0.00000000     0.00000000
    2 h                    1.0000     1.18000000     1.18000000     1.18000000
    3 h                    1.0000    -1.18000000    -1.18000000     1.18000000
    4 h                    1.0000    -1.18000000     1.18000000    -1.18000000
    5 h                    1.0000     1.18000000    -1.18000000    -1.18000000

      Atomic Mass 
      ----------- 

      c                 12.000000
      h                  1.007825


 Effective nuclear repulsion energy (a.u.)      13.5404464442

            Nuclear Dipole moment (a.u.) 
            ----------------------------
        X                 Y               Z
 ---------------- ---------------- ----------------
     0.0000000000     0.0000000000     0.0000000000

      Symmetry information
      --------------------

 Group name              Td       
 Group number             42
 Group order              24
 No. of unique centers     2

      Symmetry unique atoms

     1    2



                                Z-matrix (autoz)
                                -------- 

 Units are Angstrom for bonds and degrees for angles

      Type          Name      I     J     K     L     M      Value
      ----------- --------  ----- ----- ----- ----- ----- ----------
    1 Stretch                  1     2                       1.08154
    2 Stretch                  1     3                       1.08154
    3 Stretch                  1     4                       1.08154
    4 Stretch                  1     5                       1.08154
    5 Bend                     2     1     3               109.47122
    6 Bend                     2     1     4               109.47122
    7 Bend                     2     1     5               109.47122
    8 Bend                     3     1     4               109.47122
    9 Bend                     3     1     5               109.47122
   10 Bend                     4     1     5               109.47122


            XYZ format geometry
            -------------------
     5
 geometry
 c                     0.00000000     0.00000000     0.00000000
 h                     0.62442915     0.62442915     0.62442915
 h                    -0.62442915    -0.62442915     0.62442915
 h                    -0.62442915     0.62442915    -0.62442915
 h                     0.62442915    -0.62442915    -0.62442915

 ==============================================================================
                                internuclear distances
 ------------------------------------------------------------------------------
       center one      |      center two      | atomic units |       a.u.
 ------------------------------------------------------------------------------
    2 h                |   1 c                |     2.04382  |     2.04382
    3 h                |   1 c                |     2.04382  |     2.04382
    4 h                |   1 c                |     2.04382  |     2.04382
    5 h                |   1 c                |     2.04382  |     2.04382
 ------------------------------------------------------------------------------
                         number of included internuclear distances:          4
 ==============================================================================



 ==============================================================================
                                 internuclear angles
 ------------------------------------------------------------------------------
        center 1       |       center 2       |       center 3       |  degrees
 ------------------------------------------------------------------------------
    2 h                |   1 c                |   3 h                |   109.47
    2 h                |   1 c                |   4 h                |   109.47
    2 h                |   1 c                |   5 h                |   109.47
    3 h                |   1 c                |   4 h                |   109.47
    3 h                |   1 c                |   5 h                |   109.47
    4 h                |   1 c                |   5 h                |   109.47
 ------------------------------------------------------------------------------
                            number of included internuclear angles:          6
 ==============================================================================



                      Basis "ao basis" -> "" (spherical)
                      -----
  c (Carbon)
  ----------
            Exponent  Coefficients 
       -------------- ---------------------------------------------------------
  1 S  6.66500000E+03  0.000692
  1 S  1.00000000E+03  0.005329
  1 S  2.28000000E+02  0.027077
  1 S  6.47100000E+01  0.101718
  1 S  2.10600000E+01  0.274740
  1 S  7.49500000E+00  0.448564
  1 S  2.79700000E+00  0.285074
  1 S  5.21500000E-01  0.015204

  2 S  6.66500000E+03 -0.000146
  2 S  1.00000000E+03 -0.001154
  2 S  2.28000000E+02 -0.005725
  2 S  6.47100000E+01 -0.023312
  2 S  2.10600000E+01 -0.063955
  2 S  7.49500000E+00 -0.149981
  2 S  2.79700000E+00 -0.127262
  2 S  5.21500000E-01  0.544529

  3 S  1.59600000E-01  1.000000

  4 P  9.43900000E+00  0.038109
  4 P  2.00200000E+00  0.209480
  4 P  5.45600000E-01  0.508557

  5 P  1.51700000E-01  1.000000

  6 D  5.50000000E-01  1.000000

  h (Hydrogen)
  ------------
            Exponent  Coefficients 
       -------------- ---------------------------------------------------------
  1 S  1.30100000E+01  0.019685
  1 S  1.96200000E+00  0.137977
  1 S  4.44600000E-01  0.478148

  2 S  1.22000000E-01  1.000000

  3 P  7.27000000E-01  1.000000



 Summary of "ao basis" -> "" (spherical)
 ------------------------------------------------------------------------------
       Tag                 Description            Shells   Functions and Types
 ---------------- ------------------------------  ------  ---------------------
 c                          cc-pvdz                  6       14   3s2p1d
 h                          cc-pvdz                  3        5   2s1p




                           NWChem Geometry Optimization
                           ----------------------------


  no constraints, skipping    0.0000000000000000     
 maximum gradient threshold         (gmax) =   0.000450
 rms gradient threshold             (grms) =   0.000300
 maximum cartesian step threshold   (xmax) =   0.001800
 rms cartesian step threshold       (xrms) =   0.001200
 fixed trust radius                (trust) =   0.300000
 maximum step size to saddle      (sadstp) =   0.100000
 energy precision                  (eprec) =   1.0D-07
 maximum number of steps          (nptopt) =   20
 initial hessian option           (inhess) =    0
 line search option               (linopt) =    1
 hessian update option            (modupd) =    1
 saddle point option              (modsad) =    0
 initial eigen-mode to follow     (moddir) =    0
 initial variable to follow       (vardir) =    0
 follow first negative mode     (firstneg) =    T
 apply conjugacy                    (opcg) =    F
 source of zmatrix                         =   autoz   


          -------------------
          Energy Minimization
          -------------------


 Names of Z-matrix variables 
    1              2              3              4              5         
    6              7              8              9             10         

 Variables with the same non-blank name are constrained to be equal


 Using diagonal initial Hessian 
 Scaling for Hessian diagonals: bonds = 1.00  angles = 0.25  torsions = 0.10

          --------
          Step   0
          --------


                         Geometry "geometry" -> "geometry"
                         ---------------------------------

 Output coordinates in a.u. (scale by  1.000000000 to convert to a.u.)

  No.       Tag          Charge          X              Y              Z
 ---- ---------------- ---------- -------------- -------------- --------------
    1 c                    6.0000     0.00000000     0.00000000     0.00000000
    2 h                    1.0000     1.18000000     1.18000000     1.18000000
    3 h                    1.0000    -1.18000000    -1.18000000     1.18000000
    4 h                    1.0000    -1.18000000     1.18000000    -1.18000000
    5 h                    1.0000     1.18000000    -1.18000000    -1.18000000

      Atomic Mass 
      ----------- 

      c                 12.000000
      h                  1.007825


 Effective nuclear repulsion energy (a.u.)      13.5404464442

            Nuclear Dipole moment (a.u.) 
            ----------------------------
        X                 Y               Z
 ---------------- ---------------- ----------------
     0.0000000000     0.0000000000     0.0000000000

      Symmetry information
      --------------------

 Group name              Td       
 Group number             42
 Group order              24
 No. of unique centers     2

      Symmetry unique atoms

     1    2

                                 NWChem SCF Module
                                 -----------------



  ao basis        = "ao basis"
  functions       =    34
  atoms           =     5
  closed shells   =     5
  open shells     =     0
  charge          =   0.00
  wavefunction    = RHF 
  input vectors   = atomic
  output vectors  = ./ch4.movecs
  use symmetry    = T
  symmetry adapt  = T


 Forming initial guess at       0.0s


 Starting SCF solution at       0.1s



       Final RHF  results 
       ------------------ 

         Total SCF energy =    -40.198474976549
      One-electron energy =    -79.893976770440
      Two-electron energy =     26.155055349730
 Nuclear repulsion energy =     13.540446444162

        Time for solution =      0.1s


                              NWChem Gradients Module
                              -----------------------



                         RHF ENERGY GRADIENTS

    atom               coordinates                        gradient
                 x          y          z           x          y          z
   1 c       0.000000   0.000000   0.000000    0.000000   0.000000   0.000000
   2 h       1.180000   1.180000   1.180000   -0.003950  -0.003950  -0.003950
   3 h      -1.180000  -1.180000   1.180000    0.003950   0.003950  -0.003950
   4 h      -1.180000   1.180000  -1.180000    0.003950  -0.003950   0.003950
   5 h       1.180000  -1.180000  -1.180000   -0.003950   0.003950   0.003950

  no constraints, skipping    0.0000000000000000     

@ Step       Energy      Delta E   Gmax     Grms     Xrms     Xmax   Walltime
@ ---- ---------------- -------- -------- -------- -------- -------- --------
@    0     -40.19847498  0.0D+00  0.00684  0.00433  0.00000  0.00000      0.2
                                                                    



                                Z-matrix (autoz)
                                -------- 

 Units are Angstrom for bonds and degrees for angles

      Type          Name      I     J     K     L     M      Value     Gradient
      ----------- --------  ----- ----- ----- ----- ----- ---------- ----------
    1 Stretch                  1     2                       1.08154   -0.00684
    2 Stretch                  1     3                       1.08154   -0.00684
    3 Stretch                  1     4                       1.08154   -0.00684
    4 Stretch                  1     5                       1.08154   -0.00684
    5 Bend                     2     1     3               109.47122   -0.00000
    6 Bend                     2     1     4               109.47122   -0.00000
    7 Bend                     2     1     5               109.47122    0.00000
    8 Bend                     3     1     4               109.47122    0.00000
    9 Bend                     3     1     5               109.47122   -0.00000
   10 Bend                     4     1     5               109.47122    0.00000

  no constraints, skipping    0.0000000000000000     
  no constraints, skipping    0.0000000000000000     
  no constraints, skipping    0.0000000000000000     
                                 NWChem SCF Module
                                 -----------------



  ao basis        = "ao basis"
  functions       =    34
  atoms           =     5
  closed shells   =     5
  open shells     =     0
  charge          =   0.00
  wavefunction    = RHF 
  input vectors   = ./ch4.movecs
  output vectors  = ./ch4.movecs
  use symmetry    = T
  symmetry adapt  = T


 Forming initial guess at       0.2s


 Starting SCF solution at       0.2s



       Final RHF  results 
       ------------------ 

         Total SCF energy =    -40.198709031510
      One-electron energy =    -79.654018831757
      Two-electron energy =     26.042383312170
 Nuclear repulsion energy =     13.412926488078

        Time for solution =      0.1s


 Line search: 
     step= 1.00 grad=-5.3D-04 hess= 3.0D-04 energy=    -40.198709 mode=downhill
 new step= 0.89                   predicted energy=    -40.198712
  no constraints, skipping    0.0000000000000000     
  no constraints, skipping    0.0000000000000000     
  no constraints, skipping    0.0000000000000000     

          --------
          Step   1
          --------


                         Geometry "geometry" -> "geometry"
                         ---------------------------------

 Output coordinates in a.u. (scale by  1.000000000 to convert to a.u.)

  No.       Tag          Charge          X              Y              Z
 ---- ---------------- ---------- -------------- -------------- --------------
    1 c                    6.0000     0.00000000     0.00000000     0.00000000
    2 h                    1.0000     1.19001897     1.19001897     1.19001897
    3 h                    1.0000    -1.19001897    -1.19001897     1.19001897
    4 h                    1.0000    -1.19001897     1.19001897    -1.19001897
    5 h                    1.0000     1.19001897    -1.19001897    -1.19001897

      Atomic Mass 
      ----------- 

      c                 12.000000
      h                  1.007825


 Effective nuclear repulsion energy (a.u.)      13.4264471764

            Nuclear Dipole moment (a.u.) 
            ----------------------------
        X                 Y               Z
 ---------------- ---------------- ----------------
     0.0000000000     0.0000000000     0.0000000000

      Symmetry information
      --------------------

 Group name              Td       
 Group number             42
 Group order              24
 No. of unique centers     2

      Symmetry unique atoms

     1    2

                                 NWChem SCF Module
                                 -----------------



  ao basis        = "ao basis"
  functions       =    34
  atoms           =     5
  closed shells   =     5
  open shells     =     0
  charge          =   0.00
  wavefunction    = RHF 
  input vectors   = ./ch4.movecs
  output vectors  = ./ch4.movecs
  use symmetry    = T
  symmetry adapt  = T


 Forming initial guess at       0.3s


 Starting SCF solution at       0.3s



       Final RHF  results 
       ------------------ 

         Total SCF energy =    -40.198711968085
      One-electron energy =    -79.679512946346
      Two-electron energy =     26.054353801882
 Nuclear repulsion energy =     13.426447176379

        Time for solution =      0.1s


                              NWChem Gradients Module
                              -----------------------



                         RHF ENERGY GRADIENTS

    atom               coordinates                        gradient
                 x          y          z           x          y          z
   1 c       0.000000   0.000000   0.000000    0.000000   0.000000   0.000000
   2 h       1.190019   1.190019   1.190019   -0.000025  -0.000025  -0.000025
   3 h      -1.190019  -1.190019   1.190019    0.000025   0.000025  -0.000025
   4 h      -1.190019   1.190019  -1.190019    0.000025  -0.000025   0.000025
   5 h       1.190019  -1.190019  -1.190019   -0.000025   0.000025   0.000025

  no constraints, skipping    0.0000000000000000     

  Step       Energy      Delta E   Gmax     Grms     Xrms     Xmax   Walltime
  ---- ---------------- -------- -------- -------- -------- -------- --------
@    1     -40.19871197 -2.4D-04  0.00004  0.00003  0.00896  0.01002      0.5
                                     ok       ok                    



                                Z-matrix (autoz)
                                -------- 

 Units are Angstrom for bonds and degrees for angles

      Type          Name      I     J     K     L     M      Value     Gradient
      ----------- --------  ----- ----- ----- ----- ----- ---------- ----------
    1 Stretch                  1     2                       1.09073   -0.00004
    2 Stretch                  1     3                       1.09073   -0.00004
    3 Stretch                  1     4                       1.09073   -0.00004
    4 Stretch                  1     5                       1.09073   -0.00004
    5 Bend                     2     1     3               109.47122   -0.00000
    6 Bend                     2     1     4               109.47122   -0.00000
    7 Bend                     2     1     5               109.47122    0.00000
    8 Bend                     3     1     4               109.47122    0.00000
    9 Bend                     3     1     5               109.47122   -0.00000
   10 Bend                     4     1     5               109.47122   -0.00000

  no constraints, skipping    0.0000000000000000     
  no constraints, skipping    0.0000000000000000     
  no constraints, skipping    0.0000000000000000     
                                 NWChem SCF Module
                                 -----------------



  ao basis        = "ao basis"
  functions       =    34
  atoms           =     5
  closed shells   =     5
  open shells     =     0
  charge          =   0.00
  wavefunction    = RHF 
  input vectors   = ./ch4.movecs
  output vectors  = ./ch4.movecs
  use symmetry    = T
  symmetry adapt  = T


 Forming initial guess at       0.5s


 Starting SCF solution at       0.5s



       Final RHF  results 
       ------------------ 

         Total SCF energy =    -40.198711977693
      One-electron energy =    -79.678169730055
      Two-electron energy =     26.053723105646
 Nuclear repulsion energy =     13.425734646715

        Time for solution =      0.1s


 Line search: 
     step= 1.00 grad=-1.9D-08 hess= 9.1D-09 energy=    -40.198712 mode=accept  
 new step= 1.00                   predicted energy=    -40.198712
  no constraints, skipping    0.0000000000000000     
  no constraints, skipping    0.0000000000000000     
  no constraints, skipping    0.0000000000000000     

          --------
          Step   2
          --------


                         Geometry "geometry" -> "geometry"
                         ---------------------------------

 Output coordinates in a.u. (scale by  1.000000000 to convert to a.u.)

  No.       Tag          Charge          X              Y              Z
 ---- ---------------- ---------- -------------- -------------- --------------
    1 c                    6.0000     0.00000000     0.00000000     0.00000000
    2 h                    1.0000     1.19008212     1.19008212     1.19008212
    3 h                    1.0000    -1.19008212    -1.19008212     1.19008212
    4 h                    1.0000    -1.19008212     1.19008212    -1.19008212
    5 h                    1.0000     1.19008212    -1.19008212    -1.19008212

      Atomic Mass 
      ----------- 

      c                 12.000000
      h                  1.007825


 Effective nuclear repulsion energy (a.u.)      13.4257346467

            Nuclear Dipole moment (a.u.) 
            ----------------------------
        X                 Y               Z
 ---------------- ---------------- ----------------
     0.0000000000     0.0000000000     0.0000000000

      Symmetry information
      --------------------

 Group name              Td       
 Group number             42
 Group order              24
 No. of unique centers     2

      Symmetry unique atoms

     1    2

                                 NWChem SCF Module
                                 -----------------



  ao basis        = "ao basis"
  functions       =    34
  atoms           =     5
  closed shells   =     5
  open shells     =     0
  charge          =   0.00
  wavefunction    = RHF 
  input vectors   = ./ch4.movecs
  output vectors  = ./ch4.movecs
  use symmetry    = T
  symmetry adapt  = T


  The SCF is already converged 

         Total SCF energy =    -40.198711977693

                              NWChem Gradients Module
                              -----------------------



                         RHF ENERGY GRADIENTS

    atom               coordinates                        gradient
                 x          y          z           x          y          z
   1 c       0.000000   0.000000   0.000000    0.000000   0.000000   0.000000
   2 h       1.190082   1.190082   1.190082   -0.000001  -0.000001  -0.000001
   3 h      -1.190082  -1.190082   1.190082    0.000001   0.000001  -0.000001
   4 h      -1.190082   1.190082  -1.190082    0.000001  -0.000001   0.000001
   5 h       1.190082  -1.190082  -1.190082   -0.000001   0.000001   0.000001

  no constraints, skipping    0.0000000000000000     

  Step       Energy      Delta E   Gmax     Grms     Xrms     Xmax   Walltime
  ---- ---------------- -------- -------- -------- -------- -------- --------
@    2     -40.19871198 -9.6D-09  0.00000  0.00000  0.00006  0.00006      0.6
                                     ok       ok       ok       ok  



                                Z-matrix (autoz)
                                -------- 

 Units are Angstrom for bonds and degrees for angles

      Type          Name      I     J     K     L     M      Value     Gradient
      ----------- --------  ----- ----- ----- ----- ----- ---------- ----------
    1 Stretch                  1     2                       1.09078   -0.00000
    2 Stretch                  1     3                       1.09078   -0.00000
    3 Stretch                  1     4                       1.09078   -0.00000
    4 Stretch                  1     5                       1.09078   -0.00000
    5 Bend                     2     1     3               109.47122   -0.00000
    6 Bend                     2     1     4               109.47122    0.00000
    7 Bend                     2     1     5               109.47122   -0.00000
    8 Bend                     3     1     4               109.47122   -0.00000
    9 Bend                     3     1     5               109.47122    0.00000
   10 Bend                     4     1     5               109.47122   -0.00000


      ----------------------
      Optimization converged
      ----------------------


  Step       Energy      Delta E   Gmax     Grms     Xrms     Xmax   Walltime
  ---- ---------------- -------- -------- -------- -------- -------- --------
@    2     -40.19871198 -9.6D-09  0.00000  0.00000  0.00006  0.00006      0.6
                                     ok       ok       ok       ok  



                                Z-matrix (autoz)
                                -------- 

 Units are Angstrom for bonds and degrees for angles

      Type          Name      I     J     K     L     M      Value     Gradient
      ----------- --------  ----- ----- ----- ----- ----- ---------- ----------
    1 Stretch                  1     2                       1.09078   -0.00000
    2 Stretch                  1     3                       1.09078   -0.00000
    3 Stretch                  1     4                       1.09078   -0.00000
    4 Stretch                  1     5                       1.09078   -0.00000
    5 Bend                     2     1     3               109.47122   -0.00000
    6 Bend                     2     1     4               109.47122    0.00000
    7 Bend                     2     1     5               109.47122   -0.00000
    8 Bend                     3     1     4               109.47122   -0.00000
    9 Bend                     3     1     5               109.47122    0.00000
   10 Bend                     4     1     5               109.47122   -0.00000



                         Geometry "geometry" -> "geometry"
                         ---------------------------------

 Output coordinates in a.u. (scale by  1.000000000 to convert to a.u.)

  No.       Tag          Charge          X              Y              Z
 ---- ---------------- ---------- -------------- -------------- --------------
    1 c                    6.0000     0.00000000     0.00000000     0.00000000
    2 h                    1.0000     1.19008212     1.19008212     1.19008212
    3 h                    1.0000    -1.19008212    -1.19008212     1.19008212
    4 h                    1.0000    -1.19008212     1.19008212    -1.19008212
    5 h                    1.0000     1.19008212    -1.19008212    -1.19008212

      Atomic Mass 
      ----------- 

      c                 12.000000
      h                  1.007825


 Effective nuclear repulsion energy (a.u.)      13.4257346467

            Nuclear Dipole moment (a.u.) 
            ----------------------------
        X                 Y               Z
 ---------------- ---------------- ----------------
     0.0000000000     0.0000000000     0.0000000000

      Symmetry information
      --------------------

 Group name              Td       
 Group number             42
 Group order              24
 No. of unique centers     2

      Symmetry unique atoms

     1    2


                Final and change from initial internal coordinates
                --------------------------------------------------



                                Z-matrix (autoz)
                                -------- 

 Units are Angstrom for bonds and degrees for angles

      Type          Name      I     J     K     L     M      Value       Change
      ----------- --------  ----- ----- ----- ----- ----- ---------- ----------
    1 Stretch                  1     2                       1.09078    0.00924
    2 Stretch                  1     3                       1.09078    0.00924
    3 Stretch                  1     4                       1.09078    0.00924
    4 Stretch                  1     5                       1.09078    0.00924
    5 Bend                     2     1     3               109.47122    0.00000
    6 Bend                     2     1     4               109.47122    0.00000
    7 Bend                     2     1     5               109.47122    0.00000
    8 Bend                     3     1     4               109.47122    0.00000
    9 Bend                     3     1     5               109.47122    0.00000
   10 Bend                     4     1     5               109.47122    0.00000

 ==============================================================================
                                internuclear distances
 ------------------------------------------------------------------------------
       center one      |      center two      | atomic units |       a.u.
 ------------------------------------------------------------------------------
    2 h                |   1 c                |     2.06128  |     2.06128
    3 h                |   1 c                |     2.06128  |     2.06128
    4 h                |   1 c                |     2.06128  |     2.06128
    5 h                |   1 c                |     2.06128  |     2.06128
 ------------------------------------------------------------------------------
                         number of included internuclear distances:          4
 ==============================================================================



 ==============================================================================
                                 internuclear angles
 ------------------------------------------------------------------------------
        center 1       |       center 2       |       center 3       |  degrees
 ------------------------------------------------------------------------------
    2 h                |   1 c                |   3 h                |   109.47
    2 h                |   1 c                |   4 h                |   109.47
    2 h                |   1 c                |   5 h                |   109.47
    3 h                |   1 c                |   4 h                |   109.47
    3 h                |   1 c                |   5 h                |   109.47
    4 h                |   1 c                |   5 h                |   109.47
 ------------------------------------------------------------------------------
                            number of included internuclear angles:          6
 ==============================================================================




 Task  times  cpu:        0.4s     wall:        0.6s


                                NWChem Input Module
                                -------------------




                   NWChem Nuclear Hessian and Frequency Analysis
                   ---------------------------------------------



                              NWChem Analytic Hessian
                              -----------------------

                                 NWChem SCF Module
                                 -----------------



  ao basis        = "ao basis"
  functions       =    34
  atoms           =     5
  closed shells   =     5
  open shells     =     0
  charge          =   0.00
  wavefunction    = RHF 
  input vectors   = ./ch4.movecs
  output vectors  = ./ch4.movecs
  use symmetry    = F
  symmetry adapt  = F


 Forming initial guess at       0.6s


 Starting SCF solution at       0.6s



       Final RHF  results 
       ------------------ 

         Total SCF energy =    -40.198711977693
      One-electron energy =    -79.678169730055
      Two-electron energy =     26.053723105646
 Nuclear repulsion energy =     13.425734646715

        Time for solution =      0.0s



 HESSIAN: the one electron contributions are done in       0.0s


 HESSIAN: 2-el 1st deriv. term done in                     0.1s


 HESSIAN: 2-el 2nd deriv. term done in                     0.1s

  stpr_wrt_fd_from_sq: overwrite of existing file:./ch4.hess
 stpr_wrt_fd_dipole: overwrite of existing file./ch4.fd_ddipole

 HESSIAN: the two electron contributions are done in       0.2s

                                NWChem CPHF Module
                                ------------------


  scftype          =     RHF 
  nclosed          =        5
  nopen            =        0
  variables        =      145
  # of vectors     =       15
  tolerance        = 0.10D-03
  level shift      = 0.00D+00
  max iterations   =       50
  max subspace     =      150


 #quartets = 1.471D+04 #integrals = 1.780D+05 #direct =  0.0% #cached =100.0%


 Integral file          = ./ch4.aoints.0
 Record size in doubles =  65536        No. of integs per rec  =  43688
 Max. records in memory =      3        Max. records in file   = 161628
 No. of bits per label  =      8        No. of bits per value  =     64


File balance: exchanges=     0  moved=     0  time=   0.0

 SCF residual:    5.6290940635500271E-009


Iterative solution of linear equations
  No. of variables      145
  No. of equations       15
  Maximum subspace      150
        Iterations       50
       Convergence  1.0D-04
        Start time      1.0


   iter   nsub   residual    time
   ----  ------  --------  ---------
     1     15    8.00D-02       1.1
     2     30    1.44D-02       1.1
     3     45    2.15D-03       1.2
     4     60    2.82D-04       1.3
     5     75    1.48D-05       1.3

 Parallel integral file used       6 records with       0 large values

 HESSIAN: the CPHF contributions are done
  stpr_wrt_fd_from_sq: overwrite of existing file:./ch4.hess
 stpr_wrt_fd_dipole: overwrite of existing file./ch4.fd_ddipole

 Derivative Dipole

  
  
 X vector of derivative dipole (au) [debye/angstrom]
 d_dipole_x/<atom=   1,x> =     0.0606     [    0.2909]
 d_dipole_x/<atom=   1,y> =    -0.0000     [   -0.0000]
 d_dipole_x/<atom=   1,z> =     0.0000     [    0.0000]
 d_dipole_x/<atom=   2,x> =    -0.0151     [   -0.0727]
 d_dipole_x/<atom=   2,y> =    -0.0746     [   -0.3585]
 d_dipole_x/<atom=   2,z> =    -0.0746     [   -0.3585]
 d_dipole_x/<atom=   3,x> =    -0.0151     [   -0.0727]
 d_dipole_x/<atom=   3,y> =    -0.0746     [   -0.3585]
 d_dipole_x/<atom=   3,z> =     0.0746     [    0.3585]
 d_dipole_x/<atom=   4,x> =    -0.0151     [   -0.0727]
 d_dipole_x/<atom=   4,y> =     0.0746     [    0.3585]
 d_dipole_x/<atom=   4,z> =    -0.0746     [   -0.3585]
 d_dipole_x/<atom=   5,x> =    -0.0151     [   -0.0727]
 d_dipole_x/<atom=   5,y> =     0.0746     [    0.3585]
 d_dipole_x/<atom=   5,z> =     0.0746     [    0.3585]
  
 Y vector of derivative dipole (au) [debye/angstrom]
 d_dipole_y/<atom=   1,x> =    -0.0000     [   -0.0000]
 d_dipole_y/<atom=   1,y> =     0.0606     [    0.2909]
 d_dipole_y/<atom=   1,z> =    -0.0000     [   -0.0000]
 d_dipole_y/<atom=   2,x> =    -0.0746     [   -0.3585]
 d_dipole_y/<atom=   2,y> =    -0.0151     [   -0.0727]
 d_dipole_y/<atom=   2,z> =    -0.0746     [   -0.3585]
 d_dipole_y/<atom=   3,x> =    -0.0746     [   -0.3585]
 d_dipole_y/<atom=   3,y> =    -0.0151     [   -0.0727]
 d_dipole_y/<atom=   3,z> =     0.0746     [    0.3585]
 d_dipole_y/<atom=   4,x> =     0.0746     [    0.3585]
 d_dipole_y/<atom=   4,y> =    -0.0151     [   -0.0727]
 d_dipole_y/<atom=   4,z> =     0.0746     [    0.3585]
 d_dipole_y/<atom=   5,x> =     0.0746     [    0.3585]
 d_dipole_y/<atom=   5,y> =    -0.0151     [   -0.0727]
 d_dipole_y/<atom=   5,z> =    -0.0746     [   -0.3585]
  
 Z vector of derivative dipole (au) [debye/angstrom]
 d_dipole_z/<atom=   1,x> =     0.0000     [    0.0000]
 d_dipole_z/<atom=   1,y> =     0.0000     [    0.0000]
 d_dipole_z/<atom=   1,z> =     0.0606     [    0.2909]
 d_dipole_z/<atom=   2,x> =    -0.0746     [   -0.3585]
 d_dipole_z/<atom=   2,y> =    -0.0746     [   -0.3585]
 d_dipole_z/<atom=   2,z> =    -0.0151     [   -0.0727]
 d_dipole_z/<atom=   3,x> =     0.0746     [    0.3585]
 d_dipole_z/<atom=   3,y> =     0.0746     [    0.3585]
 d_dipole_z/<atom=   3,z> =    -0.0151     [   -0.0727]
 d_dipole_z/<atom=   4,x> =    -0.0746     [   -0.3585]
 d_dipole_z/<atom=   4,y> =     0.0746     [    0.3585]
 d_dipole_z/<atom=   4,z> =    -0.0151     [   -0.0727]
 d_dipole_z/<atom=   5,x> =     0.0746     [    0.3585]
 d_dipole_z/<atom=   5,y> =    -0.0746     [   -0.3585]
 d_dipole_z/<atom=   5,z> =    -0.0151     [   -0.0727]
  
  
 HESSIAN: the Hessian is done


  Vibrational analysis via the FX method 

  See chapter 2 in "Molecular Vibrations" by Wilson, Decius and Cross

  Vib: Default input used 

  Nuclear Hessian passed symmetry test 



 ---------------------------- Atom information ----------------------------
     atom    #        X              Y              Z            mass
 --------------------------------------------------------------------------
    C        1  0.0000000D+00  0.0000000D+00  0.0000000D+00  1.2000000D+01
    H        2  1.1900821D+00  1.1900821D+00  1.1900821D+00  1.0078250D+00
    H        3 -1.1900821D+00 -1.1900821D+00  1.1900821D+00  1.0078250D+00
    H        4 -1.1900821D+00  1.1900821D+00 -1.1900821D+00  1.0078250D+00
    H        5  1.1900821D+00 -1.1900821D+00 -1.1900821D+00  1.0078250D+00
 --------------------------------------------------------------------------




          ----------------------------------------------------
          MASS-WEIGHTED NUCLEAR HESSIAN (Hartree/Bohr/Bohr/Kamu)
          ----------------------------------------------------


               1            2            3            4            5            6            7            8            9           10
   ----- ----- ----- ----- -----
    1    5.05473D+01
    2    7.93680D-14  5.05473D+01
    3   -3.10821D-15  1.05860D-14  5.05473D+01
    4   -4.36050D+01 -2.83568D+01 -2.83568D+01  1.57646D+02
    5   -2.83568D+01 -4.36050D+01 -2.83568D+01  1.07606D+02  1.57646D+02
    6   -2.83568D+01 -2.83568D+01 -4.36050D+01  1.07606D+02  1.07606D+02  1.57646D+02
    7   -4.36050D+01 -2.83568D+01  2.83568D+01 -1.10982D+01 -9.75736D+00  1.26345D+01  1.57646D+02
    8   -2.83568D+01 -4.36050D+01  2.83568D+01 -9.75736D+00 -1.10982D+01  1.26345D+01  1.07606D+02  1.57646D+02
    9    2.83568D+01  2.83568D+01 -4.36050D+01 -1.26345D+01 -1.26345D+01  1.50145D+01 -1.07606D+02 -1.07606D+02  1.57646D+02
   10   -4.36050D+01  2.83568D+01 -2.83568D+01 -1.10982D+01  1.26345D+01 -9.75736D+00  1.50145D+01 -1.26345D+01  1.26345D+01  1.57646D+02
   11    2.83568D+01 -4.36050D+01  2.83568D+01 -1.26345D+01  1.50145D+01 -1.26345D+01  1.26345D+01 -1.10982D+01  9.75736D+00 -1.07606D+02
   12   -2.83568D+01  2.83568D+01 -4.36050D+01 -9.75736D+00  1.26345D+01 -1.10982D+01 -1.26345D+01  9.75736D+00 -1.10982D+01  1.07606D+02
   13   -4.36050D+01  2.83568D+01  2.83568D+01  1.50145D+01 -1.26345D+01 -1.26345D+01 -1.10982D+01  1.26345D+01  9.75736D+00 -1.10982D+01
   14    2.83568D+01 -4.36050D+01 -2.83568D+01  1.26345D+01 -1.10982D+01 -9.75736D+00 -1.26345D+01  1.50145D+01  1.26345D+01  9.75736D+00
   15    2.83568D+01 -2.83568D+01 -4.36050D+01  1.26345D+01 -9.75736D+00 -1.10982D+01  9.75736D+00 -1.26345D+01 -1.10982D+01 -1.26345D+01


              11           12           13           14           15
   ----- ----- ----- ----- -----
   11    1.57646D+02
   12   -1.07606D+02  1.57646D+02
   13    9.75736D+00  1.26345D+01  1.57646D+02
   14   -1.10982D+01 -1.26345D+01 -1.07606D+02  1.57646D+02
   15    1.26345D+01  1.50145D+01 -1.07606D+02  1.07606D+02  1.57646D+02



          -------------------------------------------------
          NORMAL MODE EIGENVECTORS IN CARTESIAN COORDINATES
          -------------------------------------------------
                 (Frequencies expressed in cm-1)

                    1           2           3           4           5           6
 
 Frequency         -3.40       -3.40       -3.40       -0.12        0.01        0.12
 
           1     0.00000    -0.00021    -0.00000     0.17658    -0.00008    -0.17662
           2    -0.00021     0.00000     0.00001    -0.15795     0.11169    -0.15797
           3     0.00021     0.00000    -0.00001    -0.07904    -0.22339    -0.07892
           4    -0.01559    -0.34824    -0.35594     0.17638    -0.00008    -0.17642
           5    -0.33660    -0.00416     0.36727    -0.15786     0.11130    -0.15787
           6     0.35219     0.35219    -0.01133    -0.07892    -0.22300    -0.07922
           7     0.01530    -0.35649     0.34769     0.17638    -0.00008    -0.17642
           8    -0.36749     0.00409    -0.33636    -0.15786     0.11130    -0.15787
           9    -0.35178    -0.35219     0.01131    -0.07915    -0.22378    -0.07862
          10    -0.01530     0.35607    -0.34769     0.17679    -0.00008    -0.17683
          11     0.33619     0.00416    -0.36725    -0.15805     0.11209    -0.15806
          12     0.35190    -0.35212    -0.01957    -0.07934    -0.22300    -0.07881
          13     0.01559     0.34782     0.35594     0.17679    -0.00008    -0.17683
          14     0.36707    -0.00409     0.33638    -0.15805     0.11209    -0.15806
          15    -0.35149     0.35212     0.01956    -0.07874    -0.22378    -0.07903

                    7           8           9          10          11          12
 
 Frequency       1433.27     1433.27     1433.27     1647.87     1647.87     3164.83
 
           1     0.08108     0.00001    -0.08108     0.00000    -0.00000     0.00000
           2     0.07252    -0.05127     0.07252    -0.00000    -0.00000    -0.00000
           3     0.03624     0.10256     0.03626     0.00000     0.00000    -0.00000
           4    -0.03739     0.09614     0.44529     0.18572     0.36178     0.28755
           5     0.00410     0.34493    -0.29989     0.22045    -0.34172     0.28755
           6     0.18011    -0.40139    -0.12398    -0.40617    -0.02005     0.28755
           7    -0.17331    -0.28846     0.30932    -0.18572    -0.36178    -0.28755
           8    -0.13182    -0.03967    -0.43586    -0.22045     0.34172    -0.28755
           9    -0.39589    -0.20918    -0.09188    -0.40617    -0.02005     0.28755
          10    -0.30936     0.28839     0.17335    -0.18572    -0.36178    -0.28755
          11    -0.43586    -0.03972    -0.13182     0.22045    -0.34172     0.28755
          12    -0.09185    -0.20914    -0.39592     0.40617     0.02005    -0.28755
          13    -0.44528    -0.09621     0.03738     0.18572     0.36178     0.28755
          14    -0.29994     0.34489     0.00415    -0.22045     0.34172    -0.28755
          15    -0.12392    -0.40143     0.18006     0.40617     0.02005    -0.28755

                   13          14          15
 
 Frequency       3285.63     3285.63     3285.63
 
           1     0.06248    -0.00000    -0.06250
           2     0.05590    -0.03952     0.05588
           3     0.02795     0.07904     0.02794
           4    -0.45065    -0.12475    -0.07855
           5    -0.45183    -0.13186    -0.05726
           6    -0.45686    -0.11053    -0.06229
           7    -0.27420     0.37424     0.09784
           8    -0.27538     0.36713     0.11913
           9     0.29046    -0.36003    -0.10405
          10    -0.09775    -0.37424     0.27423
          11     0.11904     0.36713    -0.27542
          12    -0.10396    -0.36003     0.29050
          13     0.07870     0.12475     0.45062
          14    -0.05741    -0.13186    -0.45181
          15    -0.06243    -0.11053    -0.45684



 ----------------------------------------------------------------------------
 Normal Eigenvalue ||         Derivative Dipole Moments (debye/angs)
  Mode   [cm**-1]  ||      [d/dqX]             [d/dqY]           [d/dqZ]
 ------ ---------- || ------------------ ------------------ -----------------
    1       -3.402 ||       0.000               0.000            -0.000
    2       -3.402 ||       0.000               0.000             0.000
    3       -3.402 ||       0.000              -0.000             0.000
    4       -0.123 ||       0.000              -0.000            -0.000
    5        0.008 ||       0.000              -0.000             0.000
    6        0.124 ||       0.000               0.000             0.000
    7     1433.274 ||       0.342               0.306             0.153
    8     1433.274 ||       0.000              -0.216             0.433
    9     1433.274 ||       0.342              -0.306            -0.153
   10     1647.868 ||       0.000              -0.000             0.000
   11     1647.868 ||      -0.000              -0.000             0.000
   12     3164.829 ||      -0.000               0.000             0.000
   13     3285.632 ||       0.638               0.571             0.285
   14     3285.632 ||      -0.000              -0.403             0.807
   15     3285.632 ||       0.638              -0.571            -0.285
 ----------------------------------------------------------------------------



  
  
 ----------------------------------------------------------------------------
 Normal Eigenvalue ||                 Infra Red Intensities
  Mode   [cm**-1]  || [atomic units] [(debye/angs)**2] [(KM/mol)] [arbitrary]
 ------ ---------- || -------------- ----------------- ---------- -----------
    1       -3.402 ||    0.000000           0.000         0.000       0.000
    2       -3.402 ||    0.000000           0.000         0.000       0.000
    3       -3.402 ||    0.000000           0.000         0.000       0.000
    4       -0.123 ||    0.000000           0.000         0.000       0.000
    5        0.008 ||    0.000000           0.000         0.000       0.000
    6        0.124 ||    0.000000           0.000         0.000       0.000
    7     1433.274 ||    0.010152           0.234         9.897      11.172
    8     1433.274 ||    0.010152           0.234         9.897      11.172
    9     1433.274 ||    0.010152           0.234         9.897      11.172
   10     1647.868 ||    0.000000           0.000         0.000       0.000
   11     1647.868 ||    0.000000           0.000         0.000       0.000
   12     3164.829 ||    0.000000           0.000         0.000       0.000
   13     3285.632 ||    0.035284           0.814        34.397      38.828
   14     3285.632 ||    0.035284           0.814        34.397      38.828
   15     3285.632 ||    0.035284           0.814        34.397      38.828
 ----------------------------------------------------------------------------





        Vibrational analysis via the FX method 
  --- with translations and rotations projected out ---
  --- via the Eckart algorithm                      ---
 Projected Nuclear Hessian trans-rot subspace norm:4.6042D-33
                         (should be close to zero!) 

          --------------------------------------------------------
          MASS-WEIGHTED PROJECTED HESSIAN (Hartree/Bohr/Bohr/Kamu)
          --------------------------------------------------------


               1            2            3            4            5            6            7            8            9           10
   ----- ----- ----- ----- -----
    1    5.05473D+01
    2    2.75201D-08  5.05473D+01
    3    1.37600D-08  6.85582D-15  5.05473D+01
    4   -4.36050D+01 -2.83568D+01 -2.83568D+01  1.57647D+02
    5   -2.83568D+01 -4.36050D+01 -2.83568D+01  1.07606D+02  1.57647D+02
    6   -2.83568D+01 -2.83568D+01 -4.36050D+01  1.07606D+02  1.07606D+02  1.57647D+02
    7   -4.36050D+01 -2.83568D+01  2.83568D+01 -1.10982D+01 -9.75730D+00  1.26344D+01  1.57647D+02
    8   -2.83568D+01 -4.36050D+01  2.83568D+01 -9.75730D+00 -1.10982D+01  1.26344D+01  1.07606D+02  1.57647D+02
    9    2.83568D+01  2.83568D+01 -4.36050D+01 -1.26344D+01 -1.26344D+01  1.50144D+01 -1.07606D+02 -1.07606D+02  1.57647D+02
   10   -4.36050D+01  2.83568D+01 -2.83568D+01 -1.10982D+01  1.26344D+01 -9.75730D+00  1.50144D+01 -1.26344D+01  1.26344D+01  1.57647D+02
   11    2.83568D+01 -4.36050D+01  2.83568D+01 -1.26344D+01  1.50144D+01 -1.26344D+01  1.26344D+01 -1.10982D+01  9.75730D+00 -1.07606D+02
   12   -2.83568D+01  2.83568D+01 -4.36050D+01 -9.75730D+00  1.26344D+01 -1.10982D+01 -1.26344D+01  9.75730D+00 -1.10982D+01  1.07606D+02
   13   -4.36050D+01  2.83568D+01  2.83568D+01  1.50144D+01 -1.26344D+01 -1.26344D+01 -1.10982D+01  1.26344D+01  9.75730D+00 -1.10982D+01
   14    2.83568D+01 -4.36050D+01 -2.83568D+01  1.26344D+01 -1.10982D+01 -9.75730D+00 -1.26344D+01  1.50144D+01  1.26344D+01  9.75730D+00
   15    2.83568D+01 -2.83568D+01 -4.36050D+01  1.26344D+01 -9.75730D+00 -1.10982D+01  9.75730D+00 -1.26344D+01 -1.10982D+01 -1.26344D+01


              11           12           13           14           15
   ----- ----- ----- ----- -----
   11    1.57647D+02
   12   -1.07606D+02  1.57647D+02
   13    9.75730D+00  1.26344D+01  1.57647D+02
   14   -1.10982D+01 -1.26344D+01 -1.07606D+02  1.57647D+02
   15    1.26344D+01  1.50144D+01 -1.07606D+02  1.07606D+02  1.57647D+02

 center of mass
 --------------
 x =   0.00000000 y =   0.00000000 z =   0.00000000

 moments of inertia (a.u.)
 ------------------
          11.419023790095           0.000000000000           0.000000000000
           0.000000000000          11.419023790095           0.000000000000
           0.000000000000           0.000000000000          11.419023790095

 Rotational Constants
 --------------------
 A=   5.271920 cm-1  (  7.584947 K)
 B=   5.271920 cm-1  (  7.584947 K)
 C=   5.271920 cm-1  (  7.584947 K)


 Temperature                      =   298.15K
 frequency scaling parameter      =   1.0000

 Zero-Point correction to Energy  =   29.460 kcal/mol  (  0.046947 au)
 Thermal correction to Energy     =   31.252 kcal/mol  (  0.049803 au)
 Thermal correction to Enthalpy   =   31.844 kcal/mol  (  0.050747 au)

 Total Entropy                    =   44.425 cal/mol-K
   - Translational                =   34.246 cal/mol-K (mol. weight =  16.0313)
   - Rotational                   =   10.120 cal/mol-K (symmetry #  =       12)
   - Vibrational                  =    0.059 cal/mol-K

 Cv (constant volume heat capacity) =    6.331 cal/mol-K
   - Translational                  =    2.979 cal/mol-K
   - Rotational                     =    2.979 cal/mol-K
   - Vibrational                    =    0.372 cal/mol-K



          -------------------------------------------------
          NORMAL MODE EIGENVECTORS IN CARTESIAN COORDINATES
          -------------------------------------------------
             (Projected Frequencies expressed in cm-1)

                    1           2           3           4           5           6
 
 P.Frequency       -0.00        0.00        0.00        0.00        0.00        0.00
 
           1    -0.00104     0.00050     0.00712    -0.00595     0.24958    -0.00016
           2    -0.02159     0.00602    -0.00422    -0.00960    -0.00005     0.24853
           3    -0.00495    -0.24829     0.02429     0.00877    -0.00000     0.00634
           4     0.35300    -0.02103    -0.23893     0.23934     0.26398     0.03641
           5    -0.38850     0.04327     0.21612     0.24163    -0.00196     0.22920
           6     0.00792    -0.26401     0.04999    -0.48775    -0.01250    -0.01091
           7    -0.34776    -0.01200    -0.26690     0.22167     0.26138    -0.02584
           8     0.31226     0.03425     0.24409     0.25930     0.00065     0.29145
           9    -0.01782    -0.23256    -0.00141     0.50529     0.01249     0.02358
          10     0.34568     0.01301     0.28113    -0.23357     0.23778     0.02551
          11     0.34533    -0.03123    -0.22457    -0.26083     0.00186     0.26785
          12     0.01525    -0.29805    -0.47007    -0.01484     0.01371    -0.00001
          13    -0.35508     0.02203     0.25316    -0.25124     0.23518    -0.03673
          14    -0.35543    -0.02221    -0.25253    -0.27850    -0.00074     0.20561
          15    -0.02515    -0.19853     0.51865     0.03239    -0.01371     0.01269

                    7           8           9          10          11          12
 
 P.Frequency     1433.27     1433.27     1433.27     1647.87     1647.87     3164.83
 
           1     0.08108    -0.00000    -0.08108    -0.00000    -0.00000     0.00000
           2     0.07252    -0.05128     0.07252    -0.00000    -0.00000    -0.00000
           3     0.03626     0.10255     0.03626     0.00000     0.00000    -0.00000
           4    -0.03738     0.09615     0.44529     0.18572     0.36178     0.28755
           5     0.00415     0.34493    -0.29989     0.22045    -0.34172     0.28755
           6     0.18006    -0.40141    -0.12398    -0.40617    -0.02005     0.28755
           7    -0.17335    -0.28844     0.30932    -0.18572    -0.36178    -0.28755
           8    -0.13182    -0.03966    -0.43586    -0.22045     0.34172    -0.28755
           9    -0.39592    -0.20912    -0.09188    -0.40617    -0.02005     0.28755
          10    -0.30932     0.28844     0.17335    -0.18572    -0.36178    -0.28755
          11    -0.43586    -0.03966    -0.13182     0.22045    -0.34172     0.28755
          12    -0.09188    -0.20912    -0.39592     0.40617     0.02005    -0.28755
          13    -0.44529    -0.09615     0.03738     0.18572     0.36178     0.28755
          14    -0.29989     0.34493     0.00415    -0.22045     0.34172    -0.28755
          15    -0.12398    -0.40141     0.18006     0.40617     0.02005    -0.28755

                   13          14          15
 
 P.Frequency     3285.63     3285.63     3285.63
 
           1     0.06249     0.00000    -0.06249
           2     0.05589    -0.03952     0.05589
           3     0.02794     0.07904     0.02794
           4    -0.45063    -0.12475    -0.07863
           5    -0.45182    -0.13186    -0.05733
           6    -0.45684    -0.11054    -0.06236
           7    -0.27422     0.37424     0.09779
           8    -0.27540     0.36713     0.11909
           9     0.29048    -0.36002    -0.10401
          10    -0.09779    -0.37424     0.27421
          11     0.11908     0.36714    -0.27540
          12    -0.10400    -0.36003     0.29048
          13     0.07862     0.12475     0.45063
          14    -0.05733    -0.13186    -0.45182
          15    -0.06236    -0.11053    -0.45685



 ----------------------------------------------------------------------------
 Normal Eigenvalue ||    Projected Derivative Dipole Moments (debye/angs)
  Mode   [cm**-1]  ||      [d/dqX]             [d/dqY]           [d/dqZ]
 ------ ---------- || ------------------ ------------------ -----------------
    1       -0.000 ||       0.000              -0.000            -0.000
    2        0.000 ||       0.000               0.000            -0.000
    3        0.000 ||      -0.000              -0.000             0.000
    4        0.000 ||      -0.000              -0.000            -0.000
    5        0.000 ||      -0.000              -0.000            -0.000
    6        0.000 ||       0.000              -0.000            -0.000
    7     1433.274 ||       0.342               0.306             0.153
    8     1433.274 ||      -0.000              -0.216             0.433
    9     1433.274 ||       0.342              -0.306            -0.153
   10     1647.868 ||      -0.000               0.000            -0.000
   11     1647.868 ||       0.000               0.000            -0.000
   12     3164.829 ||      -0.000              -0.000            -0.000
   13     3285.632 ||       0.638               0.571             0.285
   14     3285.632 ||       0.000              -0.403             0.807
   15     3285.632 ||       0.638              -0.571            -0.285
 ----------------------------------------------------------------------------



  
  
 ----------------------------------------------------------------------------
 Normal Eigenvalue ||           Projected Infra Red Intensities
  Mode   [cm**-1]  || [atomic units] [(debye/angs)**2] [(KM/mol)] [arbitrary]
 ------ ---------- || -------------- ----------------- ---------- -----------
    1       -0.000 ||    0.000000           0.000         0.000       0.000
    2        0.000 ||    0.000000           0.000         0.000       0.000
    3        0.000 ||    0.000000           0.000         0.000       0.000
    4        0.000 ||    0.000000           0.000         0.000       0.000
    5        0.000 ||    0.000000           0.000         0.000       0.000
    6        0.000 ||    0.000000           0.000         0.000       0.000
    7     1433.274 ||    0.010152           0.234         9.897      11.172
    8     1433.274 ||    0.010152           0.234         9.897      11.172
    9     1433.274 ||    0.010152           0.234         9.897      11.172
   10     1647.868 ||    0.000000           0.000         0.000       0.000
   11     1647.868 ||    0.000000           0.000         0.000       0.000
   12     3164.829 ||    0.000000           0.000         0.000       0.000
   13     3285.632 ||    0.035284           0.814        34.397      38.828
   14     3285.632 ||    0.035284           0.814        34.397      38.828
   15     3285.632 ||    0.035284           0.814        34.397      38.828
 ----------------------------------------------------------------------------



 vib:animation  F

 Task  times  cpu:        0.7s     wall:        0.8s


                                NWChem Input Module
                                -------------------




                           NWChem Geometry Optimization
                           ----------------------------


  no constraints, skipping    0.0000000000000000     
 maximum gradient threshold         (gmax) =   0.000450
 rms gradient threshold             (grms) =   0.000300
 maximum cartesian step threshold   (xmax) =   0.001800
 rms cartesian step threshold       (xrms) =   0.001200
 fixed trust radius                (trust) =   0.300000
 maximum step size to saddle      (sadstp) =   0.100000
 energy precision                  (eprec) =   5.0D-06
 maximum number of steps          (nptopt) =   20
 initial hessian option           (inhess) =    0
 line search option               (linopt) =    1
 hessian update option            (modupd) =    1
 saddle point option              (modsad) =    0
 initial eigen-mode to follow     (moddir) =    0
 initial variable to follow       (vardir) =    0
 follow first negative mode     (firstneg) =    T
 apply conjugacy                    (opcg) =    F
 source of zmatrix                         =   autoz   


          -------------------
          Energy Minimization
          -------------------


 Names of Z-matrix variables 
    1              2              3              4              5         
    6              7              8              9             10         

 Variables with the same non-blank name are constrained to be equal


 Using old Hessian from previous optimization

          --------
          Step   0
          --------


                         Geometry "geometry" -> "geometry"
                         ---------------------------------

 Output coordinates in a.u. (scale by  1.000000000 to convert to a.u.)

  No.       Tag          Charge          X              Y              Z
 ---- ---------------- ---------- -------------- -------------- --------------
    1 c                    6.0000     0.00000000     0.00000000     0.00000000
    2 h                    1.0000     1.19008212     1.19008212     1.19008212
    3 h                    1.0000    -1.19008212    -1.19008212     1.19008212
    4 h                    1.0000    -1.19008212     1.19008212    -1.19008212
    5 h                    1.0000     1.19008212    -1.19008212    -1.19008212

      Atomic Mass 
      ----------- 

      c                 12.000000
      h                  1.007825


 Effective nuclear repulsion energy (a.u.)      13.4257346467

            Nuclear Dipole moment (a.u.) 
            ----------------------------
        X                 Y               Z
 ---------------- ---------------- ----------------
     0.0000000000     0.0000000000     0.0000000000

      Symmetry information
      --------------------

 Group name              Td       
 Group number             42
 Group order              24
 No. of unique centers     2

      Symmetry unique atoms

     1    2


                                 NWChem DFT Module
                                 -----------------




 Summary of "ao basis" -> "ao basis" (spherical)
 ------------------------------------------------------------------------------
       Tag                 Description            Shells   Functions and Types
 ---------------- ------------------------------  ------  ---------------------
 c                          cc-pvdz                  6       14   3s2p1d
 h                          cc-pvdz                  3        5   2s1p


      Symmetry analysis of basis
      --------------------------

        a1          6
        a2          0
        e           4
        t1          3
        t2         21

  Caching 1-el integrals 

            General Information
            -------------------
          SCF calculation type: DFT
          Wavefunction type:  closed shell.
          No. of atoms     :     5
          No. of electrons :    10
           Alpha electrons :     5
            Beta electrons :     5
          Charge           :     0
          Spin multiplicity:     1
          Use of symmetry is: on ; symmetry adaption is: on 
          Maximum number of iterations:  30
          AO basis - number of functions:    34
                     number of shells:    18
          Convergence on energy requested:  1.00D-06
          Convergence on density requested:  1.00D-05
          Convergence on gradient requested:  1.00D-07

              XC Information
              --------------
                    Becke 1988 Exchange Functional  1.000          
              Lee-Yang-Parr Correlation Functional  1.000          

             Grid Information
             ----------------
          Grid used for XC integration:  medium    
          Radial quadrature: Mura-Knowles        
          Angular quadrature: Lebedev. 
          Tag              B.-S. Rad. Rad. Pts. Rad. Cut. Ang. Pts.
          ---              ---------- --------- --------- ---------
          c                   0.70       49           6.0       434
          h                   0.35       45           7.0       434
          Grid pruning is: on 
          Number of quadrature shells:    94
          Spatial weights used:  Erf1

          Convergence Information
          -----------------------
          Convergence aids based upon iterative change in 
          total energy or number of iterations. 
          Levelshifting, if invoked, occurs when the 
          HOMO/LUMO gap drops below (HL_TOL):  1.00D-02
          DIIS, if invoked, will attempt to extrapolate 
          using up to (NFOCK): 10 stored Fock matrices.

                    Damping( 0%)  Levelshifting(0.5)       DIIS
                  --------------- ------------------- ---------------
          dE  on:    start            ASAP                start   
          dE off:    2 iters         30 iters            30 iters 


      Screening Tolerance Information
      -------------------------------
          Density screening/tol_rho:  1.00D-10
          AO Gaussian exp screening on grid/accAOfunc:  14
          CD Gaussian exp screening on grid/accCDfunc:  20
          XC Gaussian exp screening on grid/accXCfunc:  20
          Schwarz screening/accCoul:  1.00D-08


      Superposition of Atomic Density Guess
      -------------------------------------

 Sum of atomic energies:         -39.66326211

      Non-variational initial energy
      ------------------------------

 Total energy =     -40.243919
 1-e energy   =     -78.258369
 2-e energy   =      24.588715
 HOMO         =      -0.517531
 LUMO         =       0.111175


      Symmetry analysis of molecular orbitals - initial
      -------------------------------------------------

  Numbering of irreducible representations: 

     1 a1          2 a2          3 e           4 t1          5 t2      

  Orbital symmetries:

     1 a1          2 a1          3 t2          4 t2          5 t2      
     6 a1          7 t2          8 t2          9 t2         10 t2      
    11 t2         12 t2         13 t2         14 t2         15 t2      

   Time after variat. SCF:      1.4
   Time prior to 1st pass:      1.4

 #quartets = 2.331D+03 #integrals = 2.930D+04 #direct =  0.0% #cached =100.0%


 Integral file          = ./ch4.aoints.0
 Record size in doubles =  65536        No. of integs per rec  =  43688
 Max. records in memory =      2        Max. records in file   = 161628
 No. of bits per label  =      8        No. of bits per value  =     64


File balance: exchanges=     0  moved=     0  time=   0.0


 Grid_pts file          = ./ch4.gridpts.0
 Record size in doubles =  12289        No. of grid_pts per rec  =   3070
 Max. records in memory =      5        Max. recs in file   =    861952


           Memory utilization after 1st SCF pass: 
           Heap Space remaining (MW):       86.05            86052330
          Stack Space remaining (MW):       86.25            86246828

   convergence    iter        energy       DeltaE   RMS-Dens  Diis-err    time
 ---------------- ----- ----------------- --------- --------- ---------  ------
 d= 0,ls=0.0,diis     1    -40.4645310312 -5.39D+01  8.93D-03  1.01D-01     1.5
 d= 0,ls=0.0,diis     2    -40.4732076136 -8.68D-03  3.80D-03  1.57D-02     1.5
 d= 0,ls=0.0,diis     3    -40.4734467874 -2.39D-04  1.95D-03  1.34D-02     1.5
 d= 0,ls=0.0,diis     4    -40.4752214435 -1.77D-03  9.09D-05  1.13D-05     1.5
 d= 0,ls=0.0,diis     5    -40.4752234839 -2.04D-06  3.08D-06  2.39D-08     1.5
 d= 0,ls=0.0,diis     6    -40.4752234873 -3.42D-09  2.81D-08  3.70D-12     1.5


         Total DFT energy =      -40.475223487334
      One electron energy =      -79.792806901959
           Coulomb energy =       32.754792628781
    Exchange-Corr. energy =       -6.862943860871
 Nuclear repulsion energy =       13.425734646715

 Numeric. integr. density =       10.000006332158

     Total iterative time =      0.1s



                  Occupations of the irreducible representations
                  ----------------------------------------------

                     irrep           alpha         beta
                     --------     --------     --------
                     a1                2.0          2.0
                     a2                0.0          0.0
                     e                 0.0          0.0
                     t1                0.0          0.0
                     t2                3.0          3.0


                       DFT Final Molecular Orbital Analysis
                       ------------------------------------

 Vector    1  Occ=2.000000D+00  E=-9.907563D+00  Symmetry=a1
              MO Center= -2.0D-21, -7.0D-21,  1.1D-20, r^2= 2.8D-02
   Bfn.  Coefficient  Atom+Function         Bfn.  Coefficient  Atom+Function  
  ----- ------------  ---------------      ----- ------------  ---------------
     1      1.007856  1 C  s          

 Vector    2  Occ=2.000000D+00  E=-6.164071D-01  Symmetry=a1
              MO Center=  1.5D-16, -2.6D-16,  1.6D-16, r^2= 1.0D+00
   Bfn.  Coefficient  Atom+Function         Bfn.  Coefficient  Atom+Function  
  ----- ------------  ---------------      ----- ------------  ---------------
     2      0.382275  1 C  s                  3      0.206133  1 C  s          
    15      0.184937  2 H  s                 20      0.184937  3 H  s          
    25      0.184937  4 H  s                 30      0.184937  5 H  s          
    16      0.034854  2 H  s                 21      0.034854  3 H  s          
    26      0.034854  4 H  s                 31      0.034854  5 H  s          

 Vector    3  Occ=2.000000D+00  E=-3.376323D-01  Symmetry=t2
              MO Center= -8.2D-02,  2.8D-01, -1.1D-01, r^2= 1.2D+00
   Bfn.  Coefficient  Atom+Function         Bfn.  Coefficient  Atom+Function  
  ----- ------------  ---------------      ----- ------------  ---------------
    25     -0.355027  4 H  s                  4      0.343765  1 C  px         
     6      0.261525  1 C  pz                15      0.253607  2 H  s          
    26     -0.168831  4 H  s                  7      0.131715  1 C  px         
    16      0.120602  2 H  s                  5     -0.100862  1 C  py         
     9      0.100204  1 C  pz                30      0.092057  5 H  s          

 Vector    4  Occ=2.000000D+00  E=-3.376323D-01  Symmetry=t2
              MO Center=  1.6D-01,  1.2D-02,  4.4D-02, r^2= 1.3D+00
   Bfn.  Coefficient  Atom+Function         Bfn.  Coefficient  Atom+Function  
  ----- ------------  ---------------      ----- ------------  ---------------
     5      0.425660  1 C  py                15      0.291247  2 H  s          
    30     -0.257576  5 H  s                 20     -0.170435  3 H  s          
     8      0.163093  1 C  py                16      0.138501  2 H  s          
    25      0.136764  4 H  s                 31     -0.122489  5 H  s          
     6      0.120148  1 C  pz                21     -0.081050  3 H  s          

 Vector    5  Occ=2.000000D+00  E=-3.376323D-01  Symmetry=t2
              MO Center= -7.7D-02, -2.9D-01,  6.3D-02, r^2= 1.2D+00
   Bfn.  Coefficient  Atom+Function         Bfn.  Coefficient  Atom+Function  
  ----- ------------  ---------------      ----- ------------  ---------------
    20      0.346491  3 H  s                  6      0.337509  1 C  pz         
     4     -0.278293  1 C  px                30     -0.272713  5 H  s          
    21      0.164773  3 H  s                  9      0.129318  1 C  pz         
    31     -0.129687  5 H  s                  7     -0.106629  1 C  px         
     5     -0.073374  1 C  py                25     -0.066661  4 H  s          

 Vector    6  Occ=0.000000D+00  E= 5.462240D-02  Symmetry=a1
              MO Center=  3.2D-15, -4.1D-15, -2.2D-14, r^2= 4.4D+00
   Bfn.  Coefficient  Atom+Function         Bfn.  Coefficient  Atom+Function  
  ----- ------------  ---------------      ----- ------------  ---------------
     3      2.131572  1 C  s                 16     -0.789194  2 H  s          
    21     -0.789194  3 H  s                 26     -0.789194  4 H  s          
    31     -0.789194  5 H  s                  2      0.181755  1 C  s          
     1     -0.057616  1 C  s                 15     -0.039823  2 H  s          
    20     -0.039823  3 H  s                 25     -0.039823  4 H  s          

 Vector    7  Occ=0.000000D+00  E= 1.221585D-01  Symmetry=t2
              MO Center= -6.1D-01, -7.0D-02,  3.6D-02, r^2= 3.7D+00
   Bfn.  Coefficient  Atom+Function         Bfn.  Coefficient  Atom+Function  
  ----- ------------  ---------------      ----- ------------  ---------------
    21      1.630006  3 H  s                 26     -1.507744  4 H  s          
     9     -1.095910  1 C  pz                 8      0.564394  1 C  py         
    31     -0.563377  5 H  s                 16      0.441115  2 H  s          
     6     -0.356126  1 C  pz                 5      0.183405  1 C  py         
    20      0.111512  3 H  s                 25     -0.103148  4 H  s          

 Vector    8  Occ=0.000000D+00  E= 1.221585D-01  Symmetry=t2
              MO Center=  5.3D-01,  2.7D-01,  4.9D-01, r^2= 3.5D+00
   Bfn.  Coefficient  Atom+Function         Bfn.  Coefficient  Atom+Function  
  ----- ------------  ---------------      ----- ------------  ---------------
    16      1.917217  2 H  s                  8     -0.993074  1 C  py         
    31     -0.981345  5 H  s                 21     -0.895430  3 H  s          
     9     -0.540667  1 C  pz                 7     -0.495206  1 C  px         
     5     -0.322709  1 C  py                 6     -0.175695  1 C  pz         
     4     -0.160922  1 C  px                15      0.131161  2 H  s          

 Vector    9  Occ=0.000000D+00  E= 1.221585D-01  Symmetry=t2
              MO Center=  8.1D-02, -1.9D-01, -5.2D-01, r^2= 3.8D+00
   Bfn.  Coefficient  Atom+Function         Bfn.  Coefficient  Atom+Function  
  ----- ------------  ---------------      ----- ------------  ---------------
    31      1.673682  5 H  s                 26     -1.344140  4 H  s          
     7     -1.128863  1 C  px                21     -0.789257  3 H  s          
     8      0.467983  1 C  py                16      0.459716  2 H  s          
     4     -0.366835  1 C  px                 9      0.174373  1 C  pz         
     5      0.152075  1 C  py                30      0.114500  5 H  s          

 Vector   10  Occ=0.000000D+00  E= 3.821050D-01  Symmetry=t2
              MO Center= -1.9D-02, -1.0D-01, -1.8D-02, r^2= 2.5D+00
   Bfn.  Coefficient  Atom+Function         Bfn.  Coefficient  Atom+Function  
  ----- ------------  ---------------      ----- ------------  ---------------
     9      0.804965  1 C  pz                 7      0.752612  1 C  px         
    15     -0.732920  2 H  s                 25      0.610976  4 H  s          
     6     -0.212761  1 C  pz                 4     -0.198924  1 C  px         
    16      0.164946  2 H  s                  8      0.141334  1 C  py         
    26     -0.137502  4 H  s                 10     -0.096578  1 C  d -2       

 Vector   11  Occ=0.000000D+00  E= 3.821050D-01  Symmetry=t2
              MO Center=  4.1D-02,  1.4D-03, -6.7D-03, r^2= 2.5D+00
   Bfn.  Coefficient  Atom+Function         Bfn.  Coefficient  Atom+Function  
  ----- ------------  ---------------      ----- ------------  ---------------
     8      1.087298  1 C  py                20      0.582198  3 H  s          
    25     -0.550390  4 H  s                 15     -0.387743  2 H  s          
    30      0.355935  5 H  s                  5     -0.287385  1 C  py         
     9     -0.225374  1 C  pz                13      0.130451  1 C  d  1       
    21     -0.131026  3 H  s                 26      0.123867  4 H  s          

 Vector   12  Occ=0.000000D+00  E= 3.821050D-01  Symmetry=t2
              MO Center= -2.2D-02,  1.0D-01,  2.4D-02, r^2= 2.5D+00
   Bfn.  Coefficient  Atom+Function         Bfn.  Coefficient  Atom+Function  
  ----- ------------  ---------------      ----- ------------  ---------------
     7      0.816447  1 C  px                30     -0.745330  5 H  s          
     9     -0.731852  1 C  pz                20      0.590559  3 H  s          
     4     -0.215796  1 C  px                 6      0.193437  1 C  pz         
     8     -0.179380  1 C  py                31      0.167739  5 H  s          
    21     -0.132908  3 H  s                 25      0.113880  4 H  s          

 Vector   13  Occ=0.000000D+00  E= 6.094220D-01  Symmetry=t2
              MO Center=  3.3D-01,  1.5D-01,  1.9D-01, r^2= 2.7D+00
   Bfn.  Coefficient  Atom+Function         Bfn.  Coefficient  Atom+Function  
  ----- ------------  ---------------      ----- ------------  ---------------
    16      1.938881  2 H  s                  8     -1.334878  1 C  py         
    31     -1.146960  5 H  s                  9     -1.092623  1 C  pz         
     5      0.631403  1 C  py                 7     -0.622971  1 C  px         
    21     -0.549938  3 H  s                  6      0.516815  1 C  pz         
    15     -0.397115  2 H  s                  4      0.294668  1 C  px         

 Vector   14  Occ=0.000000D+00  E= 6.094220D-01  Symmetry=t2
              MO Center= -2.0D-01, -3.2D-01,  1.5D-01, r^2= 2.7D+00
   Bfn.  Coefficient  Atom+Function         Bfn.  Coefficient  Atom+Function  
  ----- ------------  ---------------      ----- ------------  ---------------
    21      1.937646  3 H  s                  9     -1.375036  1 C  pz         
    31     -1.116508  5 H  s                  7      1.027538  1 C  px         
     6      0.650398  1 C  pz                 8      0.645954  1 C  py         
    26     -0.631439  4 H  s                  4     -0.486030  1 C  px         
    20     -0.396862  3 H  s                  5     -0.305539  1 C  py         

 Vector   15  Occ=0.000000D+00  E= 6.094220D-01  Symmetry=t2
              MO Center= -1.3D-01,  1.6D-01, -3.3D-01, r^2= 2.7D+00
   Bfn.  Coefficient  Atom+Function         Bfn.  Coefficient  Atom+Function  
  ----- ------------  ---------------      ----- ------------  ---------------
    26      1.902512  4 H  s                  7      1.385601  1 C  px         
    31     -1.230737  5 H  s                  8     -1.079194  1 C  py         
     4     -0.655395  1 C  px                 9      0.528457  1 C  pz         
    16     -0.530639  2 H  s                  5      0.510463  1 C  py         
    25     -0.389666  4 H  s                 30      0.252075  5 H  s          

 Vector   16  Occ=0.000000D+00  E= 6.383604D-01  Symmetry=a1
              MO Center=  4.3D-16,  1.0D-15, -7.5D-16, r^2= 2.4D+00
   Bfn.  Coefficient  Atom+Function         Bfn.  Coefficient  Atom+Function  
  ----- ------------  ---------------      ----- ------------  ---------------
     3      0.986572  1 C  s                  2     -0.724908  1 C  s          
    15      0.604108  2 H  s                 20      0.604108  3 H  s          
    25      0.604108  4 H  s                 30      0.604108  5 H  s          
    16     -0.493174  2 H  s                 21     -0.493174  3 H  s          
    26     -0.493174  4 H  s                 31     -0.493174  5 H  s          

 Vector   17  Occ=0.000000D+00  E= 8.599689D-01  Symmetry=e
              MO Center= -1.6D-15,  2.1D-15, -2.9D-16, r^2= 1.2D+00
[...]
          12     0.14036    -0.44719    -0.16888    -0.07921    -0.22408    -0.07580
          13     0.19782     0.18080     0.41963     0.17648    -0.00213    -0.17714
          14     0.33792    -0.26604     0.25089    -0.15846     0.10987    -0.15920
          15    -0.13999     0.44702     0.16879    -0.07860    -0.22487    -0.07602

                    7           8           9          10          11          12
 
 Frequency       1274.58     1274.58     1274.58     1493.86     1493.86     2954.44
 
           1     0.08146     0.00000    -0.08144     0.00000     0.00000     0.00000
           2     0.07270    -0.05194     0.07271    -0.00000    -0.00000    -0.00000
           3     0.03672     0.10282     0.03673     0.00000     0.00000    -0.00000
           4    -0.03986     0.09420     0.44508     0.36266     0.18398     0.28755
           5     0.00245     0.34500    -0.29922    -0.34066     0.22208     0.28755
           6     0.17614    -0.40222    -0.12551    -0.02200    -0.40606     0.28755
           7    -0.17587    -0.28657     0.30905    -0.36266    -0.18398    -0.28755
           8    -0.13355    -0.03577    -0.43525     0.34066    -0.22208    -0.28755
           9    -0.39476    -0.20987    -0.09316    -0.02200    -0.40606     0.28755
          10    -0.30909     0.28656     0.17581    -0.36266    -0.18398    -0.28755
          11    -0.43523    -0.03578    -0.13363    -0.34066     0.22208     0.28755
          12    -0.09308    -0.20986    -0.39478     0.02200     0.40606    -0.28755
          13    -0.44509    -0.09421     0.03978     0.36266     0.18398     0.28755
          14    -0.29923     0.34499     0.00240     0.34066    -0.22208    -0.28755
          15    -0.12554    -0.40223     0.17611     0.02200     0.40606    -0.28755

                   13          14          15
 
 Frequency       3068.17     3068.17     3068.17
 
           1     0.05708    -0.01947    -0.06364
           2     0.05088    -0.04127     0.05826
           3     0.04290     0.07486     0.01556
           4    -0.46965    -0.04941    -0.04654
           5    -0.47101    -0.05419    -0.01977
           6    -0.47276    -0.02869    -0.02914
           7    -0.19542     0.42917     0.05295
           8    -0.19678     0.42438     0.07973
           9     0.21738    -0.41700    -0.06351
          10    -0.14437    -0.31322     0.32592
          11     0.16808     0.29988    -0.32710
          12    -0.14749    -0.29251     0.34332
          13     0.12986     0.16535     0.42541
          14    -0.10615    -0.17869    -0.42659
          15    -0.10790    -0.15318    -0.43597



 ----------------------------------------------------------------------------
 Normal Eigenvalue ||         Derivative Dipole Moments (debye/angs)
  Mode   [cm**-1]  ||      [d/dqX]             [d/dqY]           [d/dqZ]
 ------ ---------- || ------------------ ------------------ -----------------
    1      -10.093 ||       0.000               0.000            -0.000
    2      -10.093 ||       0.000              -0.000             0.000
    3      -10.093 ||       0.000              -0.000             0.000
    4        5.059 ||       0.000              -0.000            -0.000
    5        5.075 ||       0.000              -0.000             0.000
    6        5.092 ||       0.000               0.000             0.000
    7     1274.584 ||       0.347               0.309             0.156
    8     1274.584 ||       0.000              -0.221             0.438
    9     1274.584 ||       0.347              -0.309            -0.156
   10     1493.856 ||      -0.000              -0.000             0.000
   11     1493.856 ||      -0.000              -0.000             0.000
   12     2954.440 ||       0.000              -0.000            -0.000
   13     3068.173 ||       0.483               0.431             0.363
   14     3068.173 ||      -0.165              -0.349             0.634
   15     3068.173 ||       0.539              -0.493            -0.132
 ----------------------------------------------------------------------------



  
  
 ----------------------------------------------------------------------------
 Normal Eigenvalue ||                 Infra Red Intensities
  Mode   [cm**-1]  || [atomic units] [(debye/angs)**2] [(KM/mol)] [arbitrary]
 ------ ---------- || -------------- ----------------- ---------- -----------
    1      -10.093 ||    0.000000           0.000         0.000       0.000
    2      -10.093 ||    0.000000           0.000         0.000       0.000
    3      -10.093 ||    0.000000           0.000         0.000       0.000
    4        5.059 ||    0.000000           0.000         0.000       0.000
    5        5.075 ||    0.000000           0.000         0.000       0.000
    6        5.092 ||    0.000000           0.000         0.000       0.000
    7     1274.584 ||    0.010419           0.240        10.157      15.181
    8     1274.584 ||    0.010419           0.240        10.157      15.181
    9     1274.584 ||    0.010419           0.240        10.157      15.181
   10     1493.856 ||    0.000000           0.000         0.000       0.000
   11     1493.856 ||    0.000000           0.000         0.000       0.000
   12     2954.440 ||    0.000000           0.000         0.000       0.000
   13     3068.173 ||    0.023896           0.551        23.295      34.819
   14     3068.173 ||    0.023896           0.551        23.295      34.819
   15     3068.173 ||    0.023896           0.551        23.295      34.819
 ----------------------------------------------------------------------------





        Vibrational analysis via the FX method 
  --- with translations and rotations projected out ---
  --- via the Eckart algorithm                      ---
 Projected Nuclear Hessian trans-rot subspace norm:5.0706D-33
                         (should be close to zero!) 

          --------------------------------------------------------
          MASS-WEIGHTED PROJECTED HESSIAN (Hartree/Bohr/Bohr/Kamu)
          --------------------------------------------------------


               1            2            3            4            5            6            7            8            9           10
   ----- ----- ----- ----- -----
    1    4.26507D+01
    2    2.69442D-07  4.26507D+01
    3    7.75728D-08  1.12352D-09  4.26507D+01
    4   -3.67930D+01 -2.51862D+01 -2.51862D+01  1.35372D+02
    5   -2.51862D+01 -3.67930D+01 -2.51862D+01  9.49586D+01  1.35372D+02
    6   -2.51862D+01 -2.51862D+01 -3.67930D+01  9.49586D+01  9.49586D+01  1.35372D+02
    7   -3.67930D+01 -2.51862D+01  2.51862D+01 -9.86272D+00 -8.05027D+00  1.05255D+01  1.35372D+02
    8   -2.51862D+01 -3.67930D+01  2.51862D+01 -8.05027D+00 -9.86272D+00  1.05255D+01  9.49586D+01  1.35372D+02
    9    2.51862D+01  2.51862D+01 -3.67930D+01 -1.05255D+01 -1.05255D+01  1.13122D+01 -9.49586D+01 -9.49586D+01  1.35372D+02
   10   -3.67930D+01  2.51862D+01 -2.51862D+01 -9.86271D+00  1.05255D+01 -8.05027D+00  1.13122D+01 -1.05255D+01  1.05255D+01  1.35372D+02
   11    2.51862D+01 -3.67930D+01  2.51862D+01 -1.05255D+01  1.13122D+01 -1.05255D+01  1.05255D+01 -9.86272D+00  8.05027D+00 -9.49586D+01
   12   -2.51862D+01  2.51862D+01 -3.67930D+01 -8.05027D+00  1.05255D+01 -9.86272D+00 -1.05255D+01  8.05027D+00 -9.86272D+00  9.49586D+01
   13   -3.67930D+01  2.51862D+01  2.51862D+01  1.13122D+01 -1.05255D+01 -1.05255D+01 -9.86272D+00  1.05255D+01  8.05027D+00 -9.86272D+00
   14    2.51862D+01 -3.67930D+01 -2.51862D+01  1.05255D+01 -9.86272D+00 -8.05027D+00 -1.05255D+01  1.13122D+01  1.05255D+01  8.05027D+00
   15    2.51862D+01 -2.51862D+01 -3.67930D+01  1.05255D+01 -8.05027D+00 -9.86272D+00  8.05027D+00 -1.05255D+01 -9.86272D+00 -1.05255D+01


              11           12           13           14           15
   ----- ----- ----- ----- -----
   11    1.35372D+02
   12   -9.49586D+01  1.35372D+02
   13    8.05027D+00  1.05255D+01  1.35372D+02
   14   -9.86272D+00 -1.05255D+01 -9.49586D+01  1.35372D+02
   15    1.05255D+01  1.13121D+01 -9.49586D+01  9.49586D+01  1.35372D+02

 center of mass
 --------------
 x =   0.00000000 y =   0.00000000 z =   0.00000000

 moments of inertia (a.u.)
 ------------------
          11.759335844427           0.000000000000           0.000000000000
           0.000000000000          11.759335844427           0.000000000000
           0.000000000000           0.000000000000          11.759335844427

 Rotational Constants
 --------------------
 A=   5.119352 cm-1  (  7.365441 K)
 B=   5.119352 cm-1  (  7.365441 K)
 C=   5.119352 cm-1  (  7.365441 K)


 Temperature                      =   298.15K
 frequency scaling parameter      =   1.0000

 Zero-Point correction to Energy  =   27.107 kcal/mol  (  0.043197 au)
 Thermal correction to Energy     =   28.913 kcal/mol  (  0.046076 au)
 Thermal correction to Enthalpy   =   29.505 kcal/mol  (  0.047020 au)

 Total Entropy                    =   44.568 cal/mol-K
   - Translational                =   34.246 cal/mol-K (mol. weight =  16.0313)
   - Rotational                   =   10.207 cal/mol-K (symmetry #  =       12)
   - Vibrational                  =    0.115 cal/mol-K

 Cv (constant volume heat capacity) =    6.595 cal/mol-K
   - Translational                  =    2.979 cal/mol-K
   - Rotational                     =    2.979 cal/mol-K
   - Vibrational                    =    0.636 cal/mol-K



          -------------------------------------------------
          NORMAL MODE EIGENVECTORS IN CARTESIAN COORDINATES
          -------------------------------------------------
             (Projected Frequencies expressed in cm-1)

                    1           2           3           4           5           6
 
 P.Frequency       -0.00       -0.00        0.00        0.00        0.00        0.00
 
           1     0.00012    -0.00050    -0.00667    -0.24961    -0.00026    -0.00534
           2    -0.24855    -0.00644     0.00516    -0.00003    -0.02132    -0.00889
           3    -0.00664     0.24837    -0.02317    -0.00004    -0.00663     0.00806
           4    -0.03667     0.02064     0.20983    -0.26111     0.37161     0.24158
           5    -0.22734    -0.04178    -0.18232     0.00012    -0.40727     0.24063
           6     0.00893     0.26257    -0.05219     0.01131     0.00744    -0.48837
           7     0.02587     0.01259     0.29678    -0.26218    -0.32412     0.21848
           8    -0.28987    -0.03372    -0.26927     0.00119     0.28847     0.26373
           9    -0.02221     0.23417     0.00584    -0.01140    -0.02071     0.50449
          10    -0.02563    -0.01358    -0.31012    -0.23704     0.32361    -0.22915
          11    -0.26976     0.02889     0.19265    -0.00018     0.36462    -0.25840
          12    -0.00210     0.29679     0.46776    -0.01277     0.05544    -0.01764
          13     0.03690    -0.02163    -0.22317    -0.23811    -0.37213    -0.25225
          14    -0.20723     0.02084     0.27960    -0.00125    -0.33112    -0.28150
          15    -0.01118     0.19995    -0.51411     0.01268    -0.06871     0.03376

                    7           8           9          10          11          12
 
 P.Frequency     1274.61     1274.61     1274.61     1493.86     1493.86     2954.44
 
           1     0.08133    -0.00081    -0.08156     0.00000     0.00000     0.00000
           2     0.07223    -0.05281     0.07254    -0.00000    -0.00000    -0.00000
           3     0.03790     0.10237     0.03678     0.00000     0.00000    -0.00000
           4    -0.03817     0.09416     0.44524     0.36266     0.18398     0.28755
           5     0.00579     0.34526    -0.29887    -0.34066     0.22208     0.28755
           6     0.17154    -0.40400    -0.12619    -0.02200    -0.40607     0.28755
           7    -0.17854    -0.28495     0.30901    -0.36266    -0.18398    -0.28755
           8    -0.13457    -0.03385    -0.43509     0.34066    -0.22208    -0.28755
           9    -0.39718    -0.20543    -0.09279    -0.02200    -0.40606     0.28755
          10    -0.30567     0.28975     0.17657    -0.36266    -0.18398    -0.28755
          11    -0.43579    -0.03087    -0.13302    -0.34066     0.22208     0.28755
          12    -0.09596    -0.20842    -0.39486     0.02200     0.40606    -0.28755
          13    -0.44604    -0.08937     0.04034     0.36266     0.18398     0.28755
          14    -0.29543     0.34825     0.00321     0.34066    -0.22208    -0.28755
          15    -0.12968    -0.40101     0.17588     0.02200     0.40606    -0.28755

                   13          14          15
 
 P.Frequency     3068.18     3068.18     3068.18
 
           1     0.06171    -0.00177    -0.06225
           2     0.05495    -0.03970     0.05561
           3     0.02931     0.07815     0.02683
           4    -0.45302    -0.11764    -0.07819
           5    -0.45450    -0.12597    -0.05231
           6    -0.46013    -0.10009    -0.05863
           7    -0.26565     0.38196     0.09333
           8    -0.26714     0.37363     0.11921
           9     0.28564    -0.36519    -0.10111
          10    -0.10176    -0.37141     0.27727
          11     0.12738     0.36230    -0.27873
          12    -0.10887    -0.35385     0.29683
          13     0.08560     0.12820     0.44879
          14    -0.05999    -0.13731    -0.45025
          15    -0.06562    -0.11143    -0.45657



 ----------------------------------------------------------------------------
 Normal Eigenvalue ||    Projected Derivative Dipole Moments (debye/angs)
  Mode   [cm**-1]  ||      [d/dqX]             [d/dqY]           [d/dqZ]
 ------ ---------- || ------------------ ------------------ -----------------
    1       -0.000 ||      -0.000               0.000             0.000
    2       -0.000 ||      -0.000              -0.000             0.000
    3        0.000 ||       0.000              -0.000             0.000
    4        0.000 ||      -0.000               0.000             0.000
    5        0.000 ||       0.000               0.000             0.000
    6        0.000 ||      -0.000              -0.000             0.000
    7     1274.605 ||       0.346               0.307             0.161
    8     1274.605 ||      -0.003              -0.225             0.436
    9     1274.605 ||       0.347              -0.309            -0.157
   10     1493.856 ||      -0.000               0.000            -0.000
   11     1493.856 ||      -0.000               0.000            -0.000
   12     2954.440 ||       0.000              -0.000            -0.000
   13     3068.177 ||       0.523               0.465             0.248
   14     3068.177 ||      -0.015              -0.336             0.662
   15     3068.177 ||       0.527              -0.471            -0.227
 ----------------------------------------------------------------------------



  
  
 ----------------------------------------------------------------------------
 Normal Eigenvalue ||           Projected Infra Red Intensities
  Mode   [cm**-1]  || [atomic units] [(debye/angs)**2] [(KM/mol)] [arbitrary]
 ------ ---------- || -------------- ----------------- ---------- -----------
    1       -0.000 ||    0.000000           0.000         0.000       0.000
    2       -0.000 ||    0.000000           0.000         0.000       0.000
    3        0.000 ||    0.000000           0.000         0.000       0.000
    4        0.000 ||    0.000000           0.000         0.000       0.000
    5        0.000 ||    0.000000           0.000         0.000       0.000
    6        0.000 ||    0.000000           0.000         0.000       0.000
    7     1274.605 ||    0.010419           0.240        10.157      15.181
    8     1274.605 ||    0.010419           0.240        10.157      15.181
    9     1274.605 ||    0.010419           0.240        10.157      15.181
   10     1493.856 ||    0.000000           0.000         0.000       0.000
   11     1493.856 ||    0.000000           0.000         0.000       0.000
   12     2954.440 ||    0.000000           0.000         0.000       0.000
   13     3068.177 ||    0.023896           0.551        23.295      34.819
   14     3068.177 ||    0.023896           0.551        23.295      34.819
   15     3068.177 ||    0.023896           0.551        23.295      34.819
 ----------------------------------------------------------------------------



 vib:animation  F

 Task  times  cpu:        4.2s     wall:        4.4s


                                NWChem Input Module
                                -------------------


 Summary of allocated global arrays
-----------------------------------
  No active global arrays



                         GA Statistics for process    0
                         ------------------------------

       create   destroy   get      put      acc     scatter   gather  read&inc
calls: 3143     3143     8.21e+04 1.88e+04 8.29e+04  603        0     1888     
number of processes/call 1.28e+00 1.55e+00 1.32e+00 0.00e+00 0.00e+00
bytes total:             6.01e+07 1.05e+07 6.06e+07 1.60e+02 0.00e+00 1.51e+04
bytes remote:            2.52e+07 3.02e+06 2.40e+07 -3.20e+02 0.00e+00 0.00e+00
Max memory consumed for GA by this process: 521712 bytes

MA_summarize_allocated_blocks: starting scan ...
MA_summarize_allocated_blocks: scan completed: 0 heap blocks, 0 stack blocks
MA usage statistics:

	allocation statistics:
					      heap	     stack
					      ----	     -----
	current number of blocks	         0	         0
	maximum number of blocks	        26	        57
	current total bytes		         0	         0
	maximum total bytes		   3359976	  75914648
	maximum total K-bytes		      3360	     75915
	maximum total M-bytes		         4	        76


                                     CITATION
                                     --------
                Please cite the following reference when publishing
                           results obtained with NWChem:

                 M. Valiev, E.J. Bylaska, N. Govind, K. Kowalski,
              T.P. Straatsma, H.J.J. van Dam, D. Wang, J. Nieplocha,
                        E. Apra, T.L. Windus, W.A. de Jong
                 "NWChem: a comprehensive and scalable open-source
                  solution for large scale molecular simulations"
                      Comput. Phys. Commun. 181, 1477 (2010)
                           doi:10.1016/j.cpc.2010.04.018

                                      AUTHORS
                                      -------
          E. Apra, E. J. Bylaska, W. A. de Jong, N. Govind, K. Kowalski,
       T. P. Straatsma, M. Valiev, H. J. J. van Dam, D. Wang, T. L. Windus,
        J. Hammond, J. Autschbach, K. Bhaskaran-Nair, J. Brabec, K. Lopata,
    S. A. Fischer, S. Krishnamoorthy, M. Jacquelin, W. Ma, M. Klemm, O. Villa,
      Y. Chen, V. Anisimov, F. Aquino, S. Hirata, M. T. Hackler, V. Konjkov,
            D. Mejia-Rodriguez, T. Risthaus, M. Malagoli, A. Marenich,
   A. Otero-de-la-Roza, J. Mullin, P. Nichols, R. Peverati, J. Pittner, Y. Zhao,
        P.-D. Fan, A. Fonari, M. J. Williamson, R. J. Harrison, J. R. Rehr,
      M. Dupuis, D. Silverstein, D. M. A. Smith, J. Nieplocha, V. Tipparaju,
    M. Krishnan, B. E. Van Kuiken, A. Vazquez-Mayagoitia, L. Jensen, M. Swart,
      Q. Wu, T. Van Voorhis, A. A. Auer, M. Nooijen, L. D. Crosby, E. Brown,
      G. Cisneros, G. I. Fann, H. Fruchtl, J. Garza, K. Hirao, R. A. Kendall,
      J. A. Nichols, K. Tsemekhman, K. Wolinski, J. Anchell, D. E. Bernholdt,
      P. Borowski, T. Clark, D. Clerc, H. Dachsel, M. J. O. Deegan, K. Dyall,
    D. Elwood, E. Glendening, M. Gutowski, A. C. Hess, J. Jaffe, B. G. Johnson,
     J. Ju, R. Kobayashi, R. Kutteh, Z. Lin, R. Littlefield, X. Long, B. Meng,
      T. Nakajima, S. Niu, L. Pollack, M. Rosing, K. Glaesemann, G. Sandrone,
      M. Stave, H. Taylor, G. Thomas, J. H. van Lenthe, A. T. Wong, Z. Zhang.

 Total times  cpu:        6.0s     wall:        6.5s
[0] ARMCI Warning: Freed 1 leaked allocations
