 argument  1 = /home/list1234/source/nwchem-6.8.1-release/QA/tests/qmmm_grad0/qmmm_grad0.nw



============================== echo of input deck ==============================
echo
Title "QM/MM Ala-Ser-Ala: Ser sidechain in QM"

start asa

#prepare
#  system asa_qmmm
#  source asa.pdb
#  new_top new_seq
#  new_rst
#  modify atom 2:_CB quantum
#  modify atom 2:2HB quantum
#  modify atom 2:3HB quantum
#  modify atom 2:_OG quantum
#  modify atom 2:_HG quantum
#  update lists
#  ignore
#  write asa_em.rst
#  write asa_em.pdb   # Write out PDB file to check structure
#end; task prepare


md
  system asa_em
  noshake solute
end

basis "ao basis"
  * library "6-31G*"
end

dft
 iterations 100
end

qmmm
 eatoms -114.77
 mm_charges exclude all
end

task qmmm dft gradient

qmmm
 eatoms -114.77
 mm_charges expand all
end

task qmmm dft gradient

================================================================================


                                         
                                         


              Northwest Computational Chemistry Package (NWChem) 6.8
              ------------------------------------------------------


                    Environmental Molecular Sciences Laboratory
                       Pacific Northwest National Laboratory
                                Richland, WA 99352

                              Copyright (c) 1994-2018
                       Pacific Northwest National Laboratory
                            Battelle Memorial Institute

             NWChem is an open-source computational chemistry package
                        distributed under the terms of the
                      Educational Community License (ECL) 2.0
             A copy of the license is included with this distribution
                              in the LICENSE.TXT file

                                  ACKNOWLEDGMENT
                                  --------------

            This software and its documentation were developed at the
            EMSL at Pacific Northwest National Laboratory, a multiprogram
            national laboratory, operated for the U.S. Department of Energy
            by Battelle under Contract Number DE-AC05-76RL01830. Support
            for this work was provided by the Department of Energy Office
            of Biological and Environmental Research, Office of Basic
            Energy Sciences, and the Office of Advanced Scientific Computing.


           Job information
           ---------------

    hostname        = list1234-B360M-H
    program         = /home/list1234/source/nwchem-6.8.1-release/bin/LINUX64/nwchem
    date            = Sun Jun 30 13:28:51 2019

    compiled        = Sun_Jun_30_11:55:59_2019
    source          = /home/list1234/source/nwchem-6.8.1-release
    nwchem branch   = Development
    nwchem revision = N/A
    ga revision     = 5.6.5
    use scalapack   = T
    input           = /home/list1234/source/nwchem-6.8.1-release/QA/tests/qmmm_grad0/qmmm_grad0.nw
    prefix          = asa.
    data base       = ./asa.db
    status          = startup
    nproc           =        4
    time left       =     -1s



           Memory information
           ------------------

    heap     =   86247162 doubles =    658.0 Mbytes
    stack    =   86247167 doubles =    658.0 Mbytes
    global   =  172494336 doubles =   1316.0 Mbytes (distinct from heap & stack)
    total    =  344988665 doubles =   2632.1 Mbytes
    verify   = yes
    hardfail = no 


           Directory information
           ---------------------

  0 permanent = .
  0 scratch   = .




                                NWChem Input Module
                                -------------------


                      QM/MM Ala-Ser-Ala: Ser sidechain in QM
                      --------------------------------------


 Summary of "ao basis" -> "" (cartesian)
 ------------------------------------------------------------------------------
       Tag                 Description            Shells   Functions and Types
 ---------------- ------------------------------  ------  ---------------------
 *                           6-31G*                   on all atoms 


 in qmmm_input:                     
 out of qmmm_input:                     
 ****************************************************
 *      NWChem QM/MM Interface Module               *
 *                                                  *
 *      Developed Marat Valiev 2004                 *
 ****************************************************
                    QM/MM Interface Parameters
                    --------------------------
 operation             task:operation        gradient                                                      
 reference energy      qmmm:uqmatm            -114.770000                                                  
 bqzone radius         qmmm:bqzone               9.000000                                                  
 excluded bq's         qmmm:bq_exclude       all                                                           
 link atom type        qmmm:linkatm          hydrogens                                                     
 optimization method   qmmm:optimization     bfgs                                                          
 ecp on link atoms     qmmm:link_ecp         auto                                                          
 interface api         qmmm:interface        qm                                                            
 ------------------------------------------------------


 number of quantum atoms                    5
         6
   
  C            -0.350223        1.818396        0.291873        17
  H            -0.480057        1.785213        1.389519        18
  H             0.639751        2.260878        0.037721        19
  O            -1.257887        2.815177       -0.166251        20
  H            -1.469173        2.573649       -1.106225        21
  H_L          -0.384097        0.758160       -0.095860        15
 Total number of active Bq charges                     0
 frozen_density,esp F F
         6
   
  C            -0.350223        1.818396        0.291873        17
  H            -0.480057        1.785213        1.389519        18
  H             0.639751        2.260878        0.037721        19
  O            -1.257887        2.815177       -0.166251        20
  H            -1.469173        2.573649       -1.106225        21
  H_L          -0.384097        0.758160       -0.095860        15

                                 NWChem DFT Module
                                 -----------------


                      QM/MM Ala-Ser-Ala: Ser sidechain in QM


                      Basis "ao basis" -> "ao basis" (cartesian)
                      -----
  C (Carbon)
  ----------
            Exponent  Coefficients 
       -------------- ---------------------------------------------------------
  1 S  3.04752490E+03  0.001835
  1 S  4.57369510E+02  0.014037
  1 S  1.03948690E+02  0.068843
  1 S  2.92101550E+01  0.232184
  1 S  9.28666300E+00  0.467941
  1 S  3.16392700E+00  0.362312

  2 S  7.86827240E+00 -0.119332
  2 S  1.88128850E+00 -0.160854
  2 S  5.44249300E-01  1.143456

  3 P  7.86827240E+00  0.068999
  3 P  1.88128850E+00  0.316424
  3 P  5.44249300E-01  0.744308

  4 S  1.68714400E-01  1.000000

  5 P  1.68714400E-01  1.000000

  6 D  8.00000000E-01  1.000000

  H (Hydrogen)
  ------------
            Exponent  Coefficients 
       -------------- ---------------------------------------------------------
  1 S  1.87311370E+01  0.033495
  1 S  2.82539370E+00  0.234727
  1 S  6.40121700E-01  0.813757

  2 S  1.61277800E-01  1.000000

  O (Oxygen)
  ----------
            Exponent  Coefficients 
       -------------- ---------------------------------------------------------
  1 S  5.48467170E+03  0.001831
  1 S  8.25234950E+02  0.013950
  1 S  1.88046960E+02  0.068445
  1 S  5.29645000E+01  0.232714
  1 S  1.68975700E+01  0.470193
  1 S  5.79963530E+00  0.358521

  2 S  1.55396160E+01 -0.110778
  2 S  3.59993360E+00 -0.148026
  2 S  1.01376180E+00  1.130767

  3 P  1.55396160E+01  0.070874
  3 P  3.59993360E+00  0.339753
  3 P  1.01376180E+00  0.727159

  4 S  2.70005800E-01  1.000000

  5 P  2.70005800E-01  1.000000

  6 D  8.00000000E-01  1.000000

  H_L (Hydrogen)
  --------------
            Exponent  Coefficients 
       -------------- ---------------------------------------------------------
  1 S  1.87311370E+01  0.033495
  1 S  2.82539370E+00  0.234727
  1 S  6.40121700E-01  0.813757

  2 S  1.61277800E-01  1.000000



 Summary of "ao basis" -> "ao basis" (cartesian)
 ------------------------------------------------------------------------------
       Tag                 Description            Shells   Functions and Types
 ---------------- ------------------------------  ------  ---------------------
 C                           6-31G*                  6       15   3s2p1d
 H                           6-31G*                  2        2   2s
 O                           6-31G*                  6       15   3s2p1d
 H_L                         6-31G*                  2        2   2s




 Summary of "ao basis" -> "ao basis" (cartesian)
 ------------------------------------------------------------------------------
       Tag                 Description            Shells   Functions and Types
 ---------------- ------------------------------  ------  ---------------------
 C                           6-31G*                  6       15   3s2p1d
 H                           6-31G*                  2        2   2s
 O                           6-31G*                  6       15   3s2p1d
 H_L                         6-31G*                  2        2   2s


  Caching 1-el integrals 

            General Information
            -------------------
          SCF calculation type: DFT
          Wavefunction type:  closed shell.
          No. of atoms     :     6
          No. of electrons :    18
           Alpha electrons :     9
            Beta electrons :     9
          Charge           :     0
          Spin multiplicity:     1
          Use of symmetry is: off; symmetry adaption is: off
          Maximum number of iterations: 100
          AO basis - number of functions:    38
                     number of shells:    20
          Convergence on energy requested:  1.00D-06
          Convergence on density requested:  1.00D-05
          Convergence on gradient requested:  5.00D-04

              XC Information
              --------------
                        Slater Exchange Functional  1.000 local    
                      VWN V Correlation Functional  1.000 local    

             Grid Information
             ----------------
          Grid used for XC integration:  medium    
          Radial quadrature: Mura-Knowles        
          Angular quadrature: Lebedev. 
          Tag              B.-S. Rad. Rad. Pts. Rad. Cut. Ang. Pts.
          ---              ---------- --------- --------- ---------
          C                   0.70       49           7.0       434
          H                   0.35       45           8.0       434
          O                   0.60       49           7.0       434
          H_L                 0.35       45           7.0       434
          Grid pruning is: on 
          Number of quadrature shells:   278
          Spatial weights used:  Erf1

          Convergence Information
          -----------------------
          Convergence aids based upon iterative change in 
          total energy or number of iterations. 
          Levelshifting, if invoked, occurs when the 
          HOMO/LUMO gap drops below (HL_TOL):  1.00D-02
          DIIS, if invoked, will attempt to extrapolate 
          using up to (NFOCK): 10 stored Fock matrices.

                    Damping( 0%)  Levelshifting(0.5)       DIIS
                  --------------- ------------------- ---------------
          dE  on:    start            ASAP                start   
          dE off:    2 iters        100 iters           100 iters 


      Screening Tolerance Information
      -------------------------------
          Density screening/tol_rho:  1.00D-10
          AO Gaussian exp screening on grid/accAOfunc:  14
          CD Gaussian exp screening on grid/accCDfunc:  20
          XC Gaussian exp screening on grid/accXCfunc:  20
          Schwarz screening/accCoul:  1.00D-08


      Superposition of Atomic Density Guess
      -------------------------------------

 Sum of atomic energies:        -114.40753654

      Non-variational initial energy
      ------------------------------

 Total energy =    -115.201241
 1-e energy   =    -234.202549
 2-e energy   =      79.107497
 HOMO         =      -0.353773
 LUMO         =       0.118040

   Time after variat. SCF:      0.1
   Time prior to 1st pass:      0.1

 Integral file          = ./asa.aoints.0
 Record size in doubles =  65536        No. of integs per rec  =  43688
 Max. records in memory =      4        Max. records in file   = 161659
 No. of bits per label  =      8        No. of bits per value  =     64


 #quartets = 2.212D+04 #integrals = 2.919D+05 #direct =  0.0% #cached =100.0%


File balance: exchanges=     0  moved=     0  time=   0.0


 Grid_pts file          = ./asa.gridpts.0
 Record size in doubles =  12289        No. of grid_pts per rec  =   3070
 Max. records in memory =     12        Max. recs in file   =    862114


           Memory utilization after 1st SCF pass: 
           Heap Space remaining (MW):        0.00                  10
          Stack Space remaining (MW):       86.24            86237148

   convergence    iter        energy       DeltaE   RMS-Dens  Diis-err    time
 ---------------- ----- ----------------- --------- --------- ---------  ------
 d= 0,ls=0.0,diis     1   -114.7178796667 -1.55D+02  3.00D-02  7.72D-01     0.2
 d= 0,ls=0.0,diis     2   -114.6620230536  5.59D-02  2.08D-02  1.09D+00     0.2
 d= 0,ls=0.0,diis     3   -114.7537613312 -9.17D-02  4.93D-03  1.52D-01     0.2
 d= 0,ls=0.0,diis     4   -114.7671346655 -1.34D-02  1.01D-03  2.40D-03     0.3
 d= 0,ls=0.0,diis     5   -114.7673634484 -2.29D-04  3.82D-04  3.69D-04     0.3
  Resetting Diis
 d= 0,ls=0.0,diis     6   -114.7674079291 -4.45D-05  5.70D-05  7.09D-06     0.3
 d= 0,ls=0.0,diis     7   -114.7674087854 -8.56D-07  2.00D-05  1.89D-07     0.3
 d= 0,ls=0.0,diis     8   -114.7674087789  6.48D-09  1.04D-05  3.18D-07     0.4
 d= 0,ls=0.0,diis     9   -114.7674088077 -2.89D-08  2.51D-06  2.86D-08     0.4


         Total DFT energy =     -114.767408807747
      One electron energy =     -236.167881252151
           Coulomb energy =       95.996919060422
    Exchange-Corr. energy =      -14.490257635586
 Nuclear repulsion energy =       39.893811019568

 Numeric. integr. density =       18.000000563628

     Total iterative time =      0.3s



                       DFT Final Molecular Orbital Analysis
                       ------------------------------------

 Vector    1  Occ=2.000000D+00  E=-1.861172D+01
              MO Center= -1.3D+00,  2.8D+00, -1.7D-01, r^2= 1.5D-02
   Bfn.  Coefficient  Atom+Function         Bfn.  Coefficient  Atom+Function  
  ----- ------------  ---------------      ----- ------------  ---------------
    20      0.990473  4 O  s                 21      0.029731  4 O  s          

 Vector    2  Occ=2.000000D+00  E=-9.826282D+00
              MO Center= -3.5D-01,  1.8D+00,  2.9D-01, r^2= 2.8D-02
   Bfn.  Coefficient  Atom+Function         Bfn.  Coefficient  Atom+Function  
  ----- ------------  ---------------      ----- ------------  ---------------
     1      0.989424  1 C  s                  2      0.070068  1 C  s          

 Vector    3  Occ=2.000000D+00  E=-9.110911D-01
              MO Center= -1.1D+00,  2.6D+00, -2.3D-01, r^2= 6.1D-01
   Bfn.  Coefficient  Atom+Function         Bfn.  Coefficient  Atom+Function  
  ----- ------------  ---------------      ----- ------------  ---------------
    21      0.438907  4 O  s                 25      0.424044  4 O  s          
    20     -0.201539  4 O  s                  2      0.139135  1 C  s          
    35      0.123226  5 H  s                 23     -0.102356  4 O  py         
     1     -0.078237  1 C  s                  6      0.076910  1 C  s          
     4      0.075314  1 C  py                 3     -0.068350  1 C  px         

 Vector    4  Occ=2.000000D+00  E=-5.997476D-01
              MO Center= -4.9D-01,  2.0D+00,  1.9D-01, r^2= 1.5D+00
   Bfn.  Coefficient  Atom+Function         Bfn.  Coefficient  Atom+Function  
  ----- ------------  ---------------      ----- ------------  ---------------
     2      0.347802  1 C  s                  6      0.348539  1 C  s          
    25     -0.182948  4 O  s                  1     -0.180544  1 C  s          
    24      0.173935  4 O  pz                21     -0.141614  4 O  s          
    16      0.132915  2 H  s                 18      0.121606  3 H  s          
    37      0.122021  6 H  s                 22      0.120092  4 O  px         

 Vector    5  Occ=2.000000D+00  E=-4.472347D-01
              MO Center= -8.2D-01,  2.1D+00, -1.3D-01, r^2= 1.5D+00
   Bfn.  Coefficient  Atom+Function         Bfn.  Coefficient  Atom+Function  
  ----- ------------  ---------------      ----- ------------  ---------------
    24      0.373952  4 O  pz                 4      0.281916  1 C  py         
    28      0.189782  4 O  pz                35     -0.190586  5 H  s          
    22      0.173822  4 O  px                37     -0.164483  6 H  s          
     3     -0.148790  1 C  px                36     -0.134531  5 H  s          
    25      0.123201  4 O  s                  8      0.119954  1 C  py         

 Vector    6  Occ=2.000000D+00  E=-3.820931D-01
              MO Center= -3.7D-01,  2.1D+00,  2.7D-01, r^2= 1.4D+00
   Bfn.  Coefficient  Atom+Function         Bfn.  Coefficient  Atom+Function  
  ----- ------------  ---------------      ----- ------------  ---------------
     3      0.257276  1 C  px                 5     -0.250327  1 C  pz         
    22      0.233794  4 O  px                 4      0.229977  1 C  py         
    18      0.204878  3 H  s                 19      0.159716  3 H  s          
    16     -0.156347  2 H  s                 26      0.144118  4 O  px         
     9     -0.130483  1 C  pz                 7      0.129211  1 C  px         

 Vector    7  Occ=2.000000D+00  E=-3.590504D-01
              MO Center= -6.5D-01,  2.2D+00,  2.2D-01, r^2= 1.6D+00
   Bfn.  Coefficient  Atom+Function         Bfn.  Coefficient  Atom+Function  
  ----- ------------  ---------------      ----- ------------  ---------------
    23      0.337186  4 O  py                 5      0.310460  1 C  pz         
     3      0.262327  1 C  px                27      0.201390  4 O  py         
     9      0.171482  1 C  pz                16      0.159612  2 H  s          
    25      0.152059  4 O  s                 22     -0.150053  4 O  px         
    17      0.129386  2 H  s                  7      0.122220  1 C  px         

 Vector    8  Occ=2.000000D+00  E=-2.837342D-01
              MO Center= -9.5D-01,  2.3D+00,  7.1D-02, r^2= 1.8D+00
   Bfn.  Coefficient  Atom+Function         Bfn.  Coefficient  Atom+Function  
  ----- ------------  ---------------      ----- ------------  ---------------
    23      0.343759  4 O  py                25      0.343274  4 O  s          
    24      0.278361  4 O  pz                27      0.236304  4 O  py         
    38      0.227982  6 H  s                  4     -0.205741  1 C  py         
     5     -0.188142  1 C  pz                28      0.179725  4 O  pz         
    37      0.179804  6 H  s                 17     -0.160417  2 H  s          

 Vector    9  Occ=2.000000D+00  E=-2.035860D-01
              MO Center= -9.6D-01,  2.6D+00, -8.8D-02, r^2= 1.3D+00
   Bfn.  Coefficient  Atom+Function         Bfn.  Coefficient  Atom+Function  
  ----- ------------  ---------------      ----- ------------  ---------------
    22      0.482691  4 O  px                26      0.380319  4 O  px         
    23      0.295936  4 O  py                27      0.235988  4 O  py         
    19     -0.221343  3 H  s                 24     -0.191479  4 O  pz         
    18     -0.165377  3 H  s                 28     -0.154059  4 O  pz         
     3     -0.146501  1 C  px                38      0.123280  6 H  s          

 Vector   10  Occ=0.000000D+00  E= 3.893657D-02
              MO Center= -1.2D+00,  2.3D+00, -8.4D-01, r^2= 2.6D+00
   Bfn.  Coefficient  Atom+Function         Bfn.  Coefficient  Atom+Function  
  ----- ------------  ---------------      ----- ------------  ---------------
    36     -1.144808  5 H  s                 25      1.093211  4 O  s          
     6      0.469958  1 C  s                 38     -0.466753  6 H  s          
     8     -0.408541  1 C  py                 7      0.386524  1 C  px         
    28     -0.360171  4 O  pz                19     -0.334799  3 H  s          
    17     -0.273829  2 H  s                 27     -0.254135  4 O  py         

 Vector   11  Occ=0.000000D+00  E= 9.822822D-02
              MO Center= -3.1D-01,  1.2D+00,  9.6D-02, r^2= 2.9D+00
   Bfn.  Coefficient  Atom+Function         Bfn.  Coefficient  Atom+Function  
  ----- ------------  ---------------      ----- ------------  ---------------
     6      2.142398  1 C  s                 38     -1.435895  6 H  s          
    19     -0.631648  3 H  s                 25     -0.627968  4 O  s          
    17     -0.624577  2 H  s                 27      0.350433  4 O  py         
     2      0.235834  1 C  s                  9     -0.231239  1 C  pz         
    36      0.223391  5 H  s                  8     -0.214892  1 C  py         

 Vector   12  Occ=0.000000D+00  E= 1.104041D-01
              MO Center= -3.1D-01,  2.0D+00,  2.6D-01, r^2= 3.3D+00
   Bfn.  Coefficient  Atom+Function         Bfn.  Coefficient  Atom+Function  
  ----- ------------  ---------------      ----- ------------  ---------------
    19      1.139711  3 H  s                 17      1.058277  2 H  s          
     7     -0.777431  1 C  px                 6     -0.718846  1 C  s          
     9     -0.671844  1 C  pz                36     -0.626927  5 H  s          
    38     -0.546127  6 H  s                  3     -0.286943  1 C  px         
     5     -0.258678  1 C  pz                 8     -0.250643  1 C  py         

 Vector   13  Occ=0.000000D+00  E= 1.378577D-01
              MO Center= -4.3D-02,  2.0D+00,  7.6D-01, r^2= 2.7D+00
   Bfn.  Coefficient  Atom+Function         Bfn.  Coefficient  Atom+Function  
  ----- ------------  ---------------      ----- ------------  ---------------
    17      1.558425  2 H  s                 19     -1.356477  3 H  s          
     9     -1.015589  1 C  pz                 7      0.764917  1 C  px         
     5     -0.343857  1 C  pz                 3      0.277796  1 C  px         
     8      0.251028  1 C  py                28      0.157360  4 O  pz         
    16      0.108604  2 H  s                 26     -0.105480  4 O  px         

 Vector   14  Occ=0.000000D+00  E= 1.769494D-01
              MO Center= -4.4D-01,  1.9D+00,  2.6D-02, r^2= 2.9D+00
   Bfn.  Coefficient  Atom+Function         Bfn.  Coefficient  Atom+Function  
  ----- ------------  ---------------      ----- ------------  ---------------
     8      1.355790  1 C  py                38      1.163397  6 H  s          
     6      0.771222  1 C  s                 36     -0.731814  5 H  s          
    19     -0.646797  3 H  s                 25     -0.645857  4 O  s          
    26     -0.508517  4 O  px                28     -0.501633  4 O  pz         
    17     -0.420483  2 H  s                  4      0.406529  1 C  py         

 Vector   15  Occ=0.000000D+00  E= 4.762926D-01
              MO Center= -3.4D-01,  1.9D+00,  3.5D-01, r^2= 1.9D+00
   Bfn.  Coefficient  Atom+Function         Bfn.  Coefficient  Atom+Function  
  ----- ------------  ---------------      ----- ------------  ---------------
     8     -1.108256  1 C  py                 7      1.059686  1 C  px         
    25      0.873026  4 O  s                  3     -0.674588  1 C  px         
     4      0.607794  1 C  py                 6     -0.508907  1 C  s          
     9      0.378105  1 C  pz                 2      0.342215  1 C  s          
    36      0.321382  5 H  s                  5     -0.270494  1 C  pz         

 Vector   16  Occ=0.000000D+00  E= 5.205026D-01
              MO Center= -4.8D-01,  1.6D+00,  1.0D-01, r^2= 2.0D+00
   Bfn.  Coefficient  Atom+Function         Bfn.  Coefficient  Atom+Function  
  ----- ------------  ---------------      ----- ------------  ---------------
     9      1.461293  1 C  pz                 7     -0.923843  1 C  px         
     5     -0.661048  1 C  pz                 8     -0.555600  1 C  py         
    17     -0.487502  2 H  s                 19      0.439094  3 H  s          
     3      0.425203  1 C  px                16     -0.383546  2 H  s          
    18      0.310282  3 H  s                  4      0.233370  1 C  py         

 Vector   17  Occ=0.000000D+00  E= 5.346517D-01
              MO Center= -4.2D-01,  2.0D+00,  3.4D-01, r^2= 2.1D+00
   Bfn.  Coefficient  Atom+Function         Bfn.  Coefficient  Atom+Function  
  ----- ------------  ---------------      ----- ------------  ---------------
     8      1.330780  1 C  py                 9      0.859989  1 C  pz         
     7      0.675381  1 C  px                 4     -0.485968  1 C  py         
     5     -0.465557  1 C  pz                38      0.463820  6 H  s          
     3     -0.440734  1 C  px                37      0.430097  6 H  s          
    19     -0.312435  3 H  s                 17     -0.218562  2 H  s          

 Vector   18  Occ=0.000000D+00  E= 7.376841D-01
              MO Center= -1.2D+00,  2.5D+00, -4.9D-01, r^2= 2.3D+00
   Bfn.  Coefficient  Atom+Function         Bfn.  Coefficient  Atom+Function  
  ----- ------------  ---------------      ----- ------------  ---------------
    35      0.899149  5 H  s                 36     -0.740252  5 H  s          
    17      0.703710  2 H  s                 38     -0.631407  6 H  s          
     9     -0.613351  1 C  pz                 8     -0.416211  1 C  py         
    23      0.360359  4 O  py                37      0.348049  6 H  s          
    27     -0.320199  4 O  py                18      0.308234  3 H  s          

 Vector   19  Occ=0.000000D+00  E= 7.878905D-01
              MO Center= -3.6D-01,  1.4D+00, -2.6D-02, r^2= 2.4D+00
   Bfn.  Coefficient  Atom+Function         Bfn.  Coefficient  Atom+Function  
  ----- ------------  ---------------      ----- ------------  ---------------
    38      1.640208  6 H  s                  8      1.108419  1 C  py         
    19     -0.944928  3 H  s                 37     -0.845382  6 H  s          
     4     -0.655422  1 C  py                 7      0.523079  1 C  px         
     9      0.499840  1 C  pz                17     -0.453134  2 H  s          
    27     -0.438218  4 O  py                18      0.371271  3 H  s          

 Vector   20  Occ=0.000000D+00  E= 8.111626D-01
              MO Center= -5.6D-01,  2.2D+00,  6.6D-01, r^2= 2.4D+00
   Bfn.  Coefficient  Atom+Function         Bfn.  Coefficient  Atom+Function  
  ----- ------------  ---------------      ----- ------------  ---------------
    17      1.341119  2 H  s                 19     -1.045473  3 H  s          
     9     -0.988217  1 C  pz                16     -0.806266  2 H  s          
     7      0.681681  1 C  px                 5      0.551479  1 C  pz         
    28      0.403538  4 O  pz                24     -0.396014  4 O  pz         
    26     -0.389232  4 O  px                 3     -0.334091  1 C  px         

 Vector   21  Occ=0.000000D+00  E= 8.452216D-01
              MO Center= -3.1D-02,  2.0D+00,  1.7D-01, r^2= 2.2D+00
   Bfn.  Coefficient  Atom+Function         Bfn.  Coefficient  Atom+Function  
  ----- ------------  ---------------      ----- ------------  ---------------
    19      1.013019  3 H  s                 18     -0.899773  3 H  s          
     6     -0.842176  1 C  s                 25      0.756264  4 O  s          
    16     -0.527130  2 H  s                 37     -0.488958  6 H  s          
     2      0.428413  1 C  s                 36     -0.421202  5 H  s          
    17      0.388945  2 H  s                 21     -0.387380  4 O  s          

 Vector   22  Occ=0.000000D+00  E= 8.925129D-01
              MO Center= -1.2D+00,  2.5D+00,  8.4D-02, r^2= 2.3D+00
   Bfn.  Coefficient  Atom+Function         Bfn.  Coefficient  Atom+Function  
  ----- ------------  ---------------      ----- ------------  ---------------
     6      1.621767  1 C  s                 26     -0.901182  4 O  px         
    17     -0.806752  2 H  s                 25      0.679726  4 O  s          
    22      0.663447  4 O  px                 2     -0.646799  1 C  s          
    36     -0.530626  5 H  s                 21     -0.449623  4 O  s          
    16      0.377572  2 H  s                 38     -0.350855  6 H  s          

 Vector   23  Occ=0.000000D+00  E= 9.116816D-01
              MO Center= -1.1D+00,  2.9D+00, -3.5D-01, r^2= 2.0D+00
   Bfn.  Coefficient  Atom+Function         Bfn.  Coefficient  Atom+Function  
  ----- ------------  ---------------      ----- ------------  ---------------
    25      1.350087  4 O  s                  6      1.179094  1 C  s          
    27      0.893194  4 O  py                36     -0.845960  5 H  s          
    21     -0.727658  4 O  s                 23     -0.617715  4 O  py         
     2     -0.406791  1 C  s                 35      0.403377  5 H  s          
     8     -0.398872  1 C  py                19     -0.382120  3 H  s          

 Vector   24  Occ=0.000000D+00  E= 9.603482D-01
              MO Center= -5.2D-01,  2.1D+00,  1.8D-01, r^2= 2.7D+00
   Bfn.  Coefficient  Atom+Function         Bfn.  Coefficient  Atom+Function  
  ----- ------------  ---------------      ----- ------------  ---------------
     6      3.696543  1 C  s                  2     -1.674570  1 C  s          
    38     -1.028031  6 H  s                 17     -1.007952  2 H  s          
    19     -0.992086  3 H  s                 26      0.544062  4 O  px         
     7      0.456204  1 C  px                22     -0.424873  4 O  px         
     8     -0.400230  1 C  py                 9      0.396378  1 C  pz         

 Vector   25  Occ=0.000000D+00  E= 1.072531D+00
              MO Center= -1.1D+00,  2.7D+00, -7.5D-02, r^2= 1.9D+00
   Bfn.  Coefficient  Atom+Function         Bfn.  Coefficient  Atom+Function  
  ----- ------------  ---------------      ----- ------------  ---------------
    28     -1.572510  4 O  pz                 6      1.550738  1 C  s          
    36     -0.839159  5 H  s                  8      0.750329  1 C  py         
    24      0.714582  4 O  pz                26     -0.700860  4 O  px         
     2     -0.524756  1 C  s                 19     -0.442317  3 H  s          
    35     -0.388122  5 H  s                 25      0.360600  4 O  s          

 Vector   26  Occ=0.000000D+00  E= 1.371940D+00
              MO Center= -8.1D-01,  2.3D+00,  3.1D-02, r^2= 1.7D+00
   Bfn.  Coefficient  Atom+Function         Bfn.  Coefficient  Atom+Function  
  ----- ------------  ---------------      ----- ------------  ---------------
    25     -3.185597  4 O  s                  6      3.047226  1 C  s          
    21      1.092935  4 O  s                 27      0.962078  4 O  py         
     2     -0.736331  1 C  s                 26     -0.676972  4 O  px         
     8      0.610099  1 C  py                 7     -0.572311  1 C  px         
    14      0.536293  1 C  dyz               34      0.493939  4 O  dzz        

 Vector   27  Occ=0.000000D+00  E= 1.452359D+00
              MO Center= -8.2D-01,  2.2D+00,  5.2D-02, r^2= 1.5D+00
   Bfn.  Coefficient  Atom+Function         Bfn.  Coefficient  Atom+Function  
  ----- ------------  ---------------      ----- ------------  ---------------
     6      2.395759  1 C  s                 25     -2.289181  4 O  s          
    21      0.775983  4 O  s                 14     -0.626059  1 C  dyz        
    27      0.621338  4 O  py                 2     -0.598355  1 C  s          
    29      0.586451  4 O  dxx               26     -0.578269  4 O  px         
     8      0.406175  1 C  py                13      0.373017  1 C  dyy        

 Vector   28  Occ=0.000000D+00  E= 1.470099D+00
              MO Center= -8.3D-01,  2.4D+00,  5.5D-02, r^2= 1.3D+00
   Bfn.  Coefficient  Atom+Function         Bfn.  Coefficient  Atom+Function  
  ----- ------------  ---------------      ----- ------------  ---------------
    25     -1.056459  4 O  s                 12      1.028360  1 C  dxz        
    33      0.837697  4 O  dyz               11      0.417447  1 C  dxy        
    32      0.406154  4 O  dyy               21      0.398624  4 O  s          
    27      0.397191  4 O  py                30     -0.379889  4 O  dxy        
    28      0.304246  4 O  pz                 6      0.273016  1 C  s          

 Vector   29  Occ=0.000000D+00  E= 1.678212D+00
              MO Center= -1.2D+00,  2.7D+00, -9.4D-02, r^2= 8.4D-01
   Bfn.  Coefficient  Atom+Function         Bfn.  Coefficient  Atom+Function  
  ----- ------------  ---------------      ----- ------------  ---------------
    31      1.200123  4 O  dxz               30      0.800138  4 O  dxy        
    25      0.506155  4 O  s                  6     -0.475570  1 C  s          
    34     -0.446576  4 O  dzz               33      0.331916  4 O  dyz        
     8     -0.328493  1 C  py                14      0.301147  1 C  dyz        
     9     -0.241035  1 C  pz                32      0.240706  4 O  dyy        

 Vector   30  Occ=0.000000D+00  E= 1.925190D+00
              MO Center= -6.4D-01,  2.1D+00,  1.3D-01, r^2= 1.2D+00
   Bfn.  Coefficient  Atom+Function         Bfn.  Coefficient  Atom+Function  
  ----- ------------  ---------------      ----- ------------  ---------------
    11      1.064537  1 C  dxy               14      0.938243  1 C  dyz        
     8     -0.597371  1 C  py                30      0.468549  4 O  dxy        
    37     -0.396434  6 H  s                 32     -0.386035  4 O  dyy        
     6     -0.367060  1 C  s                  2      0.293640  1 C  s          
    31     -0.287526  4 O  dxz               23     -0.255766  4 O  py         

 Vector   31  Occ=0.000000D+00  E= 2.035448D+00
              MO Center= -5.4D-01,  2.1D+00,  2.0D-01, r^2= 1.2D+00
   Bfn.  Coefficient  Atom+Function         Bfn.  Coefficient  Atom+Function  
  ----- ------------  ---------------      ----- ------------  ---------------
    12      1.150609  1 C  dxz               25      1.039708  4 O  s          
     6     -0.754064  1 C  s                 11     -0.540989  1 C  dxy        
    18      0.541294  3 H  s                 21     -0.526293  4 O  s          
     8     -0.483422  1 C  py                32     -0.430987  4 O  dyy        
    26      0.401329  4 O  px                33     -0.401177  4 O  dyz        

 Vector   32  Occ=0.000000D+00  E= 2.094972D+00
              MO Center= -5.0D-01,  2.0D+00,  2.0D-01, r^2= 1.3D+00
   Bfn.  Coefficient  Atom+Function         Bfn.  Coefficient  Atom+Function  
  ----- ------------  ---------------      ----- ------------  ---------------
    25      0.952460  4 O  s                 14      0.756416  1 C  dyz        
    33      0.721445  4 O  dyz               15      0.717214  1 C  dzz        
     9      0.648244  1 C  pz                11     -0.650606  1 C  dxy        
    16     -0.590144  2 H  s                 18      0.581115  3 H  s          
    10     -0.566546  1 C  dxx               28     -0.527481  4 O  pz         

 Vector   33  Occ=0.000000D+00  E= 2.247859D+00
              MO Center= -7.7D-01,  2.3D+00,  8.3D-02, r^2= 1.3D+00
   Bfn.  Coefficient  Atom+Function         Bfn.  Coefficient  Atom+Function  
  ----- ------------  ---------------      ----- ------------  ---------------
    33      0.875802  4 O  dyz               14      0.846255  1 C  dyz        
    10      0.628456  1 C  dxx               15     -0.588071  1 C  dzz        
    30     -0.551780  4 O  dxy               29      0.508842  4 O  dxx        
    31     -0.409310  4 O  dxz               12     -0.348213  1 C  dxz        
    34     -0.283745  4 O  dzz               16      0.267747  2 H  s          

 Vector   34  Occ=0.000000D+00  E= 2.295546D+00
              MO Center= -7.5D-01,  2.2D+00,  4.5D-02, r^2= 1.4D+00
   Bfn.  Coefficient  Atom+Function         Bfn.  Coefficient  Atom+Function  
  ----- ------------  ---------------      ----- ------------  ---------------
    25      1.081349  4 O  s                 13      0.778903  1 C  dyy        
    29     -0.767490  4 O  dxx               35     -0.565334  5 H  s          
    12     -0.562078  1 C  dxz               27     -0.507559  4 O  py         
    15     -0.496313  1 C  dzz               11      0.440642  1 C  dxy        
    30     -0.428846  4 O  dxy                6     -0.420363  1 C  s          

 Vector   35  Occ=0.000000D+00  E= 2.375999D+00
              MO Center= -9.9D-01,  2.5D+00, -1.1D-01, r^2= 1.4D+00
   Bfn.  Coefficient  Atom+Function         Bfn.  Coefficient  Atom+Function  
  ----- ------------  ---------------      ----- ------------  ---------------
    25      1.477398  4 O  s                  6     -1.004080  1 C  s          
    31      1.004524  4 O  dxz               35     -0.928125  5 H  s          
    34      0.633723  4 O  dzz               11      0.589549  1 C  dxy        
    32     -0.585554  4 O  dyy               13     -0.474891  1 C  dyy        
    21     -0.475668  4 O  s                 10      0.462920  1 C  dxx        

 Vector   36  Occ=0.000000D+00  E= 2.706213D+00
              MO Center= -9.5D-01,  2.5D+00, -1.1D-02, r^2= 1.4D+00
   Bfn.  Coefficient  Atom+Function         Bfn.  Coefficient  Atom+Function  
  ----- ------------  ---------------      ----- ------------  ---------------
    25      2.136257  4 O  s                  6     -1.668969  1 C  s          
    30     -1.510497  4 O  dxy               11      1.235953  1 C  dxy        
    26      0.977986  4 O  px                33     -0.951433  4 O  dyz        
    27     -0.892424  4 O  py                28      0.761214  4 O  pz         
     8     -0.729044  1 C  py                34     -0.666356  4 O  dzz        

 Vector   37  Occ=0.000000D+00  E= 3.594862D+00
              MO Center= -1.2D+00,  2.8D+00, -1.7D-01, r^2= 1.1D+00
   Bfn.  Coefficient  Atom+Function         Bfn.  Coefficient  Atom+Function  
  ----- ------------  ---------------      ----- ------------  ---------------
    25      4.631449  4 O  s                 29     -1.647314  4 O  dxx        
    32     -1.642783  4 O  dyy               34     -1.645309  4 O  dzz        
     6     -1.083644  1 C  s                 27     -0.561265  4 O  py         
    36     -0.526916  5 H  s                  2      0.505825  1 C  s          
    20     -0.503425  4 O  s                  8     -0.495418  1 C  py         

 Vector   38  Occ=0.000000D+00  E= 4.118044D+00
              MO Center= -3.6D-01,  1.8D+00,  2.9D-01, r^2= 9.1D-01
   Bfn.  Coefficient  Atom+Function         Bfn.  Coefficient  Atom+Function  
  ----- ------------  ---------------      ----- ------------  ---------------
     2      2.888497  1 C  s                  6      2.241087  1 C  s          
    13     -1.944065  1 C  dyy               10     -1.909091  1 C  dxx        
    15     -1.837205  1 C  dzz               25     -0.735607  4 O  s          
    17     -0.521146  2 H  s                 19     -0.505483  3 H  s          
     1     -0.482399  1 C  s                 38     -0.476793  6 H  s          


 center of mass
 --------------
 x =  -1.32889212 y =   3.62930284 z =   0.00072487

 moments of inertia (a.u.)
 ------------------
         123.062389671732          46.048989691992         -12.719208592347
          46.048989691992          53.039858571503           8.229002679120
         -12.719208592347           8.229002679120         142.139660851294

     Multipole analysis of the density
     ---------------------------------

     L   x y z        total         alpha         beta         nuclear
     -   - - -        -----         -----         ----         -------
     0   0 0 0     -0.000000     -9.000000     -9.000000     18.000000

     1   1 0 0      0.181690     13.184771     13.184771    -26.187852
     1   0 1 0     -0.513992    -38.816566    -38.816566     77.119141
     1   0 0 1     -0.419543     -0.820512     -0.820512      1.221480

     2   2 0 0    -10.669745    -34.510320    -34.510320     58.350895
     2   1 1 0      1.797731     64.523488     64.523488   -127.249245
     2   1 0 1      1.536867     -2.943366     -2.943366      7.423599
     2   0 2 0    -14.863325   -183.731892   -183.731892    352.600459
     2   0 1 1     -2.074789      0.593902      0.593902     -3.262593
     2   0 0 2     -8.041386    -10.979563    -10.979563     13.917740


 Parallel integral file used       8 records with       0 large values


            General Information
            -------------------
          SCF calculation type: DFT
          Wavefunction type:  closed shell.
          No. of atoms     :     6
          No. of electrons :    18
           Alpha electrons :     9
            Beta electrons :     9
          Charge           :     0
          Spin multiplicity:     1
          Use of symmetry is: off; symmetry adaption is: off
          Maximum number of iterations: 100
          AO basis - number of functions:    38
                     number of shells:    20
          Convergence on energy requested:  1.00D-06
          Convergence on density requested:  1.00D-05
          Convergence on gradient requested:  5.00D-04

              XC Information
              --------------
                        Slater Exchange Functional  1.000 local    
                      VWN V Correlation Functional  1.000 local    

             Grid Information
             ----------------
          Grid used for XC integration:  medium    
          Radial quadrature: Mura-Knowles        
          Angular quadrature: Lebedev. 
          Tag              B.-S. Rad. Rad. Pts. Rad. Cut. Ang. Pts.
          ---              ---------- --------- --------- ---------
          C                   0.70       49           7.0       434
          H                   0.35       45           8.0       434
          O                   0.60       49           7.0       434
          H_L                 0.35       45           7.0       434
          Grid pruning is: on 
          Number of quadrature shells:   278
          Spatial weights used:  Erf1

          Convergence Information
          -----------------------
          Convergence aids based upon iterative change in 
          total energy or number of iterations. 
          Levelshifting, if invoked, occurs when the 
          HOMO/LUMO gap drops below (HL_TOL):  1.00D-02
          DIIS, if invoked, will attempt to extrapolate 
          using up to (NFOCK): 10 stored Fock matrices.

                    Damping( 0%)  Levelshifting(0.5)       DIIS
                  --------------- ------------------- ---------------
          dE  on:    start            ASAP                start   
          dE off:    2 iters        100 iters           100 iters 


      Screening Tolerance Information
      -------------------------------
          Density screening/tol_rho:  1.00D-10
          AO Gaussian exp screening on grid/accAOfunc:  14
          CD Gaussian exp screening on grid/accCDfunc:  20
          XC Gaussian exp screening on grid/accXCfunc:  20
          Schwarz screening/accCoul:  1.00D-08



                            NWChem DFT Gradient Module
                            --------------------------


                      QM/MM Ala-Ser-Ala: Ser sidechain in QM



  charge          =   0.00
  wavefunction    = closed shell



                         DFT ENERGY GRADIENTS

    atom               coordinates                        gradient
                 x          y          z           x          y          z
   1 C      -0.661826   3.436271   0.551559   -0.009581  -0.021043   0.001024
   2 H      -0.907175   3.373564   2.625811   -0.004429   0.002310   0.000363
   3 H       1.208953   4.272440   0.071282   -0.007379   0.014153  -0.008221
   4 O      -2.377062   5.319913  -0.314170    0.013892   0.025270   0.017457
   5 H      -2.776334   4.863492  -2.090463   -0.001780  -0.007443  -0.012179
   6 H_L    -0.725838   1.432715  -0.181149    0.009276  -0.013248   0.001557

                 ----------------------------------------
                 |  Time  |  1-e(secs)   |  2-e(secs)   |
                 ----------------------------------------
                 |  CPU   |       0.00   |       0.11   |
                 ----------------------------------------
                 |  WALL  |       0.00   |       0.11   |
                 ----------------------------------------
------------------------------------------------------------------------
 QM/MM Energy
------------------------------------------------------------------------
 quantum energy                      -114.767408808 (-.301322E+06  kjoule/mol)
 quantum energy adjusted                0.002591192 (0.680318E+01  kjoule/mol)
 classical energy                       0.015875751 (0.416818E+02  kjoule/mol)
 total qmmm energy                      0.018466944 (0.484850E+02  kjoule/mol)
------------------------------------------------------------------------


 Task  times  cpu:        0.5s     wall:        0.5s


                                NWChem Input Module
                                -------------------


 in qmmm_input:                     
 out of qmmm_input:                     
 ****************************************************
 *      NWChem QM/MM Interface Module               *
 *                                                  *
 *      Developed Marat Valiev 2004                 *
 ****************************************************
                    QM/MM Interface Parameters
                    --------------------------
 operation             task:operation        gradient                                                      
 reference energy      qmmm:uqmatm            -114.770000                                                  
 bqzone radius         qmmm:bqzone               9.000000                                                  
 excluded bq's         qmmm:bq_exclude       all                                                           
 link atom type        qmmm:linkatm          hydrogens                                                     
 optimization method   qmmm:optimization     bfgs                                                          
 ecp on link atoms     qmmm:link_ecp         auto                                                          
 interface api         qmmm:interface        qm                                                            
 ------------------------------------------------------


 number of quantum atoms                    5
         6
   
  C            -0.350223        1.818396        0.291873        17
  H            -0.480057        1.785213        1.389519        18
  H             0.639751        2.260878        0.037721        19
  O            -1.257887        2.815177       -0.166251        20
  H            -1.469173        2.573649       -1.106225        21
  H_L          -0.384097        0.758160       -0.095860        15
 Total number of active Bq charges                     0
 frozen_density,esp F F
         6
   
  C            -0.350223        1.818396        0.291873        17
  H            -0.480057        1.785213        1.389519        18
  H             0.639751        2.260878        0.037721        19
  O            -1.257887        2.815177       -0.166251        20
  H            -1.469173        2.573649       -1.106225        21
  H_L          -0.384097        0.758160       -0.095860        15

                                 NWChem DFT Module
                                 -----------------


                      QM/MM Ala-Ser-Ala: Ser sidechain in QM




 Summary of "ao basis" -> "ao basis" (cartesian)
 ------------------------------------------------------------------------------
       Tag                 Description            Shells   Functions and Types
 ---------------- ------------------------------  ------  ---------------------
 C                           6-31G*                  6       15   3s2p1d
 H                           6-31G*                  2        2   2s
 O                           6-31G*                  6       15   3s2p1d
 H_L                         6-31G*                  2        2   2s



  The DFT is already converged 

         Total DFT energy =   -114.767408807747


            General Information
            -------------------
          SCF calculation type: DFT
          Wavefunction type:  closed shell.
          No. of atoms     :     6
          No. of electrons :    18
           Alpha electrons :     9
            Beta electrons :     9
          Charge           :     0
          Spin multiplicity:     1
          Use of symmetry is: off; symmetry adaption is: off
          Maximum number of iterations: 100
          AO basis - number of functions:    38
                     number of shells:    20
          Convergence on energy requested:  1.00D-06
          Convergence on density requested:  1.00D-05
          Convergence on gradient requested:  5.00D-04

              XC Information
              --------------
                        Slater Exchange Functional  1.000 local    
                      VWN V Correlation Functional  1.000 local    

             Grid Information
             ----------------
          Grid used for XC integration:  medium    
          Radial quadrature: Mura-Knowles        
          Angular quadrature: Lebedev. 
          Tag              B.-S. Rad. Rad. Pts. Rad. Cut. Ang. Pts.
          ---              ---------- --------- --------- ---------
          C                   0.70       49           7.0       434
          H                   0.35       45           8.0       434
          O                   0.60       49           7.0       434
          H_L                 0.35       45           7.0       434
          Grid pruning is: on 
          Number of quadrature shells:   278
          Spatial weights used:  Erf1

          Convergence Information
          -----------------------
          Convergence aids based upon iterative change in 
          total energy or number of iterations. 
          Levelshifting, if invoked, occurs when the 
          HOMO/LUMO gap drops below (HL_TOL):  1.00D-02
          DIIS, if invoked, will attempt to extrapolate 
          using up to (NFOCK): 10 stored Fock matrices.

                    Damping( 0%)  Levelshifting(0.5)       DIIS
                  --------------- ------------------- ---------------
          dE  on:    start            ASAP                start   
          dE off:    2 iters        100 iters           100 iters 


      Screening Tolerance Information
      -------------------------------
          Density screening/tol_rho:  1.00D-10
          AO Gaussian exp screening on grid/accAOfunc:  14
          CD Gaussian exp screening on grid/accCDfunc:  20
          XC Gaussian exp screening on grid/accXCfunc:  20
          Schwarz screening/accCoul:  1.00D-08



                            NWChem DFT Gradient Module
                            --------------------------


                      QM/MM Ala-Ser-Ala: Ser sidechain in QM



  charge          =   0.00
  wavefunction    = closed shell



                         DFT ENERGY GRADIENTS

    atom               coordinates                        gradient
                 x          y          z           x          y          z
   1 C      -0.661826   3.436271   0.551559   -0.007130   0.075788   0.022089
   2 H      -0.907175   3.373564   2.625811    0.027299   0.004281  -0.213622
   3 H       1.208953   4.272440   0.071282   -0.176416  -0.085347   0.048374
   4 O      -2.377062   5.319913  -0.314170    0.100445  -0.225870  -0.143496
   5 H      -2.776334   4.863492  -2.090463    0.055335   0.051229   0.224472
   6 H_L    -0.725838   1.432715  -0.181149    0.000467   0.179919   0.062184

                 ----------------------------------------
                 |  Time  |  1-e(secs)   |  2-e(secs)   |
                 ----------------------------------------
                 |  CPU   |       0.00   |       0.11   |
                 ----------------------------------------
                 |  WALL  |       0.00   |       0.11   |
                 ----------------------------------------
------------------------------------------------------------------------
 QM/MM Energy
------------------------------------------------------------------------
 quantum energy                      -114.767408808 (-.301322E+06  kjoule/mol)
 quantum energy adjusted                0.002591192 (0.680318E+01  kjoule/mol)
 classical energy                       0.015875751 (0.416818E+02  kjoule/mol)
 total qmmm energy                      0.018466944 (0.484850E+02  kjoule/mol)
------------------------------------------------------------------------


 Task  times  cpu:        0.1s     wall:        0.1s


                                NWChem Input Module
                                -------------------


 Summary of allocated global arrays
-----------------------------------
  No active global arrays



                         GA Statistics for process    0
                         ------------------------------

       create   destroy   get      put      acc     scatter   gather  read&inc
calls:  226      226     1.91e+04  765     3263        0        0      389     
number of processes/call 1.12e+00 1.56e+00 1.10e+00 0.00e+00 0.00e+00
bytes total:             5.49e+06 8.07e+05 2.39e+06 0.00e+00 0.00e+00 3.11e+03
bytes remote:            2.47e+06 2.76e+05 8.29e+05 0.00e+00 0.00e+00 0.00e+00
Max memory consumed for GA by this process: 168952 bytes

MA_summarize_allocated_blocks: starting scan ...
MA_summarize_allocated_blocks: scan completed: 0 heap blocks, 0 stack blocks
MA usage statistics:

	allocation statistics:
					      heap	     stack
					      ----	     -----
	current number of blocks	         0	         0
	maximum number of blocks	        55	       137
	current total bytes		         0	         0
	maximum total bytes		 693256776	1295469272
	maximum total K-bytes		    693257	   1295470
	maximum total M-bytes		       694	      1296


                                     CITATION
                                     --------
                Please cite the following reference when publishing
                           results obtained with NWChem:

                 M. Valiev, E.J. Bylaska, N. Govind, K. Kowalski,
              T.P. Straatsma, H.J.J. van Dam, D. Wang, J. Nieplocha,
                        E. Apra, T.L. Windus, W.A. de Jong
                 "NWChem: a comprehensive and scalable open-source
                  solution for large scale molecular simulations"
                      Comput. Phys. Commun. 181, 1477 (2010)
                           doi:10.1016/j.cpc.2010.04.018

                                      AUTHORS
                                      -------
          E. Apra, E. J. Bylaska, W. A. de Jong, N. Govind, K. Kowalski,
       T. P. Straatsma, M. Valiev, H. J. J. van Dam, D. Wang, T. L. Windus,
        J. Hammond, J. Autschbach, K. Bhaskaran-Nair, J. Brabec, K. Lopata,
    S. A. Fischer, S. Krishnamoorthy, M. Jacquelin, W. Ma, M. Klemm, O. Villa,
      Y. Chen, V. Anisimov, F. Aquino, S. Hirata, M. T. Hackler, V. Konjkov,
            D. Mejia-Rodriguez, T. Risthaus, M. Malagoli, A. Marenich,
   A. Otero-de-la-Roza, J. Mullin, P. Nichols, R. Peverati, J. Pittner, Y. Zhao,
        P.-D. Fan, A. Fonari, M. J. Williamson, R. J. Harrison, J. R. Rehr,
      M. Dupuis, D. Silverstein, D. M. A. Smith, J. Nieplocha, V. Tipparaju,
    M. Krishnan, B. E. Van Kuiken, A. Vazquez-Mayagoitia, L. Jensen, M. Swart,
      Q. Wu, T. Van Voorhis, A. A. Auer, M. Nooijen, L. D. Crosby, E. Brown,
      G. Cisneros, G. I. Fann, H. Fruchtl, J. Garza, K. Hirao, R. A. Kendall,
      J. A. Nichols, K. Tsemekhman, K. Wolinski, J. Anchell, D. E. Bernholdt,
      P. Borowski, T. Clark, D. Clerc, H. Dachsel, M. J. O. Deegan, K. Dyall,
    D. Elwood, E. Glendening, M. Gutowski, A. C. Hess, J. Jaffe, B. G. Johnson,
     J. Ju, R. Kobayashi, R. Kutteh, Z. Lin, R. Littlefield, X. Long, B. Meng,
      T. Nakajima, S. Niu, L. Pollack, M. Rosing, K. Glaesemann, G. Sandrone,
      M. Stave, H. Taylor, G. Thomas, J. H. van Lenthe, A. T. Wong, Z. Zhang.

 Total times  cpu:        0.6s     wall:        0.7s
[0] ARMCI Warning: Freed 1 leaked allocations
