 argument  1 = /home/list1234/source/nwchem-6.8.1-release/QA/tests/qmmm_opt0/qmmm_opt0.nw



============================== echo of input deck ==============================
echo
memory total 800 Mb

start asa

#prepare
#  system asa_ref
#  source asa.pdb
#  new_top new_seq
#  new_rst
#  modify atom 2:_CB quantum
#  modify atom 2:2HB quantum
#  modify atom 2:3HB quantum
#  modify atom 2:_OG quantum
#  modify atom 2:_HG quantum
#  center
#  orient
#  solvate
#  fix segments beyond 0.5 2:_OG
#  update lists
#  ignore
#  write asa_ref.rst
#  write asa_ref.pdb   # Write out PDB file to check structure
#end
#task prepare
#

#----------------------------------------
# this can be replaced by
# task shell "cp asa_ref.rst asa_qmmm.rst"
#-----------------------------------------
prepare
read asa_ref.rst
write asa_qmmm.rst
end
task prepare
#----------------------------------------
# noshake solute always have tobe present
# if optimizing classical solvent
#---------------------------------------
md
  system asa_qmmm
  noshake solute
  cells 2 2 2
end

basis "ao basis"
  * library "6-31G*"
end

dft
 print low
 iterations 500
end

#----------------------------------------
# optimization will be done for three
# regions (one after another)
# esp charges will be used where possible
# to speed up calculations
#----------------------------------------
qmmm
region qmlink mm_solute solvent
maxiter 5     5         5
ncycles 3
density espfit
end

task qmmm dft optimize

================================================================================


                                         
                                         


              Northwest Computational Chemistry Package (NWChem) 6.8
              ------------------------------------------------------


                    Environmental Molecular Sciences Laboratory
                       Pacific Northwest National Laboratory
                                Richland, WA 99352

                              Copyright (c) 1994-2018
                       Pacific Northwest National Laboratory
                            Battelle Memorial Institute

             NWChem is an open-source computational chemistry package
                        distributed under the terms of the
                      Educational Community License (ECL) 2.0
             A copy of the license is included with this distribution
                              in the LICENSE.TXT file

                                  ACKNOWLEDGMENT
                                  --------------

            This software and its documentation were developed at the
            EMSL at Pacific Northwest National Laboratory, a multiprogram
            national laboratory, operated for the U.S. Department of Energy
            by Battelle under Contract Number DE-AC05-76RL01830. Support
            for this work was provided by the Department of Energy Office
            of Biological and Environmental Research, Office of Basic
            Energy Sciences, and the Office of Advanced Scientific Computing.


           Job information
           ---------------

    hostname        = list1234-B360M-H
    program         = /home/list1234/source/nwchem-6.8.1-release/bin/LINUX64/nwchem
    date            = Sun Jun 30 13:29:00 2019

    compiled        = Sun_Jun_30_11:55:59_2019
    source          = /home/list1234/source/nwchem-6.8.1-release
    nwchem branch   = Development
    nwchem revision = N/A
    ga revision     = 5.6.5
    use scalapack   = T
    input           = /home/list1234/source/nwchem-6.8.1-release/QA/tests/qmmm_opt0/qmmm_opt0.nw
    prefix          = asa.
    data base       = ./asa.db
    status          = startup
    nproc           =        4
    time left       =     -1s



           Memory information
           ------------------

    heap     =   26214394 doubles =    200.0 Mbytes
    stack    =   26214399 doubles =    200.0 Mbytes
    global   =   52428800 doubles =    400.0 Mbytes (distinct from heap & stack)
    total    =  104857593 doubles =    800.0 Mbytes
    verify   = yes
    hardfail = no 


           Directory information
           ---------------------

  0 permanent = .
  0 scratch   = .




                                NWChem Input Module
                                -------------------


                                  Prepare Module
                                  --------------

 Force field                           


 Directories used for fragment and segment files


 Parameter files used to resolve force field parameters

 Using existing topology               asa.top
 Topology                              asa.top

 Restart generation using command file directives

 Read restart                          asa_ref.rst


 Created restart                       asa_qmmm.rst


 Task  times  cpu:        0.0s     wall:        0.0s


                                NWChem Input Module
                                -------------------




 Summary of "ao basis" -> "" (cartesian)
 ------------------------------------------------------------------------------
       Tag                 Description            Shells   Functions and Types
 ---------------- ------------------------------  ------  ---------------------
 *                           6-31G*                   on all atoms 


 in qmmm_input:                     
 out of qmmm_input:                     
 ****************************************************
 *      NWChem QM/MM Interface Module               *
 *                                                  *
 *      Developed Marat Valiev 2004                 *
 ****************************************************
                    QM/MM Interface Parameters
                    --------------------------
 operation             task:operation        optimize                                                      
 reference energy      qmmm:uqmatm               0.000000  <--- Warning zero value is not advisable !!!    
 bqzone radius         qmmm:bqzone               9.000000                                                  
 excluded bq's         qmmm:bq_exclude       none                                                          
 link atom type        qmmm:linkatm          hydrogens                                                     
 optimization method   qmmm:optimization     bfgs                                                          
 qmmm:region 1         qmlink                                                        
 qmmm:region 2         mm_solute                                                     
 qmmm:region 3         solvent                                                       
 ecp on link atoms     qmmm:link_ecp         auto                                                          
 interface api         qmmm:interface        qm                                                            
 ------------------------------------------------------


 number of quantum atoms                    5
 Total number of Bq charges                  362
 Number of solute Bq charges                   29
 Number of solvent Bq charges                  333
 Total Bq charge:   -5.4999999999999716E-002
         6
   
  C             0.886894        1.685381       -0.084112        17
  H             1.896658        1.241348       -0.097263        18
  H             0.702993        2.180159       -1.045539        19
  O             0.904933        2.735151        0.874459        20
  H             0.000000        2.992744        1.044729        21
  H_L           0.143504        0.878161        0.065495        15
@------------------------------------------------
@
@ QM/MM Multiple Region Optimization
@ region1:  qmlink    with bfgs      maxiter =  5
@ region2:  mm_solute with lbfgs     maxiter =  5
@ region3:  solvent   with sd        maxiter =  5
@
@
@------------------------------------------------
@ ncycle =  1
@
@
@ Optimizing qmlink     region with bfgs  
@
         6
   
  C             0.886894        1.685381       -0.084112        17
  H             1.896658        1.241348       -0.097263        18
  H             0.702993        2.180159       -1.045539        19
  O             0.904933        2.735151        0.874459        20
  H             0.000000        2.992744        1.044729        21
  C            -0.161611        0.546848        0.126899        15


                           NWChem Geometry Optimization
                           ----------------------------


 maximum gradient threshold         (gmax) =   0.000450
 rms gradient threshold             (grms) =   0.000300
 maximum cartesian step threshold   (xmax) =   0.001800
 rms cartesian step threshold       (xrms) =   0.001200
 fixed trust radius                (trust) =   0.300000
 maximum step size to saddle      (sadstp) =   0.100000
 energy precision                  (eprec) =   5.0D-06
 maximum number of steps          (nptopt) =    5
 initial hessian option           (inhess) =    0
 line search option               (linopt) =    1
 hessian update option            (modupd) =    1
 saddle point option              (modsad) =    0
 initial eigen-mode to follow     (moddir) =    0
 initial variable to follow       (vardir) =    0
 follow first negative mode     (firstneg) =    T
 apply conjugacy                    (opcg) =    F
 source of zmatrix                         =           


          -------------------
          Energy Minimization
          -------------------


 Using diagonal initial Hessian 

          --------
          Step   0
          --------


                         Geometry "geometry" -> "geometry"
                         ---------------------------------

 Output coordinates in angstroms (scale by  1.889725989 to convert to a.u.)

  No.       Tag          Charge          X              Y              Z
 ---- ---------------- ---------- -------------- -------------- --------------
    1 C                    6.0000     0.88689390     1.68538120    -0.08411160
    2 H                    1.0000     1.89665800     1.24134790    -0.09726310
    3 H                    1.0000     0.70299330     2.18015950    -1.04553910
    4 O                    8.0000     0.90493290     2.73515060     0.87445860
    5 H                    1.0000     0.00000000     2.99274380     1.04472950
    6 C                   -0.0249    -0.16161090     0.54684810     0.12689870

      Atomic Mass 
      ----------- 

      C                 12.000000
      H                  1.007825
      O                 15.994910


 Effective nuclear repulsion energy (a.u.)      34.4845171260

            Nuclear Dipole moment (a.u.) 
            ----------------------------
        X                 Y               Z
 ---------------- ---------------- ----------------
    28.6567535439    72.5543789728    12.0749082316

 Total number of active Bq charges                     1
 frozen_density,esp T T
 disabling frozen_density,esp due to active qm atoms
         6
   
  C             0.886894        1.685381       -0.084112        17
  H             1.896658        1.241348       -0.097263        18
  H             0.702993        2.180159       -1.045539        19
  O             0.904933        2.735151        0.874459        20
  H             0.000000        2.992744        1.044729        21
  H_L           0.143504        0.878161        0.065495        15

                                 NWChem DFT Module
                                 -----------------


                      Basis "ao basis" -> "ao basis" (cartesian)
                      -----
  C (Carbon)
  ----------
            Exponent  Coefficients 
       -------------- ---------------------------------------------------------
  1 S  3.04752490E+03  0.001835
  1 S  4.57369510E+02  0.014037
  1 S  1.03948690E+02  0.068843
  1 S  2.92101550E+01  0.232184
  1 S  9.28666300E+00  0.467941
  1 S  3.16392700E+00  0.362312

  2 S  7.86827240E+00 -0.119332
  2 S  1.88128850E+00 -0.160854
  2 S  5.44249300E-01  1.143456

  3 P  7.86827240E+00  0.068999
  3 P  1.88128850E+00  0.316424
  3 P  5.44249300E-01  0.744308

  4 S  1.68714400E-01  1.000000

  5 P  1.68714400E-01  1.000000

  6 D  8.00000000E-01  1.000000

  H (Hydrogen)
  ------------
            Exponent  Coefficients 
       -------------- ---------------------------------------------------------
  1 S  1.87311370E+01  0.033495
  1 S  2.82539370E+00  0.234727
  1 S  6.40121700E-01  0.813757

  2 S  1.61277800E-01  1.000000

  O (Oxygen)
  ----------
            Exponent  Coefficients 
       -------------- ---------------------------------------------------------
  1 S  5.48467170E+03  0.001831
  1 S  8.25234950E+02  0.013950
  1 S  1.88046960E+02  0.068445
  1 S  5.29645000E+01  0.232714
  1 S  1.68975700E+01  0.470193
  1 S  5.79963530E+00  0.358521

  2 S  1.55396160E+01 -0.110778
  2 S  3.59993360E+00 -0.148026
  2 S  1.01376180E+00  1.130767

  3 P  1.55396160E+01  0.070874
  3 P  3.59993360E+00  0.339753
  3 P  1.01376180E+00  0.727159

  4 S  2.70005800E-01  1.000000

  5 P  2.70005800E-01  1.000000

  6 D  8.00000000E-01  1.000000

  H_L (Hydrogen)
  --------------
            Exponent  Coefficients 
       -------------- ---------------------------------------------------------
  1 S  1.87311370E+01  0.033495
  1 S  2.82539370E+00  0.234727
  1 S  6.40121700E-01  0.813757

  2 S  1.61277800E-01  1.000000



 Summary of "ao basis" -> "ao basis" (cartesian)
 ------------------------------------------------------------------------------
       Tag                 Description            Shells   Functions and Types
 ---------------- ------------------------------  ------  ---------------------
 C                           6-31G*                  6       15   3s2p1d
 H                           6-31G*                  2        2   2s
 O                           6-31G*                  6       15   3s2p1d
 H_L                         6-31G*                  2        2   2s



  Caching 1-el integrals 
 Nuclear repulsion energy =   40.231646674958739     
 Bq nuclear interaction energy =  0.16717361685915397     
 Nuclear repulsion energy =   40.231646674958739     
 Bq nuclear interaction energy =  0.16717361685915397     
 Nuclear repulsion energy =   40.231646674958739     
 Bq nuclear interaction energy =  0.16717361685915397     
   Time after variat. SCF:      0.1
   Time prior to 1st pass:      0.1
 Nuclear repulsion energy =   40.231646674958739     
 Bq nuclear interaction energy =  0.16717361685915397     
 Nuclear repulsion energy =   40.231646674958739     
 Bq nuclear interaction energy =  0.16717361685915397     
 Nuclear repulsion energy =   40.231646674958739     
 Bq nuclear interaction energy =  0.16717361685915397     
 Nuclear repulsion energy =   40.231646674958739     
 Bq nuclear interaction energy =  0.16717361685915397     
 Nuclear repulsion energy =   40.231646674958739     
 Bq nuclear interaction energy =  0.16717361685915397     
 Nuclear repulsion energy =   40.231646674958739     
 Bq nuclear interaction energy =  0.16717361685915397     
  Resetting Diis
 Nuclear repulsion energy =   40.231646674958739     
 Bq nuclear interaction energy =  0.16717361685915397     
 Nuclear repulsion energy =   40.231646674958739     
 Bq nuclear interaction energy =  0.16717361685915397     
 Nuclear repulsion energy =   40.231646674958739     
 Bq nuclear interaction energy =  0.16717361685915397     


         Total DFT energy =     -114.780688795889
      One electron energy =     -237.000519324152
           Coulomb energy =       96.342702499720
    Exchange-Corr. energy =      -14.521692263274
 Nuclear repulsion energy =       40.398820291818

 Numeric. integr. density =       17.999999370285

     Total iterative time =      0.4s


 Nuclear repulsion energy =   40.231646674958739     
 Bq nuclear interaction energy =  0.16717361685915397     


                         DFT ENERGY GRADIENTS

    atom               coordinates                        gradient
                 x          y          z           x          y          z
   1 C       1.675986   3.184909  -0.158948   -0.004332  -0.025432   0.000581
   2 H       3.584164   2.345807  -0.183801    0.001906   0.001487   0.003106
   3 H       1.328465   4.119904  -1.975782   -0.003526   0.007251   0.014564
   4 O       1.710075   5.168685   1.652487   -0.017367   0.021313  -0.007463
   5 H       0.000000   5.655466   1.974252    0.017362  -0.005898  -0.005363
   6 H_L     0.271183   1.659484   0.123767    0.017104   0.019949  -0.014535

 Bq nuclear interaction energy =  0.16717361685915397     
              Calculating forces on classical charges
              ---------------------------------------
 Total number of charges                    1
                              NWChem Property Module
                              ----------------------


 scftyp:RHF
 theory:dft                           
------------------------------------------------------------------------
 QM/MM Energy
------------------------------------------------------------------------
 quantum energy                      -114.780688796 (-.301357E+06  kjoule/mol)
 quantum energy adjusted             -114.780688796 (-.301357E+06  kjoule/mol)
 quantum energy internal             -114.770110624 (-.301329E+06  kjoule/mol)
 Bq-nuclear energy                      0.167173617 (0.438914E+03  kjoule/mol)
 Bq-electron energy                    -0.177751789 (-.466687E+03  kjoule/mol)
 classical energy                       0.749464407 (0.196772E+04  kjoule/mol)
 total qmmm energy                   -114.031224389 (-.299389E+06  kjoule/mol)
------------------------------------------------------------------------


@ Step       Energy      Delta E   Gmax     Grms     Xrms     Xmax   Walltime
@ ---- ---------------- -------- -------- -------- -------- -------- --------
@    0    -114.03122439  0.0D+00  0.01933  0.00917  0.00000  0.00000      0.7
                                                                    

 Total number of active Bq charges                    41
 frozen_density,esp T T
 disabling frozen_density,esp due to active qm atoms
         6
   
  C             0.869620        1.697940       -0.093480        17
  H             1.882716        1.235789       -0.107014        18
  H             0.738502        2.091988       -1.122191        19
  O             0.965701        2.691974        0.926124        20
  H             0.035943        3.018134        1.044726        21
  H_L           0.126952        0.894385        0.083917        15

                                 NWChem DFT Module
                                 -----------------



 Nuclear repulsion energy =   39.848853224400500     
 Bq nuclear interaction energy =  0.17365510374450674     
  Caching 1-el integrals 
 Nuclear repulsion energy =   39.848853224400500     
 Bq nuclear interaction energy =  0.17365510374450674     
 Nuclear repulsion energy =   39.848853224400500     
 Bq nuclear interaction energy =  0.17365510374450674     
   Time after variat. SCF:      0.7
   Time prior to 1st pass:      0.8
 Nuclear repulsion energy =   39.848853224400500     
 Bq nuclear interaction energy =  0.17365510374450674     
 Nuclear repulsion energy =   39.848853224400500     
 Bq nuclear interaction energy =  0.17365510374450674     
 Nuclear repulsion energy =   39.848853224400500     
 Bq nuclear interaction energy =  0.17365510374450674     
 Nuclear repulsion energy =   39.848853224400500     
 Bq nuclear interaction energy =  0.17365510374450674     
 Nuclear repulsion energy =   39.848853224400500     
 Bq nuclear interaction energy =  0.17365510374450674     
 Nuclear repulsion energy =   39.848853224400500     
 Bq nuclear interaction energy =  0.17365510374450674     
 Nuclear repulsion energy =   39.848853224400500     
 Bq nuclear interaction energy =  0.17365510374450674     
 Nuclear repulsion energy =   39.848853224400500     
 Bq nuclear interaction energy =  0.17365510374450674     


         Total DFT energy =     -114.783286917420
      One electron energy =     -236.263647825308
           Coulomb energy =       95.949629971087
    Exchange-Corr. energy =      -14.491777391344
 Nuclear repulsion energy =       40.022508328145

 Numeric. integr. density =       17.999998710961

     Total iterative time =      0.4s


 Nuclear repulsion energy =   39.848853224400500     
 Bq nuclear interaction energy =  0.17365510374450674     
 Bq nuclear interaction energy =  0.17365510374450674     
------------------------------------------------------------------------
 QM/MM Energy
------------------------------------------------------------------------
 quantum energy                      -114.783286917 (-.301364E+06  kjoule/mol)
 quantum energy adjusted             -114.783286917 (-.301364E+06  kjoule/mol)
 quantum energy internal             -114.771588507 (-.301333E+06  kjoule/mol)
 Bq-nuclear energy                      0.173655104 (0.455931E+03  kjoule/mol)
 Bq-electron energy                    -0.185353514 (-.486646E+03  kjoule/mol)
 classical energy                       0.751989509 (0.197435E+04  kjoule/mol)
 total qmmm energy                   -114.031297409 (-.299389E+06  kjoule/mol)
------------------------------------------------------------------------

 Line search: 
     step= 1.00 grad=-7.2D-03 hess= 7.1D-03 energy=   -114.031297 mode=downhill
 new step= 0.51                   predicted energy=   -114.033046

          --------
          Step   1
          --------


                         Geometry "geometry" -> "geometry"
                         ---------------------------------

 Output coordinates in angstroms (scale by  1.889725989 to convert to a.u.)

  No.       Tag          Charge          X              Y              Z
 ---- ---------------- ---------- -------------- -------------- --------------
    1 C                    6.0000     0.87816854     1.69172496    -0.08884362
    2 H                    1.0000     1.88961587     1.23854000    -0.10218847
    3 H                    1.0000     0.72092913     2.13562306    -1.08425727
    4 O                    8.0000     0.93562786     2.71334157     0.90055531
    5 H                    1.0000     0.01815537     3.00556875     1.04472763
    6 C                   -0.0249    -0.16982203     0.55580237     0.14196548

      Atomic Mass 
      ----------- 

      C                 12.000000
      H                  1.007825
      O                 15.994910


 Effective nuclear repulsion energy (a.u.)      34.3086149980

            Nuclear Dipole moment (a.u.) 
            ----------------------------
        X                 Y               Z
 ---------------- ---------------- ----------------
    29.0771439393    72.2309484694    12.3325931381

 Total number of active Bq charges                    41
 frozen_density,esp T T
 disabling frozen_density,esp due to active qm atoms
         6
   
  C             0.878169        1.691725       -0.088844        17
  H             1.889616        1.238540       -0.102188        18
  H             0.720929        2.135623       -1.084257        19
  O             0.935628        2.713342        0.900555        20
  H             0.018155        3.005569        1.044728        21
  H_L           0.135143        0.886356        0.074800        15

                                 NWChem DFT Module
                                 -----------------



 Nuclear repulsion energy =   40.059274968049316     
 Bq nuclear interaction energy =  0.17028342356904452     
  Caching 1-el integrals 
 Nuclear repulsion energy =   40.059274968049316     
 Bq nuclear interaction energy =  0.17028342356904452     
 Nuclear repulsion energy =   40.059274968049316     
 Bq nuclear interaction energy =  0.17028342356904452     
   Time after variat. SCF:      1.1
   Time prior to 1st pass:      1.1
 Nuclear repulsion energy =   40.059274968049316     
 Bq nuclear interaction energy =  0.17028342356904452     
 Nuclear repulsion energy =   40.059274968049316     
 Bq nuclear interaction energy =  0.17028342356904452     
 Nuclear repulsion energy =   40.059274968049316     
 Bq nuclear interaction energy =  0.17028342356904452     
 Nuclear repulsion energy =   40.059274968049316     
 Bq nuclear interaction energy =  0.17028342356904452     
 Nuclear repulsion energy =   40.059274968049316     
 Bq nuclear interaction energy =  0.17028342356904452     
 Nuclear repulsion energy =   40.059274968049316     
 Bq nuclear interaction energy =  0.17028342356904452     
 Nuclear repulsion energy =   40.059274968049316     
 Bq nuclear interaction energy =  0.17028342356904452     


         Total DFT energy =     -114.783379509056
      One electron energy =     -236.669432569437
           Coulomb energy =       96.164401105793
    Exchange-Corr. energy =      -14.507906437030
 Nuclear repulsion energy =       40.229558391618

 Numeric. integr. density =       18.000001247646

     Total iterative time =      0.3s


 Nuclear repulsion energy =   40.059274968049316     
 Bq nuclear interaction energy =  0.17028342356904452     


                         DFT ENERGY GRADIENTS

    atom               coordinates                        gradient
                 x          y          z           x          y          z
   1 C       1.659498   3.196897  -0.167890   -0.014915  -0.016552  -0.001566
   2 H       3.570856   2.340501  -0.193108    0.004865   0.002456   0.003107
   3 H       1.362359   4.035742  -2.048949   -0.001068   0.000304   0.007321
   4 O       1.768080   5.127472   1.701803    0.004135   0.016230  -0.000311
   5 H       0.034309   5.679701   1.974249    0.000872  -0.003422  -0.003770
   6 H_L     0.255384   1.674970   0.141352    0.017102   0.019633  -0.014098

 Bq nuclear interaction energy =  0.17028342356904452     
              Calculating forces on classical charges
              ---------------------------------------
 Total number of charges                   41
                              NWChem Property Module
                              ----------------------


 scftyp:RHF
 theory:dft                           
------------------------------------------------------------------------
 QM/MM Energy
------------------------------------------------------------------------
 quantum energy                      -114.783379509 (-.301364E+06  kjoule/mol)
 quantum energy adjusted             -114.783379509 (-.301364E+06  kjoule/mol)
 quantum energy internal             -114.772232401 (-.301334E+06  kjoule/mol)
 Bq-nuclear energy                      0.170283424 (0.447079E+03  kjoule/mol)
 Bq-electron energy                    -0.181430532 (-.476346E+03  kjoule/mol)
 classical energy                       0.750316393 (0.196996E+04  kjoule/mol)
 total qmmm energy                   -114.033063116 (-.299394E+06  kjoule/mol)
------------------------------------------------------------------------


  Step       Energy      Delta E   Gmax     Grms     Xrms     Xmax   Walltime
  ---- ---------------- -------- -------- -------- -------- -------- --------
@    1    -114.03306312 -1.8D-03  0.01188  0.00555  0.03725  0.08416      1.7
                                                                    

 Total number of active Bq charges                    41
 frozen_density,esp T T
 disabling frozen_density,esp due to active qm atoms
         6
   
  C             0.886127        1.682199       -0.114305        17
  H             1.892766        1.220033       -0.118556        18
  H             0.769680        2.111394       -1.139679        19
  O             0.959142        2.639025        0.936281        20
  H             0.029214        2.971322        1.052374        21
  H_L           0.134293        0.876571        0.005951        15

                                 NWChem DFT Module
                                 -----------------



 Nuclear repulsion energy =   39.884952823542193     
 Bq nuclear interaction energy =  0.17635790049944439     
  Caching 1-el integrals 
 Nuclear repulsion energy =   39.884952823542193     
 Bq nuclear interaction energy =  0.17635790049944439     
 Nuclear repulsion energy =   39.884952823542193     
 Bq nuclear interaction energy =  0.17635790049944439     
   Time after variat. SCF:      1.7
   Time prior to 1st pass:      1.7
 Nuclear repulsion energy =   39.884952823542193     
 Bq nuclear interaction energy =  0.17635790049944439     
 Nuclear repulsion energy =   39.884952823542193     
 Bq nuclear interaction energy =  0.17635790049944439     
 Nuclear repulsion energy =   39.884952823542193     
 Bq nuclear interaction energy =  0.17635790049944439     
 Nuclear repulsion energy =   39.884952823542193     
 Bq nuclear interaction energy =  0.17635790049944439     
 Nuclear repulsion energy =   39.884952823542193     
 Bq nuclear interaction energy =  0.17635790049944439     
 Nuclear repulsion energy =   39.884952823542193     
 Bq nuclear interaction energy =  0.17635790049944439     
 Nuclear repulsion energy =   39.884952823542193     
 Bq nuclear interaction energy =  0.17635790049944439     


         Total DFT energy =     -114.783407098606
      One electron energy =     -236.332645330620
           Coulomb energy =       95.979655766490
    Exchange-Corr. energy =      -14.491728258517
 Nuclear repulsion energy =       40.061310724042

 Numeric. integr. density =       17.999999433544

     Total iterative time =      0.3s


 Nuclear repulsion energy =   39.884952823542193     
 Bq nuclear interaction energy =  0.17635790049944439     
 Bq nuclear interaction energy =  0.17635790049944439     
------------------------------------------------------------------------
 QM/MM Energy
------------------------------------------------------------------------
 quantum energy                      -114.783407099 (-.301364E+06  kjoule/mol)
 quantum energy adjusted             -114.783407099 (-.301364E+06  kjoule/mol)
 quantum energy internal             -114.771639112 (-.301333E+06  kjoule/mol)
 Bq-nuclear energy                      0.176357900 (0.463028E+03  kjoule/mol)
 Bq-electron energy                    -0.188125887 (-.493925E+03  kjoule/mol)
 classical energy                       0.756372018 (0.198585E+04  kjoule/mol)
 total qmmm energy                   -114.027035080 (-.299378E+06  kjoule/mol)
------------------------------------------------------------------------

 Line search: 
     step= 1.00 grad=-3.4D-03 hess= 9.5D-03 energy=   -114.027035 mode=bracket 
 new step= 0.18                   predicted energy=   -114.033376

          --------
          Step   2
          --------


                         Geometry "geometry" -> "geometry"
                         ---------------------------------

 Output coordinates in angstroms (scale by  1.889725989 to convert to a.u.)

  No.       Tag          Charge          X              Y              Z
 ---- ---------------- ---------- -------------- -------------- --------------
    1 C                    6.0000     0.87961458     1.68999419    -0.09346998
    2 H                    1.0000     1.89018832     1.23517728    -0.10516240
    3 H                    1.0000     0.72978712     2.13122061    -1.09432733
    4 O                    8.0000     0.93990034     2.69983829     0.90704662
    5 H                    1.0000     0.02016468     2.99934622     1.04611688
    6 C                   -0.0249    -0.17063342     0.55400519     0.12621997

      Atomic Mass 
      ----------- 

      C                 12.000000
      H                  1.007825
      O                 15.994910


 Effective nuclear repulsion energy (a.u.)      34.2832127146

            Nuclear Dipole moment (a.u.) 
            ----------------------------
        X                 Y               Z
 ---------------- ---------------- ----------------
    29.1797862921    71.9808361445    12.3569888366

 Total number of active Bq charges                    41
 frozen_density,esp T T
 disabling frozen_density,esp due to active qm atoms
         6
   
  C             0.879615        1.689994       -0.093470        17
  H             1.890188        1.235177       -0.105162        18
  H             0.729787        2.131221       -1.094327        19
  O             0.939900        2.699838        0.907047        20
  H             0.020165        2.999346        1.046117        21
  H_L           0.134989        0.884578        0.062290        15

                                 NWChem DFT Module
                                 -----------------



 Nuclear repulsion energy =   40.034765626315952     
 Bq nuclear interaction energy =  0.17136416060183710     
  Caching 1-el integrals 
 Nuclear repulsion energy =   40.034765626315952     
 Bq nuclear interaction energy =  0.17136416060183710     
 Nuclear repulsion energy =   40.034765626315952     
 Bq nuclear interaction energy =  0.17136416060183710     
   Time after variat. SCF:      2.1
   Time prior to 1st pass:      2.1
 Nuclear repulsion energy =   40.034765626315952     
 Bq nuclear interaction energy =  0.17136416060183710     
 Nuclear repulsion energy =   40.034765626315952     
 Bq nuclear interaction energy =  0.17136416060183710     
 Nuclear repulsion energy =   40.034765626315952     
 Bq nuclear interaction energy =  0.17136416060183710     
 Nuclear repulsion energy =   40.034765626315952     
 Bq nuclear interaction energy =  0.17136416060183710     
 Nuclear repulsion energy =   40.034765626315952     
 Bq nuclear interaction energy =  0.17136416060183710     
 Nuclear repulsion energy =   40.034765626315952     
 Bq nuclear interaction energy =  0.17136416060183710     
 Nuclear repulsion energy =   40.034765626315952     
 Bq nuclear interaction energy =  0.17136416060183710     


         Total DFT energy =     -114.783604236369
      One electron energy =     -236.622378611698
           Coulomb energy =       96.137962341297
    Exchange-Corr. energy =      -14.505317752886
 Nuclear repulsion energy =       40.206129786918

 Numeric. integr. density =       18.000001179835

     Total iterative time =      0.3s


 Nuclear repulsion energy =   40.034765626315952     
 Bq nuclear interaction energy =  0.17136416060183710     


                         DFT ENERGY GRADIENTS

    atom               coordinates                        gradient
                 x          y          z           x          y          z
   1 C       1.662231   3.193626  -0.176633   -0.015833  -0.015450  -0.000520
   2 H       3.571938   2.334147  -0.198728    0.004819   0.002898   0.003211
   3 H       1.379098   4.027423  -2.067979   -0.001007  -0.000527   0.005076
   4 O       1.776154   5.101955   1.714070    0.008057   0.014701   0.000627
   5 H       0.038106   5.667943   1.976874   -0.002258  -0.002646  -0.003530
   6 H_L     0.255092   1.671610   0.117711    0.017218   0.019598  -0.013935

 Bq nuclear interaction energy =  0.17136416060183710     
              Calculating forces on classical charges
              ---------------------------------------
 Total number of charges                   41
                              NWChem Property Module
                              ----------------------


 scftyp:RHF
 theory:dft                           
------------------------------------------------------------------------
 QM/MM Energy
------------------------------------------------------------------------
 quantum energy                      -114.783604236 (-.301364E+06  kjoule/mol)
 quantum energy adjusted             -114.783604236 (-.301364E+06  kjoule/mol)
 quantum energy internal             -114.772349498 (-.301335E+06  kjoule/mol)
 Bq-nuclear energy                      0.171364161 (0.449917E+03  kjoule/mol)
 Bq-electron energy                    -0.182618899 (-.479466E+03  kjoule/mol)
 classical energy                       0.750227751 (0.196972E+04  kjoule/mol)
 total qmmm energy                   -114.033376486 (-.299395E+06  kjoule/mol)
------------------------------------------------------------------------


  Step       Energy      Delta E   Gmax     Grms     Xrms     Xmax   Walltime
  ---- ---------------- -------- -------- -------- -------- -------- --------
@    2    -114.03337649 -3.1D-04  0.00997  0.00511  0.01248  0.02975      2.6
                                                                    

 Total number of active Bq charges                    41
 frozen_density,esp T T
 disabling frozen_density,esp due to active qm atoms
         6
   
  C             0.910840        1.659313       -0.124825        17
  H             1.918584        1.213526       -0.126811        18
  H             0.771325        2.038792       -1.175651        19
  O             0.965017        2.683450        0.840312        20
  H             0.048261        2.974303        1.054270        21
  H_L           0.174552        0.850422        0.054183        15

                                 NWChem DFT Module
                                 -----------------



 Nuclear repulsion energy =   40.104942181918496     
 Bq nuclear interaction energy =  0.15687163770128643     
  Caching 1-el integrals 
 Nuclear repulsion energy =   40.104942181918496     
 Bq nuclear interaction energy =  0.15687163770128643     
 Nuclear repulsion energy =   40.104942181918496     
 Bq nuclear interaction energy =  0.15687163770128643     
   Time after variat. SCF:      2.6
   Time prior to 1st pass:      2.6
 Nuclear repulsion energy =   40.104942181918496     
 Bq nuclear interaction energy =  0.15687163770128643     
 Nuclear repulsion energy =   40.104942181918496     
 Bq nuclear interaction energy =  0.15687163770128643     
 Nuclear repulsion energy =   40.104942181918496     
 Bq nuclear interaction energy =  0.15687163770128643     
 Nuclear repulsion energy =   40.104942181918496     
 Bq nuclear interaction energy =  0.15687163770128643     
 Nuclear repulsion energy =   40.104942181918496     
 Bq nuclear interaction energy =  0.15687163770128643     
 Nuclear repulsion energy =   40.104942181918496     
 Bq nuclear interaction energy =  0.15687163770128643     
 Nuclear repulsion energy =   40.104942181918496     
 Bq nuclear interaction energy =  0.15687163770128643     


         Total DFT energy =     -114.783535464467
      One electron energy =     -236.752488678762
           Coulomb energy =       96.209166858056
    Exchange-Corr. energy =      -14.502027463382
 Nuclear repulsion energy =       40.261813819620

 Numeric. integr. density =       17.999997332547

     Total iterative time =      0.3s


 Nuclear repulsion energy =   40.104942181918496     
 Bq nuclear interaction energy =  0.15687163770128643     
 Bq nuclear interaction energy =  0.15687163770128643     
------------------------------------------------------------------------
 QM/MM Energy
------------------------------------------------------------------------
 quantum energy                      -114.783535464 (-.301364E+06  kjoule/mol)
 quantum energy adjusted             -114.783535464 (-.301364E+06  kjoule/mol)
 quantum energy internal             -114.772195837 (-.301334E+06  kjoule/mol)
 Bq-nuclear energy                      0.156871638 (0.411866E+03  kjoule/mol)
 Bq-electron energy                    -0.168211265 (-.441639E+03  kjoule/mol)
 classical energy                       0.751934824 (0.197420E+04  kjoule/mol)
 total qmmm energy                   -114.031600641 (-.299390E+06  kjoule/mol)
------------------------------------------------------------------------

 Line search: 
     step= 1.00 grad=-2.5D-03 hess= 4.3D-03 energy=   -114.031601 mode=bracket 
 new step= 0.29                   predicted energy=   -114.033748

          --------
          Step   3
          --------


                         Geometry "geometry" -> "geometry"
                         ---------------------------------

 Output coordinates in angstroms (scale by  1.889725989 to convert to a.u.)

  No.       Tag          Charge          X              Y              Z
 ---- ---------------- ---------- -------------- -------------- --------------
    1 C                    6.0000     0.88878826     1.68098036    -0.10268182
    2 H                    1.0000     1.89853069     1.22881624    -0.11152250
    3 H                    1.0000     0.74199072     2.10406599    -1.11821961
    4 O                    8.0000     0.94727943     2.69502343     0.88744063
    5 H                    1.0000     0.02841917     2.99198862     1.04851228
    6 C                   -0.0249    -0.15800469     0.54355138     0.12664151

      Atomic Mass 
      ----------- 

      C                 12.000000
      H                  1.007825
      O                 15.994910


 Effective nuclear repulsion energy (a.u.)      34.3060843642

            Nuclear Dipole moment (a.u.) 
            ----------------------------
        X                 Y               Z
 ---------------- ---------------- ----------------
    29.4491872397    71.7290966669    11.9034801301

 Total number of active Bq charges                    41
 frozen_density,esp T T
 disabling frozen_density,esp due to active qm atoms
         6
   
  C             0.888788        1.680980       -0.102682        17
  H             1.898531        1.228816       -0.111523        18
  H             0.741991        2.104066       -1.118220        19
  O             0.947279        2.695023        0.887441        20
  H             0.028419        2.991989        1.048512        21
  H_L           0.146612        0.874543        0.059908        15

                                 NWChem DFT Module
                                 -----------------



 Nuclear repulsion energy =   40.060508957024140     
 Bq nuclear interaction energy =  0.16718775291608745     
  Caching 1-el integrals 
 Nuclear repulsion energy =   40.060508957024140     
 Bq nuclear interaction energy =  0.16718775291608745     
 Nuclear repulsion energy =   40.060508957024140     
 Bq nuclear interaction energy =  0.16718775291608745     
   Time after variat. SCF:      3.0
   Time prior to 1st pass:      3.0
 Nuclear repulsion energy =   40.060508957024140     
 Bq nuclear interaction energy =  0.16718775291608745     
 Nuclear repulsion energy =   40.060508957024140     
 Bq nuclear interaction energy =  0.16718775291608745     
 Nuclear repulsion energy =   40.060508957024140     
 Bq nuclear interaction energy =  0.16718775291608745     
 Nuclear repulsion energy =   40.060508957024140     
 Bq nuclear interaction energy =  0.16718775291608745     
 Nuclear repulsion energy =   40.060508957024140     
 Bq nuclear interaction energy =  0.16718775291608745     
 Nuclear repulsion energy =   40.060508957024140     
 Bq nuclear interaction energy =  0.16718775291608745     
 Nuclear repulsion energy =   40.060508957024140     
 Bq nuclear interaction energy =  0.16718775291608745     


         Total DFT energy =     -114.783779616299
      One electron energy =     -236.670083955581
           Coulomb energy =       96.163343187990
    Exchange-Corr. energy =      -14.504735558649
 Nuclear repulsion energy =       40.227696709940

 Numeric. integr. density =       18.000000452912

     Total iterative time =      0.3s


 Nuclear repulsion energy =   40.060508957024140     
 Bq nuclear interaction energy =  0.16718775291608745     


                         DFT ENERGY GRADIENTS

    atom               coordinates                        gradient
                 x          y          z           x          y          z
   1 C       1.679566   3.176592  -0.194041   -0.013905  -0.014962   0.003800
   2 H       3.587703   2.322126  -0.210747    0.003635   0.003608   0.002844
   3 H       1.402159   3.976108  -2.113129   -0.000921  -0.000373   0.001503
   4 O       1.790099   5.092856   1.677020    0.008734   0.012053  -0.001234
   5 H       0.053704   5.654039   1.981401   -0.003547  -0.001305  -0.002167
   6 H_L     0.277057   1.652647   0.113210    0.017207   0.019585  -0.014108

 Bq nuclear interaction energy =  0.16718775291608745     
              Calculating forces on classical charges
              ---------------------------------------
 Total number of charges                   41
                              NWChem Property Module
                              ----------------------


 scftyp:RHF
 theory:dft                           
------------------------------------------------------------------------
 QM/MM Energy
------------------------------------------------------------------------
 quantum energy                      -114.783779616 (-.301365E+06  kjoule/mol)
 quantum energy adjusted             -114.783779616 (-.301365E+06  kjoule/mol)
 quantum energy internal             -114.772484308 (-.301335E+06  kjoule/mol)
 Bq-nuclear energy                      0.167187753 (0.438951E+03  kjoule/mol)
 Bq-electron energy                    -0.178483061 (-.468607E+03  kjoule/mol)
 classical energy                       0.750029470 (0.196920E+04  kjoule/mol)
 total qmmm energy                   -114.033750147 (-.299396E+06  kjoule/mol)
------------------------------------------------------------------------


  Step       Energy      Delta E   Gmax     Grms     Xrms     Xmax   Walltime
  ---- ---------------- -------- -------- -------- -------- -------- --------
@    3    -114.03375015 -3.7D-04  0.01291  0.00487  0.02322  0.05131      3.5
                                                                    

 Restricting large step in mode    1 eval= 1.1D-02 step=-3.5D-01 new=-3.0D-01
 Total number of active Bq charges                    41
 frozen_density,esp T T
 disabling frozen_density,esp due to active qm atoms
         6
   
  C             0.921038        1.649227       -0.134511        17
  H             1.903807        1.170381       -0.138259        18
  H             0.789983        2.047374       -1.182684        19
  O             0.988863        2.688701        0.807977        20
  H             0.090612        3.007458        1.060298        21
  H_L           0.144380        0.878032        0.047016        15

                                 NWChem DFT Module
                                 -----------------



 Nuclear repulsion energy =   40.157001473769512     
 Bq nuclear interaction energy =  0.15034666475968472     
  Caching 1-el integrals 
 Nuclear repulsion energy =   40.157001473769512     
 Bq nuclear interaction energy =  0.15034666475968472     
 Nuclear repulsion energy =   40.157001473769512     
 Bq nuclear interaction energy =  0.15034666475968472     
   Time after variat. SCF:      3.5
   Time prior to 1st pass:      3.5
 Nuclear repulsion energy =   40.157001473769512     
 Bq nuclear interaction energy =  0.15034666475968472     
 Nuclear repulsion energy =   40.157001473769512     
 Bq nuclear interaction energy =  0.15034666475968472     
 Nuclear repulsion energy =   40.157001473769512     
 Bq nuclear interaction energy =  0.15034666475968472     
 Nuclear repulsion energy =   40.157001473769512     
 Bq nuclear interaction energy =  0.15034666475968472     
 Nuclear repulsion energy =   40.157001473769512     
 Bq nuclear interaction energy =  0.15034666475968472     
 Nuclear repulsion energy =   40.157001473769512     
 Bq nuclear interaction energy =  0.15034666475968472     
 Nuclear repulsion energy =   40.157001473769512     
 Bq nuclear interaction energy =  0.15034666475968472     


         Total DFT energy =     -114.783044970920
      One electron energy =     -236.860060786294
           Coulomb energy =       96.275046704439
    Exchange-Corr. energy =      -14.505379027594
 Nuclear repulsion energy =       40.307348138529

 Numeric. integr. density =       17.999999640452

     Total iterative time =      0.3s


 Nuclear repulsion energy =   40.157001473769512     
 Bq nuclear interaction energy =  0.15034666475968472     
 Bq nuclear interaction energy =  0.15034666475968472     
------------------------------------------------------------------------
 QM/MM Energy
------------------------------------------------------------------------
 quantum energy                      -114.783044971 (-.301363E+06  kjoule/mol)
 quantum energy adjusted             -114.783044971 (-.301363E+06  kjoule/mol)
 quantum energy internal             -114.771737999 (-.301333E+06  kjoule/mol)
 Bq-nuclear energy                      0.150346665 (0.394735E+03  kjoule/mol)
 Bq-electron energy                    -0.161653637 (-.424422E+03  kjoule/mol)
 classical energy                       0.749628492 (0.196815E+04  kjoule/mol)
 total qmmm energy                   -114.033416479 (-.299395E+06  kjoule/mol)
------------------------------------------------------------------------

 Line search: 
     step= 1.00 grad=-2.3D-03 hess= 2.6D-03 energy=   -114.033416 mode=bracket 
 new step= 0.44                   predicted energy=   -114.034250

          --------
          Step   4
          --------


                         Geometry "geometry" -> "geometry"
                         ---------------------------------

 Output coordinates in angstroms (scale by  1.889725989 to convert to a.u.)

  No.       Tag          Charge          X              Y              Z
 ---- ---------------- ---------- -------------- -------------- --------------
    1 C                    6.0000     0.90286431     1.66712117    -0.11657436
    2 H                    1.0000     1.90083344     1.20331111    -0.12319221
    3 H                    1.0000     0.76293792     2.07932185    -1.14635641
    4 O                    8.0000     0.96542935     2.69226368     0.85275729
    5 H                    1.0000     0.05556421     2.99874035     1.05365636
    6 C                   -0.0249    -0.16515614     0.55138735     0.12440673

      Atomic Mass 
      ----------- 

      C                 12.000000
      H                  1.007825
      O                 15.994910


 Effective nuclear repulsion energy (a.u.)      34.3535114045

            Nuclear Dipole moment (a.u.) 
            ----------------------------
        X                 Y               Z
 ---------------- ---------------- ----------------
    29.9787427886    71.4476676624    11.1562282394

 Total number of active Bq charges                    41
 frozen_density,esp T T
 disabling frozen_density,esp due to active qm atoms
         6
   
  C             0.902864        1.667121       -0.116574        17
  H             1.900833        1.203311       -0.123192        18
  H             0.762938        2.079322       -1.146356        19
  O             0.965429        2.692264        0.852757        20
  H             0.055564        2.998740        1.053656        21
  H_L           0.145638        0.876066        0.054281        15

                                 NWChem DFT Module
                                 -----------------



 Nuclear repulsion energy =   40.112641140356857     
 Bq nuclear interaction energy =  0.15999953412585041     
  Caching 1-el integrals 
 Nuclear repulsion energy =   40.112641140356857     
 Bq nuclear interaction energy =  0.15999953412585041     
 Nuclear repulsion energy =   40.112641140356857     
 Bq nuclear interaction energy =  0.15999953412585041     
   Time after variat. SCF:      3.9
   Time prior to 1st pass:      3.9
 Nuclear repulsion energy =   40.112641140356857     
 Bq nuclear interaction energy =  0.15999953412585041     
 Nuclear repulsion energy =   40.112641140356857     
 Bq nuclear interaction energy =  0.15999953412585041     
 Nuclear repulsion energy =   40.112641140356857     
 Bq nuclear interaction energy =  0.15999953412585041     
 Nuclear repulsion energy =   40.112641140356857     
 Bq nuclear interaction energy =  0.15999953412585041     
 Nuclear repulsion energy =   40.112641140356857     
 Bq nuclear interaction energy =  0.15999953412585041     
 Nuclear repulsion energy =   40.112641140356857     
 Bq nuclear interaction energy =  0.15999953412585041     


         Total DFT energy =     -114.783740834910
      One electron energy =     -236.772182038492
           Coulomb energy =       96.221569964483
    Exchange-Corr. energy =      -14.505769435384
 Nuclear repulsion energy =       40.272640674483

 Numeric. integr. density =       17.999998885093

     Total iterative time =      0.3s


 Nuclear repulsion energy =   40.112641140356857     
 Bq nuclear interaction energy =  0.15999953412585041     


                         DFT ENERGY GRADIENTS

    atom               coordinates                        gradient
                 x          y          z           x          y          z
   1 C       1.706166   3.150402  -0.220294   -0.006612  -0.017173   0.010187
   2 H       3.592054   2.273928  -0.232800    0.000186   0.004935   0.001800
   3 H       1.441744   3.929349  -2.166300   -0.001124   0.001390  -0.002454
   4 O       1.824397   5.087641   1.611478    0.006902   0.008276  -0.006053
   5 H       0.105001   5.666798   1.991122   -0.004587   0.001431   0.000803
   6 H_L     0.275216   1.655524   0.102577    0.017046   0.019449  -0.013798

 Bq nuclear interaction energy =  0.15999953412585041     
              Calculating forces on classical charges
              ---------------------------------------
 Total number of charges                   41
                              NWChem Property Module
                              ----------------------


 scftyp:RHF
 theory:dft                           
------------------------------------------------------------------------
 QM/MM Energy
------------------------------------------------------------------------
 quantum energy                      -114.783740835 (-.301365E+06  kjoule/mol)
 quantum energy adjusted             -114.783740835 (-.301365E+06  kjoule/mol)
 quantum energy internal             -114.772415995 (-.301335E+06  kjoule/mol)
 Bq-nuclear energy                      0.159999534 (0.420079E+03  kjoule/mol)
 Bq-electron energy                    -0.171324374 (-.449812E+03  kjoule/mol)
 classical energy                       0.749494905 (0.196780E+04  kjoule/mol)
 total qmmm energy                   -114.034245930 (-.299397E+06  kjoule/mol)
------------------------------------------------------------------------


  Step       Energy      Delta E   Gmax     Grms     Xrms     Xmax   Walltime
  ---- ---------------- -------- -------- -------- -------- -------- --------
@    4    -114.03424593 -5.0D-04  0.00674  0.00379  0.03358  0.06554      4.4
                                                                    

 Total number of active Bq charges                    41
 frozen_density,esp T T
 disabling frozen_density,esp due to active qm atoms
         6
   
  C             0.928047        1.645314       -0.120571        17
  H             1.912800        1.160625       -0.143045        18
  H             0.786581        2.084031       -1.134339        19
  O             1.008629        2.641184        0.881315        20
  H             0.111805        2.998852        1.064288        21
  H_L           0.155936        0.868796        0.054153        15

                                 NWChem DFT Module
                                 -----------------



 Nuclear repulsion energy =   40.083933431241427     
 Bq nuclear interaction energy =  0.16272240622566142     
  Caching 1-el integrals 
 Nuclear repulsion energy =   40.083933431241427     
 Bq nuclear interaction energy =  0.16272240622566142     
 Nuclear repulsion energy =   40.083933431241427     
 Bq nuclear interaction energy =  0.16272240622566142     
   Time after variat. SCF:      4.4
   Time prior to 1st pass:      4.4
 Nuclear repulsion energy =   40.083933431241427     
 Bq nuclear interaction energy =  0.16272240622566142     
 Nuclear repulsion energy =   40.083933431241427     
 Bq nuclear interaction energy =  0.16272240622566142     
 Nuclear repulsion energy =   40.083933431241427     
 Bq nuclear interaction energy =  0.16272240622566142     
 Nuclear repulsion energy =   40.083933431241427     
 Bq nuclear interaction energy =  0.16272240622566142     
 Nuclear repulsion energy =   40.083933431241427     
 Bq nuclear interaction energy =  0.16272240622566142     
 Nuclear repulsion energy =   40.083933431241427     
 Bq nuclear interaction energy =  0.16272240622566142     
 Nuclear repulsion energy =   40.083933431241427     
 Bq nuclear interaction energy =  0.16272240622566142     


         Total DFT energy =     -114.784910972224
      One electron energy =     -236.731560556629
           Coulomb energy =       96.206251735575
    Exchange-Corr. energy =      -14.506257988638
 Nuclear repulsion energy =       40.246655837467

 Numeric. integr. density =       18.000003064967

     Total iterative time =      0.3s


 Nuclear repulsion energy =   40.083933431241427     
 Bq nuclear interaction energy =  0.16272240622566142     
 Bq nuclear interaction energy =  0.16272240622566142     
------------------------------------------------------------------------
 QM/MM Energy
------------------------------------------------------------------------
 quantum energy                      -114.784910972 (-.301368E+06  kjoule/mol)
 quantum energy adjusted             -114.784910972 (-.301368E+06  kjoule/mol)
 quantum energy internal             -114.772610908 (-.301335E+06  kjoule/mol)
 Bq-nuclear energy                      0.162722406 (0.427228E+03  kjoule/mol)
 Bq-electron energy                    -0.175022471 (-.459521E+03  kjoule/mol)
 classical energy                       0.749770669 (0.196852E+04  kjoule/mol)
 total qmmm energy                   -114.035140303 (-.299399E+06  kjoule/mol)
------------------------------------------------------------------------

 Line search: 
     step= 1.00 grad=-1.2D-03 hess= 2.7D-04 energy=   -114.035140 mode=downhill
 new step= 2.15                   predicted energy=   -114.035497

          --------
          Step   5
          --------


                         Geometry "geometry" -> "geometry"
                         ---------------------------------

 Output coordinates in angstroms (scale by  1.889725989 to convert to a.u.)

  No.       Tag          Charge          X              Y              Z
 ---- ---------------- ---------- -------------- -------------- --------------
    1 C                    6.0000     0.95690935     1.62032015    -0.12515066
    2 H                    1.0000     1.92651523     1.11170128    -0.16579923
    3 H                    1.0000     0.81368037     2.08942775    -1.12056591
    4 O                    8.0000     1.05814212     2.58263821     0.91404570
    5 H                    1.0000     0.17626467     2.99897999     1.07647337
    6 C                   -0.0249    -0.15616502     0.54859100     0.12753900

      Atomic Mass 
      ----------- 

      C                 12.000000
      H                  1.007825
      O                 15.994910


 Effective nuclear repulsion energy (a.u.)      34.2202345539

            Nuclear Dipole moment (a.u.) 
            ----------------------------
        X                 Y               Z
 ---------------- ---------------- ----------------
    32.3652270191    69.1062884948    11.9967253356

 Total number of active Bq charges                    41
 frozen_density,esp T T
 disabling frozen_density,esp due to active qm atoms
         6
   
  C             0.956909        1.620320       -0.125151        17
  H             1.926515        1.111701       -0.165799        18
  H             0.813680        2.089428       -1.120566        19
  O             1.058142        2.582638        0.914046        20
  H             0.176265        2.998980        1.076473        21
  H_L           0.167740        0.860464        0.054006        15

                                 NWChem DFT Module
                                 -----------------



 Nuclear repulsion energy =   39.996023986283554     
 Bq nuclear interaction energy =  0.16654493031209783     
  Caching 1-el integrals 
 Nuclear repulsion energy =   39.996023986283554     
 Bq nuclear interaction energy =  0.16654493031209783     
 Nuclear repulsion energy =   39.996023986283554     
 Bq nuclear interaction energy =  0.16654493031209783     
   Time after variat. SCF:      4.8
   Time prior to 1st pass:      4.8
 Nuclear repulsion energy =   39.996023986283554     
 Bq nuclear interaction energy =  0.16654493031209783     
 Nuclear repulsion energy =   39.996023986283554     
 Bq nuclear interaction energy =  0.16654493031209783     
 Nuclear repulsion energy =   39.996023986283554     
 Bq nuclear interaction energy =  0.16654493031209783     
 Nuclear repulsion energy =   39.996023986283554     
 Bq nuclear interaction energy =  0.16654493031209783     
 Nuclear repulsion energy =   39.996023986283554     
 Bq nuclear interaction energy =  0.16654493031209783     
 Nuclear repulsion energy =   39.996023986283554     
 Bq nuclear interaction energy =  0.16654493031209783     


         Total DFT energy =     -114.785960110107
      One electron energy =     -236.582237502825
           Coulomb energy =       96.137188743796
    Exchange-Corr. energy =      -14.503480267674
 Nuclear repulsion energy =       40.162568916596

 Numeric. integr. density =       18.000002458585

     Total iterative time =      0.3s


 Nuclear repulsion energy =   39.996023986283554     
 Bq nuclear interaction energy =  0.16654493031209783     


                         DFT ENERGY GRADIENTS

    atom               coordinates                        gradient
                 x          y          z           x          y          z
   1 C       1.808296   3.061961  -0.236500    0.000965  -0.017859  -0.002906
   2 H       3.640586   2.100811  -0.313315   -0.002699   0.004826   0.001347
   3 H       1.537633   3.948446  -2.117563   -0.000530  -0.000081   0.001133
   4 O       1.999599   4.880479   1.727296    0.007300   0.005318  -0.003271
   5 H       0.333092   5.667250   2.034240   -0.009694   0.006500   0.003702
   6 H_L     0.316982   1.626042   0.102057    0.017007   0.019369  -0.009275

 Bq nuclear interaction energy =  0.16654493031209783     
              Calculating forces on classical charges
              ---------------------------------------
 Total number of charges                   41
                              NWChem Property Module
                              ----------------------


 scftyp:RHF
 theory:dft                           
------------------------------------------------------------------------
 QM/MM Energy
------------------------------------------------------------------------
 quantum energy                      -114.785960110 (-.301371E+06  kjoule/mol)
 quantum energy adjusted             -114.785960110 (-.301371E+06  kjoule/mol)
 quantum energy internal             -114.772508299 (-.301335E+06  kjoule/mol)
 Bq-nuclear energy                      0.166544930 (0.437264E+03  kjoule/mol)
 Bq-electron energy                    -0.179996741 (-.472581E+03  kjoule/mol)
 classical energy                       0.750472697 (0.197037E+04  kjoule/mol)
 total qmmm energy                   -114.035487413 (-.299400E+06  kjoule/mol)
------------------------------------------------------------------------


  Step       Energy      Delta E   Gmax     Grms     Xrms     Xmax   Walltime
  ---- ---------------- -------- -------- -------- -------- -------- --------
@    5    -114.03548741 -1.2D-03  0.01605  0.00625  0.10815  0.22809      5.3
                                                                    


 ---------------------------------------------------------------
 Failed to converge in maximum number of steps or available time
 ---------------------------------------------------------------


  Step       Energy      Delta E   Gmax     Grms     Xrms     Xmax   Walltime
  ---- ---------------- -------- -------- -------- -------- -------- --------
@    5    -114.03548741 -1.2D-03  0.01605  0.00625  0.10815  0.22809      5.3
                                                                    



                         Geometry "geometry" -> "geometry"
                         ---------------------------------

 Output coordinates in angstroms (scale by  1.889725989 to convert to a.u.)

  No.       Tag          Charge          X              Y              Z
 ---- ---------------- ---------- -------------- -------------- --------------
    1 C                    6.0000     0.95690935     1.62032015    -0.12515066
    2 H                    1.0000     1.92651523     1.11170128    -0.16579923
    3 H                    1.0000     0.81368037     2.08942775    -1.12056591
    4 O                    8.0000     1.05814212     2.58263821     0.91404570
    5 H                    1.0000     0.17626467     2.99897999     1.07647337
    6 C                   -0.0249    -0.15616502     0.54859100     0.12753900

      Atomic Mass 
      ----------- 

      C                 12.000000
      H                  1.007825
      O                 15.994910


 Effective nuclear repulsion energy (a.u.)      34.2202345539

            Nuclear Dipole moment (a.u.) 
            ----------------------------
        X                 Y               Z
 ---------------- ---------------- ----------------
    32.3652270191    69.1062884948    11.9967253356

 ==============================================================================
                                internuclear distances
 ------------------------------------------------------------------------------
       center one      |      center two      | atomic units |  angstroms
 ------------------------------------------------------------------------------
    2 H                |   1 C                |     2.07051  |     1.09566
    3 H                |   1 C                |     2.09702  |     1.10970
    4 O                |   1 C                |     2.68330  |     1.41994
    5 H                |   4 O                |     1.86828  |     0.98865
    6 C                |   1 C                |     2.95873  |     1.56569
 ------------------------------------------------------------------------------
                         number of included internuclear distances:          5
 ==============================================================================



 ==============================================================================
                                 internuclear angles
 ------------------------------------------------------------------------------
        center 1       |       center 2       |       center 3       |  degrees
 ------------------------------------------------------------------------------
    2 H                |   1 C                |   3 H                |   106.09
    2 H                |   1 C                |   4 O                |   106.18
    2 H                |   1 C                |   6 C                |   108.50
    3 H                |   1 C                |   4 O                |   112.28
    3 H                |   1 C                |   6 C                |   110.02
    4 O                |   1 C                |   6 C                |   113.36
    1 C                |   4 O                |   5 H                |   110.00
 ------------------------------------------------------------------------------
                            number of included internuclear angles:          7
 ==============================================================================



@
@ Optimizing mm_solute  region with lbfgs 
@ and esp fitted charges for the qm region
@
RUNNING THE L-BFGS-B CODE

           * * *

Machine precision = 1.110D-16
 N =                    84     M =                     5
 This problem is unconstrained.

At X0         0 variables are exactly at the bounds
 Total number of active Bq charges                    28
 frozen_density,esp T T
         6
   
  C             0.956909        1.620320       -0.125151        17
  H             1.926515        1.111701       -0.165799        18
  H             0.813680        2.089428       -1.120566        19
  O             1.058142        2.582638        0.914046        20
  H             0.176265        2.998980        1.076473        21
  H_L           0.167740        0.860464        0.054006        15
 redoing esp charges


                     NWChem Electrostatic Potential Fit Module
                     -----------------------------------------


 Atom parameters

 Number of atoms is                                    6
 Number of basis functions is                         38


 Grid parameters

 Maximum number of grid points is                   1779
 Number of grid points is                           1778
 Grid range                                     0.300000 nm
 Grid spacing                                   0.050000 nm
 Probe radius                                   0.070000 nm
 Atom radius factor                             1.000000

 Atomic radii

    1    0.100000
    6    0.147000
    8    0.136000
 FASTESP  F
  using M.O. file = ./asa.movecs


    Atom              Coordinates                           Charge

                                                  ESP   
                                                        
 
    1 C     0.095691    0.162032   -0.012515    0.155089
    2 H     0.192652    0.111170   -0.016580    0.077039
    3 H     0.081368    0.208943   -0.112057    0.029973
    4 O     0.105814    0.258264    0.091405   -0.614458
    5 H     0.017626    0.299898    0.107647    0.393994
    6 H_    0.016774    0.086046    0.005401   -0.041638
                                            ------------
                                               -0.000000

 Dipole moment                                  0.640846

 Quadrupole moment Qxx                         -0.470806
                   Qyy                          0.109534
                   Qzz                          0.361273

 RMS deviation kJ/mol                           0.265391

 ABS deviation %                              100.758134
   1.8082964579947853        3.0619610917243123      -0.23650046358128407       0.15508913957417292     
   3.6405858892297611        2.1008107967051064      -0.31331511856646499        7.7038809985165879E-002
   1.5376329361309142        3.9484459195429382       -2.1175625270020597        2.9972899709862610E-002
   1.9995986622811588        4.8804785385469698        1.7272959133416388      -0.61445761190817838     
  0.33309193101763424        5.6672504179986687        2.0342396986903415       0.39399438333721803     
  0.31698191973374157        1.6260415283894776       0.10205712483431761       -4.1637620698241173E-002
 using old esp charges
 using old esp charges
------------------------------------------------------------------------
 QM/MM Energy
------------------------------------------------------------------------
 quantum energy                        -0.005843437 (-.153419E+02  kjoule/mol)
 quantum energy adjusted               -0.005843437 (-.153419E+02  kjoule/mol)
 quantum energy internal                0.174153305 (0.457239E+03  kjoule/mol)
 Bq-nuclear energy                      0.000000000 (0.000000E+00  kjoule/mol)
 Bq-electron energy                    -0.179996741 (-.472581E+03  kjoule/mol)
 classical energy                       0.750472697 (0.197037E+04  kjoule/mol)
 total qmmm energy                      0.744629261 (0.195502E+04  kjoule/mol)
------------------------------------------------------------------------


At iterate    0    f=  7.44629D-01    |proj g|=  9.53267D-02
 Total number of active Bq charges                    28
 frozen_density,esp T T
         6
   
  C             0.956909        1.620320       -0.125151        17
  H             1.926515        1.111701       -0.165799        18
  H             0.813680        2.089428       -1.120566        19
  O             1.058142        2.582638        0.914046        20
  H             0.176265        2.998980        1.076473        21
  H_L           0.167740        0.860464        0.054006        15
 using old esp charges
 using old esp charges
------------------------------------------------------------------------
 QM/MM Energy
------------------------------------------------------------------------
 quantum energy                        -0.007170286 (-.188256E+02  kjoule/mol)
 quantum energy adjusted               -0.007170286 (-.188256E+02  kjoule/mol)
 quantum energy internal                0.172826455 (0.453756E+03  kjoule/mol)
 Bq-nuclear energy                      0.000000000 (0.000000E+00  kjoule/mol)
 Bq-electron energy                    -0.179996741 (-.472581E+03  kjoule/mol)
 classical energy                       0.986808626 (0.259087E+04  kjoule/mol)
 total qmmm energy                      0.979638340 (0.257204E+04  kjoule/mol)
------------------------------------------------------------------------

 Total number of active Bq charges                    28
 frozen_density,esp T T
         6
   
  C             0.956909        1.620320       -0.125151        17
  H             1.926515        1.111701       -0.165799        18
  H             0.813680        2.089428       -1.120566        19
  O             1.058142        2.582638        0.914046        20
  H             0.176265        2.998980        1.076473        21
  H_L           0.167740        0.860464        0.054006        15
 using old esp charges
 using old esp charges
------------------------------------------------------------------------
 QM/MM Energy
------------------------------------------------------------------------
 quantum energy                        -0.006118129 (-.160631E+02  kjoule/mol)
 quantum energy adjusted               -0.006118129 (-.160631E+02  kjoule/mol)
 quantum energy internal                0.173878613 (0.456518E+03  kjoule/mol)
 Bq-nuclear energy                      0.000000000 (0.000000E+00  kjoule/mol)
 Bq-electron energy                    -0.179996741 (-.472581E+03  kjoule/mol)
 classical energy                       0.732456832 (0.192307E+04  kjoule/mol)
 total qmmm energy                      0.726338703 (0.190700E+04  kjoule/mol)
------------------------------------------------------------------------


At iterate    1    f=  7.26339D-01    |proj g|=  7.12504D-02

@ Step       Energy      Delta E   Gmax     Grms     Xrms     Xmax   Walltime
@ ---- ---------------- -------- -------- -------- -------- -------- --------
@    1       0.72633870  7.3D-01  0.07125  0.01112  0.02295  0.11431      5.3
                                                                    

 Total number of active Bq charges                    28
 frozen_density,esp T T
         6
   
  C             0.956909        1.620320       -0.125151        17
  H             1.926515        1.111701       -0.165799        18
  H             0.813680        2.089428       -1.120566        19
  O             1.058142        2.582638        0.914046        20
  H             0.176265        2.998980        1.076473        21
  H_L           0.167740        0.860464        0.054006        15
 using old esp charges
 using old esp charges
------------------------------------------------------------------------
 QM/MM Energy
------------------------------------------------------------------------
 quantum energy                        -0.006117928 (-.160626E+02  kjoule/mol)
 quantum energy adjusted               -0.006117928 (-.160626E+02  kjoule/mol)
 quantum energy internal                0.173878813 (0.456519E+03  kjoule/mol)
 Bq-nuclear energy                      0.000000000 (0.000000E+00  kjoule/mol)
 Bq-electron energy                    -0.179996741 (-.472581E+03  kjoule/mol)
 classical energy                       0.725389754 (0.190451E+04  kjoule/mol)
 total qmmm energy                      0.719271826 (0.188845E+04  kjoule/mol)
------------------------------------------------------------------------


At iterate    2    f=  7.19272D-01    |proj g|=  3.00192D-02

  Step       Energy      Delta E   Gmax     Grms     Xrms     Xmax   Walltime
  ---- ---------------- -------- -------- -------- -------- -------- --------
@    2       0.71927183 -7.1D-03  0.03002  0.00706  0.01140  0.06136      5.3
                                                                    

 Total number of active Bq charges                    28
 frozen_density,esp T T
         6
   
  C             0.956909        1.620320       -0.125151        17
  H             1.926515        1.111701       -0.165799        18
  H             0.813680        2.089428       -1.120566        19
  O             1.058142        2.582638        0.914046        20
  H             0.176265        2.998980        1.076473        21
  H_L           0.167740        0.860464        0.054006        15
 using old esp charges
 using old esp charges
------------------------------------------------------------------------
 QM/MM Energy
------------------------------------------------------------------------
 quantum energy                        -0.006080779 (-.159651E+02  kjoule/mol)
 quantum energy adjusted               -0.006080779 (-.159651E+02  kjoule/mol)
 quantum energy internal                0.173915963 (0.456616E+03  kjoule/mol)
 Bq-nuclear energy                      0.000000000 (0.000000E+00  kjoule/mol)
 Bq-electron energy                    -0.179996741 (-.472581E+03  kjoule/mol)
 classical energy                       0.717697306 (0.188431E+04  kjoule/mol)
 total qmmm energy                      0.711616527 (0.186835E+04  kjoule/mol)
------------------------------------------------------------------------


At iterate    3    f=  7.11617D-01    |proj g|=  1.31680D-02

  Step       Energy      Delta E   Gmax     Grms     Xrms     Xmax   Walltime
  ---- ---------------- -------- -------- -------- -------- -------- --------
@    3       0.71161653 -7.7D-03  0.01317  0.00424  0.02429  0.11166      5.4
                                                                    

 Total number of active Bq charges                    28
 frozen_density,esp T T
         6
   
  C             0.956909        1.620320       -0.125151        17
  H             1.926515        1.111701       -0.165799        18
  H             0.813680        2.089428       -1.120566        19
  O             1.058142        2.582638        0.914046        20
  H             0.176265        2.998980        1.076473        21
  H_L           0.167740        0.860464        0.054006        15
 using old esp charges
 using old esp charges
------------------------------------------------------------------------
 QM/MM Energy
------------------------------------------------------------------------
 quantum energy                        -0.006150735 (-.161488E+02  kjoule/mol)
 quantum energy adjusted               -0.006150735 (-.161488E+02  kjoule/mol)
 quantum energy internal                0.173846007 (0.456433E+03  kjoule/mol)
 Bq-nuclear energy                      0.000000000 (0.000000E+00  kjoule/mol)
 Bq-electron energy                    -0.179996741 (-.472581E+03  kjoule/mol)
 classical energy                       0.714866039 (0.187688E+04  kjoule/mol)
 total qmmm energy                      0.708715304 (0.186073E+04  kjoule/mol)
------------------------------------------------------------------------


At iterate    4    f=  7.08715D-01    |proj g|=  2.85385D-02

  Step       Energy      Delta E   Gmax     Grms     Xrms     Xmax   Walltime
  ---- ---------------- -------- -------- -------- -------- -------- --------
@    4       0.70871530 -2.9D-03  0.02854  0.00609  0.01802  0.05744      5.4
                                                                    

 Total number of active Bq charges                    28
 frozen_density,esp T T
         6
   
  C             0.956909        1.620320       -0.125151        17
[...]
  H             0.934232        2.267990       -0.985844        19
  O             1.407939        2.426188        1.059509        20
  H             0.679636        3.067609        1.173048        21
  H_L           0.258579        0.960876        0.075940        15
 using old esp charges
 using old esp charges
------------------------------------------------------------------------
 QM/MM Energy
------------------------------------------------------------------------
 quantum energy                        -0.007462879 (-.195938E+02  kjoule/mol)
 quantum energy adjusted               -0.007462879 (-.195938E+02  kjoule/mol)
 quantum energy internal                0.206816913 (0.542998E+03  kjoule/mol)
 Bq-nuclear energy                      0.000000000 (0.000000E+00  kjoule/mol)
 Bq-electron energy                    -0.214279792 (-.562592E+03  kjoule/mol)
 classical energy                       0.682887877 (0.179292E+04  kjoule/mol)
 total qmmm energy                      0.675424998 (0.177333E+04  kjoule/mol)
------------------------------------------------------------------------


At iterate    3    f=  6.75425D-01    |proj g|=  6.54837D-03

  Step       Energy      Delta E   Gmax     Grms     Xrms     Xmax   Walltime
  ---- ---------------- -------- -------- -------- -------- -------- --------
@    3       0.67542500 -1.3D-03  0.00655  0.00212  0.01362  0.06162     15.3
                                                                    

 Total number of active Bq charges                    28
 frozen_density,esp T T
         6
   
  C             1.102753        1.651408       -0.077047        17
  H             2.002724        1.047376       -0.296682        18
  H             0.934232        2.267990       -0.985844        19
  O             1.407939        2.426188        1.059509        20
  H             0.679636        3.067609        1.173048        21
  H_L           0.258579        0.960876        0.075940        15
 using old esp charges
 using old esp charges
------------------------------------------------------------------------
 QM/MM Energy
------------------------------------------------------------------------
 quantum energy                        -0.007448145 (-.195551E+02  kjoule/mol)
 quantum energy adjusted               -0.007448145 (-.195551E+02  kjoule/mol)
 quantum energy internal                0.206831647 (0.543036E+03  kjoule/mol)
 Bq-nuclear energy                      0.000000000 (0.000000E+00  kjoule/mol)
 Bq-electron energy                    -0.214279792 (-.562592E+03  kjoule/mol)
 classical energy                       0.682239306 (0.179122E+04  kjoule/mol)
 total qmmm energy                      0.674791160 (0.177166E+04  kjoule/mol)
------------------------------------------------------------------------


At iterate    4    f=  6.74791D-01    |proj g|=  1.90187D-02

  Step       Energy      Delta E   Gmax     Grms     Xrms     Xmax   Walltime
  ---- ---------------- -------- -------- -------- -------- -------- --------
@    4       0.67479116 -6.3D-04  0.01902  0.00358  0.01024  0.03361     15.3
                                                                    

 Total number of active Bq charges                    28
 frozen_density,esp T T
         6
   
  C             1.102753        1.651408       -0.077047        17
  H             2.002724        1.047376       -0.296682        18
  H             0.934232        2.267990       -0.985844        19
  O             1.407939        2.426188        1.059509        20
  H             0.679636        3.067609        1.173048        21
  H_L           0.258579        0.960876        0.075940        15
 using old esp charges
 using old esp charges
------------------------------------------------------------------------
 QM/MM Energy
------------------------------------------------------------------------
 quantum energy                        -0.007448961 (-.195572E+02  kjoule/mol)
 quantum energy adjusted               -0.007448961 (-.195572E+02  kjoule/mol)
 quantum energy internal                0.206830831 (0.543034E+03  kjoule/mol)
 Bq-nuclear energy                      0.000000000 (0.000000E+00  kjoule/mol)
 Bq-electron energy                    -0.214279792 (-.562592E+03  kjoule/mol)
 classical energy                       0.681421476 (0.178907E+04  kjoule/mol)
 total qmmm energy                      0.673972515 (0.176951E+04  kjoule/mol)
------------------------------------------------------------------------


At iterate    5    f=  6.73973D-01    |proj g|=  1.55217D-02

  Step       Energy      Delta E   Gmax     Grms     Xrms     Xmax   Walltime
  ---- ---------------- -------- -------- -------- -------- -------- --------
@    5       0.67397251 -8.2D-04  0.01552  0.00321  0.00844  0.02881     15.3
                                                                    

@
@ Optimizing solvent    region with sd    
@ and esp fitted charges for the qm region
@

@ Step       Energy      Delta E   SGrms     WGrms     Xmax
@ ---- ---------------- -------- -------- -------- -------- 
 Total number of active Bq charges                    12
 frozen_density,esp T T
         6
   
  C             1.102753        1.651408       -0.077047        17
  H             2.002724        1.047376       -0.296682        18
  H             0.934232        2.267990       -0.985844        19
  O             1.407939        2.426188        1.059509        20
  H             0.679636        3.067609        1.173048        21
  H_L           0.258579        0.960876        0.075940        15
 using old esp charges
 using old esp charges
------------------------------------------------------------------------
 QM/MM Energy
------------------------------------------------------------------------
 quantum energy                         0.002717101 (0.713375E+01  kjoule/mol)
 quantum energy adjusted                0.002717101 (0.713375E+01  kjoule/mol)
 quantum energy internal                0.216996894 (0.569725E+03  kjoule/mol)
 Bq-nuclear energy                      0.000000000 (0.000000E+00  kjoule/mol)
 Bq-electron energy                    -0.214279792 (-.562592E+03  kjoule/mol)
 classical energy                       0.681938596 (0.179043E+04  kjoule/mol)
 total qmmm energy                      0.684655697 (0.179756E+04  kjoule/mol)
------------------------------------------------------------------------

 Total number of active Bq charges                    12
 frozen_density,esp T T
         6
   
  C             1.102753        1.651408       -0.077047        17
  H             2.002724        1.047376       -0.296682        18
  H             0.934232        2.267990       -0.985844        19
  O             1.407939        2.426188        1.059509        20
  H             0.679636        3.067609        1.173048        21
  H_L           0.258579        0.960876        0.075940        15
 using old esp charges
 using old esp charges
------------------------------------------------------------------------
 QM/MM Energy
------------------------------------------------------------------------
 quantum energy                         0.002710196 (0.711562E+01  kjoule/mol)
 quantum energy adjusted                0.002710196 (0.711562E+01  kjoule/mol)
 quantum energy internal                0.216989989 (0.569707E+03  kjoule/mol)
 Bq-nuclear energy                      0.000000000 (0.000000E+00  kjoule/mol)
 Bq-electron energy                    -0.214279792 (-.562592E+03  kjoule/mol)
 classical energy                       0.681675531 (0.178974E+04  kjoule/mol)
 total qmmm energy                      0.684385727 (0.179685E+04  kjoule/mol)
------------------------------------------------------------------------

@    1       0.68438573 -2.7D-04  0.00000  0.01880  0.02515
 Total number of active Bq charges                    12
 frozen_density,esp T T
         6
   
  C             1.102753        1.651408       -0.077047        17
  H             2.002724        1.047376       -0.296682        18
  H             0.934232        2.267990       -0.985844        19
  O             1.407939        2.426188        1.059509        20
  H             0.679636        3.067609        1.173048        21
  H_L           0.258579        0.960876        0.075940        15
 using old esp charges
 using old esp charges
------------------------------------------------------------------------
 QM/MM Energy
------------------------------------------------------------------------
 quantum energy                         0.002701082 (0.709169E+01  kjoule/mol)
 quantum energy adjusted                0.002701082 (0.709169E+01  kjoule/mol)
 quantum energy internal                0.216980874 (0.569683E+03  kjoule/mol)
 Bq-nuclear energy                      0.000000000 (0.000000E+00  kjoule/mol)
 Bq-electron energy                    -0.214279792 (-.562592E+03  kjoule/mol)
 classical energy                       0.681458414 (0.178917E+04  kjoule/mol)
 total qmmm energy                      0.684159496 (0.179626E+04  kjoule/mol)
------------------------------------------------------------------------

@    2       0.68415950 -2.3D-04  0.00000  0.01881  0.02903
 Total number of active Bq charges                    12
 frozen_density,esp T T
         6
   
  C             1.102753        1.651408       -0.077047        17
  H             2.002724        1.047376       -0.296682        18
  H             0.934232        2.267990       -0.985844        19
  O             1.407939        2.426188        1.059509        20
  H             0.679636        3.067609        1.173048        21
  H_L           0.258579        0.960876        0.075940        15
 using old esp charges
 using old esp charges
------------------------------------------------------------------------
 QM/MM Energy
------------------------------------------------------------------------
 quantum energy                         0.002687305 (0.705552E+01  kjoule/mol)
 quantum energy adjusted                0.002687305 (0.705552E+01  kjoule/mol)
 quantum energy internal                0.216967098 (0.569647E+03  kjoule/mol)
 Bq-nuclear energy                      0.000000000 (0.000000E+00  kjoule/mol)
 Bq-electron energy                    -0.214279792 (-.562592E+03  kjoule/mol)
 classical energy                       0.681230127 (0.178857E+04  kjoule/mol)
 total qmmm energy                      0.683917433 (0.179563E+04  kjoule/mol)
------------------------------------------------------------------------

@    3       0.68391743 -2.4D-04  0.00000  0.01883  0.03325
 Total number of active Bq charges                    12
 frozen_density,esp T T
         6
   
  C             1.102753        1.651408       -0.077047        17
  H             2.002724        1.047376       -0.296682        18
  H             0.934232        2.267990       -0.985844        19
  O             1.407939        2.426188        1.059509        20
  H             0.679636        3.067609        1.173048        21
  H_L           0.258579        0.960876        0.075940        15
 using old esp charges
 using old esp charges
------------------------------------------------------------------------
 QM/MM Energy
------------------------------------------------------------------------
 quantum energy                         0.002667467 (0.700343E+01  kjoule/mol)
 quantum energy adjusted                0.002667467 (0.700343E+01  kjoule/mol)
 quantum energy internal                0.216947259 (0.569595E+03  kjoule/mol)
 Bq-nuclear energy                      0.000000000 (0.000000E+00  kjoule/mol)
 Bq-electron energy                    -0.214279792 (-.562592E+03  kjoule/mol)
 classical energy                       0.680995814 (0.178795E+04  kjoule/mol)
 total qmmm energy                      0.683663280 (0.179496E+04  kjoule/mol)
------------------------------------------------------------------------

@    4       0.68366328 -2.5D-04  0.00000  0.01884  0.03770
 Total number of active Bq charges                    12
 frozen_density,esp T T
         6
   
  C             1.102753        1.651408       -0.077047        17
  H             2.002724        1.047376       -0.296682        18
  H             0.934232        2.267990       -0.985844        19
  O             1.407939        2.426188        1.059509        20
  H             0.679636        3.067609        1.173048        21
  H_L           0.258579        0.960876        0.075940        15
 using old esp charges
 using old esp charges
------------------------------------------------------------------------
 QM/MM Energy
------------------------------------------------------------------------
 quantum energy                         0.002640051 (0.693145E+01  kjoule/mol)
 quantum energy adjusted                0.002640051 (0.693145E+01  kjoule/mol)
 quantum energy internal                0.216919843 (0.569523E+03  kjoule/mol)
 Bq-nuclear energy                      0.000000000 (0.000000E+00  kjoule/mol)
 Bq-electron energy                    -0.214279792 (-.562592E+03  kjoule/mol)
 classical energy                       0.680682763 (0.178713E+04  kjoule/mol)
 total qmmm energy                      0.683322814 (0.179406E+04  kjoule/mol)
------------------------------------------------------------------------

@    5       0.68332281 -3.4D-04  0.00000  0.01889  0.04223
 Total number of active Bq charges                    41
 frozen_density,esp T T
 disabling frozen_density,esp due to active qm atoms
         6
   
  C             1.102753        1.651408       -0.077047        17
  H             2.002724        1.047376       -0.296682        18
  H             0.934232        2.267990       -0.985844        19
  O             1.407939        2.426188        1.059509        20
  H             0.679636        3.067609        1.173048        21
  H_L           0.258579        0.960876        0.075940        15

                                 NWChem DFT Module
                                 -----------------



 Nuclear repulsion energy =   40.248466811453937     
 Bq nuclear interaction energy =  0.18707531538987471     
  Caching 1-el integrals 
 Nuclear repulsion energy =   40.248466811453937     
 Bq nuclear interaction energy =  0.18707531538987471     
 Nuclear repulsion energy =   40.248466811453937     
 Bq nuclear interaction energy =  0.18707531538987471     
   Time after variat. SCF:     15.4
   Time prior to 1st pass:     15.4
 Nuclear repulsion energy =   40.248466811453937     
 Bq nuclear interaction energy =  0.18707531538987471     
 Nuclear repulsion energy =   40.248466811453937     
 Bq nuclear interaction energy =  0.18707531538987471     
 Nuclear repulsion energy =   40.248466811453937     
 Bq nuclear interaction energy =  0.18707531538987471     
 Nuclear repulsion energy =   40.248466811453937     
 Bq nuclear interaction energy =  0.18707531538987471     
 Nuclear repulsion energy =   40.248466811453937     
 Bq nuclear interaction energy =  0.18707531538987471     


         Total DFT energy =     -114.790086160366
      One electron energy =     -237.078290104170
           Coulomb energy =       96.367083796882
    Exchange-Corr. energy =      -14.514421979921
 Nuclear repulsion energy =       40.435542126844

 Numeric. integr. density =       17.999999194310

     Total iterative time =      0.3s


 Nuclear repulsion energy =   40.248466811453937     
 Bq nuclear interaction energy =  0.18707531538987471     
 Bq nuclear interaction energy =  0.18707531538987471     
@------------------------------------------------------------------------
@ QM/MM Energy
@------------------------------------------------------------------------
@ quantum energy                     -114.790086160 (-.301381E+06  kjoule/mol)
@ quantum energy adjusted            -114.790086160 (-.301381E+06  kjoule/mol)
@ quantum energy internal            -114.772848447 (-.301336E+06  kjoule/mol)
@ Bq-nuclear energy                     0.187075315 (0.491166E+03  kjoule/mol)
@ Bq-electron energy                   -0.204313029 (-.536424E+03  kjoule/mol)
@ classical energy                      0.680682763 (0.178713E+04  kjoule/mol)
@ total qmmm energy                  -114.109403397 (-.299594E+06  kjoule/mol)
@------------------------------------------------------------------------

@------------------------------------------------
@
@  OPTIMIZATION FINISHED 
@

 Task  times  cpu:       14.4s     wall:       15.6s


                                NWChem Input Module
                                -------------------


 Summary of allocated global arrays
-----------------------------------
  No active global arrays



                         GA Statistics for process    0
                         ------------------------------

       create   destroy   get      put      acc     scatter   gather  read&inc
calls: 4246     4246     2.43e+05 3.58e+04 7.12e+04    0        0     1.87e+04 
number of processes/call 1.11e+00 1.16e+00 1.08e+00 0.00e+00 0.00e+00
bytes total:             1.08e+08 1.77e+07 5.04e+07 0.00e+00 0.00e+00 1.49e+05
bytes remote:            4.73e+07 5.53e+06 1.75e+07 0.00e+00 0.00e+00 0.00e+00
Max memory consumed for GA by this process: 317504 bytes

MA_summarize_allocated_blocks: starting scan ...
MA_summarize_allocated_blocks: scan completed: 0 heap blocks, 0 stack blocks
MA usage statistics:

	allocation statistics:
					      heap	     stack
					      ----	     -----
	current number of blocks	         0	         0
	maximum number of blocks	        61	       137
	current total bytes		         0	         0
	maximum total bytes		 213007880	 393760728
	maximum total K-bytes		    213008	    393761
	maximum total M-bytes		       214	       394


                                     CITATION
                                     --------
                Please cite the following reference when publishing
                           results obtained with NWChem:

                 M. Valiev, E.J. Bylaska, N. Govind, K. Kowalski,
              T.P. Straatsma, H.J.J. van Dam, D. Wang, J. Nieplocha,
                        E. Apra, T.L. Windus, W.A. de Jong
                 "NWChem: a comprehensive and scalable open-source
                  solution for large scale molecular simulations"
                      Comput. Phys. Commun. 181, 1477 (2010)
                           doi:10.1016/j.cpc.2010.04.018

                                      AUTHORS
                                      -------
          E. Apra, E. J. Bylaska, W. A. de Jong, N. Govind, K. Kowalski,
       T. P. Straatsma, M. Valiev, H. J. J. van Dam, D. Wang, T. L. Windus,
        J. Hammond, J. Autschbach, K. Bhaskaran-Nair, J. Brabec, K. Lopata,
    S. A. Fischer, S. Krishnamoorthy, M. Jacquelin, W. Ma, M. Klemm, O. Villa,
      Y. Chen, V. Anisimov, F. Aquino, S. Hirata, M. T. Hackler, V. Konjkov,
            D. Mejia-Rodriguez, T. Risthaus, M. Malagoli, A. Marenich,
   A. Otero-de-la-Roza, J. Mullin, P. Nichols, R. Peverati, J. Pittner, Y. Zhao,
        P.-D. Fan, A. Fonari, M. J. Williamson, R. J. Harrison, J. R. Rehr,
      M. Dupuis, D. Silverstein, D. M. A. Smith, J. Nieplocha, V. Tipparaju,
    M. Krishnan, B. E. Van Kuiken, A. Vazquez-Mayagoitia, L. Jensen, M. Swart,
      Q. Wu, T. Van Voorhis, A. A. Auer, M. Nooijen, L. D. Crosby, E. Brown,
      G. Cisneros, G. I. Fann, H. Fruchtl, J. Garza, K. Hirao, R. A. Kendall,
      J. A. Nichols, K. Tsemekhman, K. Wolinski, J. Anchell, D. E. Bernholdt,
      P. Borowski, T. Clark, D. Clerc, H. Dachsel, M. J. O. Deegan, K. Dyall,
    D. Elwood, E. Glendening, M. Gutowski, A. C. Hess, J. Jaffe, B. G. Johnson,
     J. Ju, R. Kobayashi, R. Kutteh, Z. Lin, R. Littlefield, X. Long, B. Meng,
      T. Nakajima, S. Niu, L. Pollack, M. Rosing, K. Glaesemann, G. Sandrone,
      M. Stave, H. Taylor, G. Thomas, J. H. van Lenthe, A. T. Wong, Z. Zhang.

 Total times  cpu:       14.5s     wall:       15.6s
[0] ARMCI Warning: Freed 1 leaked allocations
