 argument  1 = /home/list1234/source/nwchem-6.8.1/QA/tests/bsse_dft_trimer/bsse_dft_trimer.nw



============================== echo of input deck ==============================
Title "FH-ClH-BrH-bsses"

Start FH-ClH-BrH-bsses

echo


geometry noautoz noautosym
F    -1.17122635    -1.50097392     0.00007449
H    -0.13324667    -1.35207024     0.00008831
Cl   -1.63851812     1.26560296     0.00006385
H    -1.62896618    -0.22316562     0.00001913
Br    1.53507290    -0.09220677     0.00019504
H     0.31497411     0.90841123     0.00012631
end


basis "ao basis"
  H    library    3-21g
  F    library    3-21g
  Cl   library    3-21g
  Br   library    3-21g
  bqH  library H  3-21g
  bqF  library F  3-21g
  bqCl library Cl 3-21g
  bqBr library Br 3-21g
END

dft
 direct
 iterations 100
end

driver
clear
end

bsse
 mon uno 1 2
 mon dos 3 4
 mon tres 5 6
end

task dft energy
dft
 grid fine
end
task dft freq
================================================================================


                                         
                                         


              Northwest Computational Chemistry Package (NWChem) 6.8
              ------------------------------------------------------


                    Environmental Molecular Sciences Laboratory
                       Pacific Northwest National Laboratory
                                Richland, WA 99352

                              Copyright (c) 1994-2017
                       Pacific Northwest National Laboratory
                            Battelle Memorial Institute

             NWChem is an open-source computational chemistry package
                        distributed under the terms of the
                      Educational Community License (ECL) 2.0
             A copy of the license is included with this distribution
                              in the LICENSE.TXT file

                                  ACKNOWLEDGMENT
                                  --------------

            This software and its documentation were developed at the
            EMSL at Pacific Northwest National Laboratory, a multiprogram
            national laboratory, operated for the U.S. Department of Energy
            by Battelle under Contract Number DE-AC05-76RL01830. Support
            for this work was provided by the Department of Energy Office
            of Biological and Environmental Research, Office of Basic
            Energy Sciences, and the Office of Advanced Scientific Computing.


           Job information
           ---------------

    hostname        = list1234-B360M-H
    program         = /home/list1234/source/nwchem-6.8.1/bin/LINUX64/nwchem
    date            = Sun Jun 30 23:10:46 2019

    compiled        = Sun_Jun_30_20:37:07_2019
    source          = /home/list1234/source/nwchem-6.8.1
    nwchem branch   = 6.8.1
    nwchem revision = v6.8-160-gc00cf755d
    ga revision     = 5.6.5
    use scalapack   = T
    input           = /home/list1234/source/nwchem-6.8.1/QA/tests/bsse_dft_trimer/bsse_dft_trimer.nw
    prefix          = FH-ClH-BrH-bsses.
    data base       = ./FH-ClH-BrH-bsses.db
    status          = startup
    nproc           =        4
    time left       =     -1s



           Memory information
           ------------------

    heap     =   86247168 doubles =    658.0 Mbytes
    stack    =   86247165 doubles =    658.0 Mbytes
    global   =  172494336 doubles =   1316.0 Mbytes (distinct from heap & stack)
    total    =  344988669 doubles =   2632.1 Mbytes
    verify   = yes
    hardfail = no 


           Directory information
           ---------------------

  0 permanent = .
  0 scratch   = .




                                NWChem Input Module
                                -------------------


                                 FH-ClH-BrH-bsses
                                 ----------------

 Scaling coordinates for geometry "geometry" by  1.889725989
 (inverse scale =  0.529177249)



                             Geometry "geometry" -> ""
                             -------------------------

 Output coordinates in angstroms (scale by  1.889725989 to convert to a.u.)

  No.       Tag          Charge          X              Y              Z
 ---- ---------------- ---------- -------------- -------------- --------------
    1 F                    9.0000    -1.38817116    -1.56523054    -0.00006326
    2 H                    1.0000    -0.35019148    -1.41632686    -0.00004944
    3 Cl                  17.0000    -1.85546293     1.20134634    -0.00007390
    4 H                    1.0000    -1.84591099    -0.28742224    -0.00011862
    5 Br                  35.0000     1.31812809    -0.15646339     0.00005729
    6 H                    1.0000     0.09802930     0.84415461    -0.00001144

      Atomic Mass 
      ----------- 

      F                 18.998400
      H                  1.007825
      Cl                34.968850
      Br                79.916500


 Effective nuclear repulsion energy (a.u.)     225.1832759732

            Nuclear Dipole moment (a.u.) 
            ----------------------------
        X                 Y               Z
 ---------------- ---------------- ----------------
    -0.0000000000     0.0000000000    -0.0000000000


            XYZ format geometry
            -------------------
     6
 geometry
 F                    -1.38817116    -1.56523054    -0.00006326
 H                    -0.35019148    -1.41632686    -0.00004944
 Cl                   -1.85546293     1.20134634    -0.00007390
 H                    -1.84591099    -0.28742224    -0.00011862
 Br                    1.31812809    -0.15646339     0.00005729
 H                     0.09802930     0.84415461    -0.00001144

 ==============================================================================
                                internuclear distances
 ------------------------------------------------------------------------------
       center one      |      center two      | atomic units |  angstroms
 ------------------------------------------------------------------------------
    6 H                |   5 Br               |     2.98186  |     1.57793
 ------------------------------------------------------------------------------
                         number of included internuclear distances:          1
 ==============================================================================



                      Basis "ao basis" -> "" (cartesian)
                      -----
  H (Hydrogen)
  ------------
            Exponent  Coefficients 
       -------------- ---------------------------------------------------------
  1 S  5.44717800E+00  0.156285
  1 S  8.24547000E-01  0.904691

  2 S  1.83192000E-01  1.000000

  F (Fluorine)
  ------------
            Exponent  Coefficients 
       -------------- ---------------------------------------------------------
  1 S  4.13801000E+02  0.058548
  1 S  6.22446000E+01  0.349308
  1 S  1.34340000E+01  0.709632

  2 S  9.77759000E+00 -0.407327
  2 S  2.08617000E+00  1.223140

  3 P  9.77759000E+00  0.246680
  3 P  2.08617000E+00  0.852321

  4 S  4.82383000E-01  1.000000

  5 P  4.82383000E-01  1.000000

  Cl (Chlorine)
  -------------
            Exponent  Coefficients 
       -------------- ---------------------------------------------------------
  1 S  1.37640000E+03  0.064583
  1 S  2.07857000E+02  0.380363
  1 S  4.51554000E+01  0.678190

  2 S  6.08014000E+01 -0.098764
  2 S  1.39765000E+01  0.051134
  2 S  3.88710000E+00  0.991337

  3 P  6.08014000E+01  0.108598
  3 P  1.39765000E+01  0.458682
  3 P  3.88710000E+00  0.601962

  4 S  1.35299000E+00 -0.222401
  4 S  5.26955000E-01  1.182520

  5 P  1.35299000E+00  0.219216
  5 P  5.26955000E-01  0.822321

  6 S  1.66714000E-01  1.000000

  7 P  1.66714000E-01  1.000000

  Br (Bromine)
  ------------
            Exponent  Coefficients 
       -------------- ---------------------------------------------------------
  1 S  6.10328990E+03  0.062418
  1 S  9.23697430E+02  0.372041
  1 S  2.02520310E+02  0.685873

  2 S  2.70601500E+02 -0.112149
  2 S  5.82535700E+01  0.093145
  2 S  1.84693300E+01  0.961679

  3 P  2.70601500E+02  0.147751
  3 P  5.82535700E+01  0.601056
  3 P  1.84693300E+01  0.412870

  4 S  1.97614200E+01 -0.293870
  4 S  6.82175200E+00  0.280266
  4 S  2.29162900E+00  0.902036

  5 P  1.97614200E+01  0.025007
  5 P  6.82175200E+00  0.486610
  5 P  2.29162900E+00  0.582423

  6 S  2.13120600E+00 -0.651803
  6 S  4.99354000E-01  1.336012

  7 P  2.13120600E+00  0.028708
  7 P  4.99354000E-01  0.984070

  8 S  1.64764000E-01  1.000000

  9 P  1.64764000E-01  1.000000

 10 D  3.39650970E+01  0.149667
 10 D  8.90083100E+00  0.511748
 10 D  2.42843600E+00  0.575915

  bqH
  ---
            Exponent  Coefficients 
       -------------- ---------------------------------------------------------
  1 S  5.44717800E+00  0.156285
  1 S  8.24547000E-01  0.904691

  2 S  1.83192000E-01  1.000000

  bqF
  ---
            Exponent  Coefficients 
       -------------- ---------------------------------------------------------
  1 S  4.13801000E+02  0.058548
  1 S  6.22446000E+01  0.349308
  1 S  1.34340000E+01  0.709632

  2 S  9.77759000E+00 -0.407327
  2 S  2.08617000E+00  1.223140

  3 P  9.77759000E+00  0.246680
  3 P  2.08617000E+00  0.852321

  4 S  4.82383000E-01  1.000000

  5 P  4.82383000E-01  1.000000

  bqCl
  ----
            Exponent  Coefficients 
       -------------- ---------------------------------------------------------
  1 S  1.37640000E+03  0.064583
  1 S  2.07857000E+02  0.380363
  1 S  4.51554000E+01  0.678190

  2 S  6.08014000E+01 -0.098764
  2 S  1.39765000E+01  0.051134
  2 S  3.88710000E+00  0.991337

  3 P  6.08014000E+01  0.108598
  3 P  1.39765000E+01  0.458682
  3 P  3.88710000E+00  0.601962

  4 S  1.35299000E+00 -0.222401
  4 S  5.26955000E-01  1.182520

  5 P  1.35299000E+00  0.219216
  5 P  5.26955000E-01  0.822321

  6 S  1.66714000E-01  1.000000

  7 P  1.66714000E-01  1.000000

  bqBr
  ----
            Exponent  Coefficients 
       -------------- ---------------------------------------------------------
  1 S  6.10328990E+03  0.062418
  1 S  9.23697430E+02  0.372041
  1 S  2.02520310E+02  0.685873

  2 S  2.70601500E+02 -0.112149
  2 S  5.82535700E+01  0.093145
  2 S  1.84693300E+01  0.961679

  3 P  2.70601500E+02  0.147751
  3 P  5.82535700E+01  0.601056
  3 P  1.84693300E+01  0.412870

  4 S  1.97614200E+01 -0.293870
  4 S  6.82175200E+00  0.280266
  4 S  2.29162900E+00  0.902036

  5 P  1.97614200E+01  0.025007
  5 P  6.82175200E+00  0.486610
  5 P  2.29162900E+00  0.582423

  6 S  2.13120600E+00 -0.651803
  6 S  4.99354000E-01  1.336012

  7 P  2.13120600E+00  0.028708
  7 P  4.99354000E-01  0.984070

  8 S  1.64764000E-01  1.000000

  9 P  1.64764000E-01  1.000000

 10 D  3.39650970E+01  0.149667
 10 D  8.90083100E+00  0.511748
 10 D  2.42843600E+00  0.575915



 Summary of "ao basis" -> "" (cartesian)
 ------------------------------------------------------------------------------
       Tag                 Description            Shells   Functions and Types
 ---------------- ------------------------------  ------  ---------------------
 H                           3-21g                   2        2   2s
 F                           3-21g                   5        9   3s2p
 Cl                          3-21g                   7       13   4s3p
 Br                          3-21g                  10       23   5s4p1d
 bqH                         3-21g                   2        2   2s
 bqF                         3-21g                   5        9   3s2p
 bqCl                        3-21g                   7       13   4s3p
 bqBr                        3-21g                  10       23   5s4p1d



  Deleted DRIVER restart files 



                     Input BSSE Module - Counter Poise Approach
                   --------------------------------------------


    supermolecule geometry name = geometry                                          
             number of monomers =    3
             total multiplicity =    1 to    1
                   total charge =    0

        atoms for each monomer  

              monomer     uno        :   1  2
              monomer     dos        :   3  4
              monomer     tres       :   5  6


                              BSSE Energy Correction
                              ----------------------



                                 NWChem DFT Module
                                 -----------------


                                 FH-ClH-BrH-bsses




 Summary of "ao basis" -> "ao basis" (cartesian)
 ------------------------------------------------------------------------------
       Tag                 Description            Shells   Functions and Types
 ---------------- ------------------------------  ------  ---------------------
 H                           3-21g                   2        2   2s
 F                           3-21g                   5        9   3s2p
 Cl                          3-21g                   7       13   4s3p
 Br                          3-21g                  10       23   5s4p1d
 bqH                         3-21g                   2        2   2s
 bqF                         3-21g                   5        9   3s2p
 bqCl                        3-21g                   7       13   4s3p
 bqBr                        3-21g                  10       23   5s4p1d


  Caching 1-el integrals 

            General Information
            -------------------
          SCF calculation type: DFT
          Wavefunction type:  closed shell.
          No. of atoms     :     6
          No. of electrons :    64
           Alpha electrons :    32
            Beta electrons :    32
          Charge           :     0
          Spin multiplicity:     1
          Use of symmetry is: off; symmetry adaption is: off
          Maximum number of iterations: 100
          This is a Direct SCF calculation.
          AO basis - number of functions:    51
                     number of shells:    28
          Convergence on energy requested:  1.00D-06
          Convergence on density requested:  1.00D-05
          Convergence on gradient requested:  5.00D-04

              XC Information
              --------------
                        Slater Exchange Functional  1.000 local    
                      VWN V Correlation Functional  1.000 local    

             Grid Information
             ----------------
          Grid used for XC integration:  medium    
          Radial quadrature: Mura-Knowles        
          Angular quadrature: Lebedev. 
          Tag              B.-S. Rad. Rad. Pts. Rad. Cut. Ang. Pts.
          ---              ---------- --------- --------- ---------
          F                   0.50       49           8.0       434
          H                   0.35       45           9.0       434
          Cl                  1.00       88          10.0       590
          Br                  1.15      112          10.0       590
          Grid pruning is: on 
          Number of quadrature shells:   384
          Spatial weights used:  Erf1

          Convergence Information
          -----------------------
          Convergence aids based upon iterative change in 
          total energy or number of iterations. 
          Levelshifting, if invoked, occurs when the 
          HOMO/LUMO gap drops below (HL_TOL):  1.00D-02
          DIIS, if invoked, will attempt to extrapolate 
          using up to (NFOCK): 10 stored Fock matrices.

                    Damping( 0%)  Levelshifting(0.5)       DIIS
                  --------------- ------------------- ---------------
          dE  on:    start            ASAP                start   
          dE off:    2 iters        100 iters           100 iters 


      Screening Tolerance Information
      -------------------------------
          Density screening/tol_rho:  1.00D-10
          AO Gaussian exp screening on grid/accAOfunc:  14
          CD Gaussian exp screening on grid/accCDfunc:  20
          XC Gaussian exp screening on grid/accXCfunc:  20
          Schwarz screening/accCoul:  1.00D-08


      Superposition of Atomic Density Guess
      -------------------------------------

 Sum of atomic energies:       -3117.67276120

      Non-variational initial energy
      ------------------------------

 Total energy =   -3117.750947
 1-e energy   =   -4792.732830
 2-e energy   =    1449.798607
 HOMO         =      -0.378174
 LUMO         =       0.103177

   Time after variat. SCF:      0.1
   Time prior to 1st pass:      0.1

 Grid_pts file          = ./FH-ClH-BrH-bsses.gridpts.0
 Record size in doubles =  12289        No. of grid_pts per rec  =   3070
 Max. records in memory =     22        Max. recs in file   =    863644


           Memory utilization after 1st SCF pass: 
           Heap Space remaining (MW):       85.97            85973736
          Stack Space remaining (MW):       86.25            86246724

   convergence    iter        energy       DeltaE   RMS-Dens  Diis-err    time
 ---------------- ----- ----------------- --------- --------- ---------  ------
 d= 0,ls=0.0,diis     1  -3115.0770756149 -3.34D+03  2.15D-02  1.35D+00     0.2
 d= 0,ls=0.0,diis     2  -3115.1033085366 -2.62D-02  1.35D-02  4.72D-01     0.2
 d= 0,ls=0.0,diis     3  -3115.1292475510 -2.59D-02  5.69D-03  3.07D-01     0.3
 d= 0,ls=0.0,diis     4  -3115.1507442772 -2.15D-02  2.21D-03  8.09D-03     0.3
 d= 0,ls=0.0,diis     5  -3115.1521110029 -1.37D-03  5.06D-04  8.87D-04     0.4
  Resetting Diis
 d= 0,ls=0.0,diis     6  -3115.1522093451 -9.83D-05  1.85D-04  3.97D-05     0.4
 d= 0,ls=0.0,diis     7  -3115.1522165130 -7.17D-06  1.03D-04  3.18D-06     0.5
 d= 0,ls=0.0,diis     8  -3115.1522156611  8.52D-07  6.34D-05  8.30D-06     0.6
 d= 0,ls=0.0,diis     9  -3115.1522170569 -1.40D-06  4.53D-06  5.91D-08     0.6
 d= 0,ls=0.0,diis    10  -3115.1522170621 -5.15D-09  1.45D-06  1.28D-08     0.7


         Total DFT energy =    -3115.152217062068
      One electron energy =    -4793.149838295027
           Coulomb energy =     1578.157698632064
    Exchange-Corr. energy =     -125.343353372319
 Nuclear repulsion energy =      225.183275973214

 Numeric. integr. density =       64.000001198870

     Total iterative time =      0.6s



                       DFT Final Molecular Orbital Analysis
                       ------------------------------------

 Vector    1  Occ=2.000000D+00  E=-4.768797D+02
              MO Center=  1.3D+00, -1.6D-01,  5.7D-05, r^2= 7.3D-04
   Bfn.  Coefficient  Atom+Function         Bfn.  Coefficient  Atom+Function  
  ----- ------------  ---------------      ----- ------------  ---------------
    27      0.983234  5 Br s                 28      0.056872  5 Br s          

 Vector    2  Occ=2.000000D+00  E=-9.958919D+01
              MO Center= -1.9D+00,  1.2D+00, -7.4D-05, r^2= 3.2D-03
   Bfn.  Coefficient  Atom+Function         Bfn.  Coefficient  Atom+Function  
  ----- ------------  ---------------      ----- ------------  ---------------
    12      0.985349  3 Cl s                 13      0.055065  3 Cl s          

 Vector    3  Occ=2.000000D+00  E=-6.133503D+01
              MO Center=  1.3D+00, -1.6D-01,  5.7D-05, r^2= 1.3D-02
   Bfn.  Coefficient  Atom+Function         Bfn.  Coefficient  Atom+Function  
  ----- ------------  ---------------      ----- ------------  ---------------
    28      1.019339  5 Br s                 27     -0.331270  5 Br s          
    32      0.095131  5 Br s          

 Vector    4  Occ=2.000000D+00  E=-5.507797D+01
              MO Center=  1.3D+00, -1.6D-01,  5.7D-05, r^2= 9.6D-03
   Bfn.  Coefficient  Atom+Function         Bfn.  Coefficient  Atom+Function  
  ----- ------------  ---------------      ----- ------------  ---------------
    29      0.747642  5 Br px                30     -0.631338  5 Br py         
    33      0.043604  5 Br px                34     -0.036734  5 Br py         

 Vector    5  Occ=2.000000D+00  E=-5.507548D+01
              MO Center=  1.3D+00, -1.6D-01,  5.7D-05, r^2= 9.6D-03
   Bfn.  Coefficient  Atom+Function         Bfn.  Coefficient  Atom+Function  
  ----- ------------  ---------------      ----- ------------  ---------------
    30      0.747672  5 Br py                29      0.631316  5 Br px         
    34      0.043505  5 Br py                33      0.036822  5 Br px         

 Vector    6  Occ=2.000000D+00  E=-5.507390D+01
              MO Center=  1.3D+00, -1.6D-01,  5.7D-05, r^2= 9.6D-03
   Bfn.  Coefficient  Atom+Function         Bfn.  Coefficient  Atom+Function  
  ----- ------------  ---------------      ----- ------------  ---------------
    31      0.978617  5 Br pz                35      0.056785  5 Br pz         

 Vector    7  Occ=2.000000D+00  E=-2.400236D+01
              MO Center= -1.4D+00, -1.6D+00, -6.3D-05, r^2= 1.2D-02
   Bfn.  Coefficient  Atom+Function         Bfn.  Coefficient  Atom+Function  
  ----- ------------  ---------------      ----- ------------  ---------------
     1      0.980152  1 F  s                  2      0.106099  1 F  s          
     6     -0.038116  1 F  s          

 Vector    8  Occ=2.000000D+00  E=-9.062155D+00
              MO Center= -1.9D+00,  1.2D+00, -7.4D-05, r^2= 6.7D-02
   Bfn.  Coefficient  Atom+Function         Bfn.  Coefficient  Atom+Function  
  ----- ------------  ---------------      ----- ------------  ---------------
    13      0.972408  3 Cl s                 12     -0.305567  3 Cl s          
    17      0.170239  3 Cl s                 21     -0.085357  3 Cl s          

 Vector    9  Occ=2.000000D+00  E=-8.311038D+00
              MO Center=  1.3D+00, -1.6D-01,  5.7D-05, r^2= 1.0D-01
   Bfn.  Coefficient  Atom+Function         Bfn.  Coefficient  Atom+Function  
  ----- ------------  ---------------      ----- ------------  ---------------
    32      1.085497  5 Br s                 28     -0.480688  5 Br s          
    27      0.132157  5 Br s                 36      0.053961  5 Br s          

 Vector   10  Occ=2.000000D+00  E=-6.934537D+00
              MO Center= -1.9D+00,  1.2D+00, -7.4D-05, r^2= 5.9D-02
   Bfn.  Coefficient  Atom+Function         Bfn.  Coefficient  Atom+Function  
  ----- ------------  ---------------      ----- ------------  ---------------
    15      0.968499  3 Cl py                19      0.094105  3 Cl py         
    14      0.036767  3 Cl px                23     -0.035607  3 Cl py         

 Vector   11  Occ=2.000000D+00  E=-6.928954D+00
              MO Center= -1.9D+00,  1.2D+00, -7.4D-05, r^2= 5.9D-02
   Bfn.  Coefficient  Atom+Function         Bfn.  Coefficient  Atom+Function  
  ----- ------------  ---------------      ----- ------------  ---------------
    14      0.968727  3 Cl px                18      0.093716  3 Cl px         
    15     -0.036503  3 Cl py                22     -0.033134  3 Cl px         

 Vector   12  Occ=2.000000D+00  E=-6.924709D+00
              MO Center= -1.9D+00,  1.2D+00, -7.4D-05, r^2= 5.9D-02
   Bfn.  Coefficient  Atom+Function         Bfn.  Coefficient  Atom+Function  
  ----- ------------  ---------------      ----- ------------  ---------------
    16      0.969927  3 Cl pz                20      0.091376  3 Cl pz         
    24     -0.027220  3 Cl pz         

 Vector   13  Occ=2.000000D+00  E=-6.171056D+00
              MO Center=  1.3D+00, -1.6D-01,  5.7D-05, r^2= 1.1D-01
   Bfn.  Coefficient  Atom+Function         Bfn.  Coefficient  Atom+Function  
  ----- ------------  ---------------      ----- ------------  ---------------
    33      0.790265  5 Br px                34     -0.696249  5 Br py         
    29     -0.326089  5 Br px                30      0.287287  5 Br py         
    37      0.035796  5 Br px                38     -0.031291  5 Br py         

 Vector   14  Occ=2.000000D+00  E=-6.161930D+00
              MO Center=  1.3D+00, -1.6D-01,  5.7D-05, r^2= 1.1D-01
   Bfn.  Coefficient  Atom+Function         Bfn.  Coefficient  Atom+Function  
  ----- ------------  ---------------      ----- ------------  ---------------
    34      0.790625  5 Br py                33      0.696364  5 Br px         
    30     -0.326194  5 Br py                29     -0.287312  5 Br px         
    38      0.035030  5 Br py                37      0.031145  5 Br px         

 Vector   15  Occ=2.000000D+00  E=-6.156857D+00
              MO Center=  1.3D+00, -1.6D-01,  5.7D-05, r^2= 1.1D-01
   Bfn.  Coefficient  Atom+Function         Bfn.  Coefficient  Atom+Function  
  ----- ------------  ---------------      ----- ------------  ---------------
    35      1.053871  5 Br pz                31     -0.434767  5 Br pz         
    39      0.045934  5 Br pz         

 Vector   16  Occ=2.000000D+00  E=-2.369736D+00
              MO Center=  1.3D+00, -1.6D-01,  5.7D-05, r^2= 1.1D-01
   Bfn.  Coefficient  Atom+Function         Bfn.  Coefficient  Atom+Function  
  ----- ------------  ---------------      ----- ------------  ---------------
    45      1.607283  5 Br dxy               49      0.349013  5 Br dzz        
    44     -0.281823  5 Br dxx               47     -0.063631  5 Br dyy        
    51     -0.055874  6 H  s                 40      0.032140  5 Br s          
    21      0.027075  3 Cl s          

 Vector   17  Occ=2.000000D+00  E=-2.366671D+00
              MO Center=  1.3D+00, -1.6D-01,  5.7D-05, r^2= 1.1D-01
   Bfn.  Coefficient  Atom+Function         Bfn.  Coefficient  Atom+Function  
  ----- ------------  ---------------      ----- ------------  ---------------
    44      0.863480  5 Br dxx               47     -0.851458  5 Br dyy        
    45      0.241245  5 Br dxy        

 Vector   18  Occ=2.000000D+00  E=-2.362989D+00
              MO Center=  1.3D+00, -1.6D-01,  5.7D-05, r^2= 1.1D-01
   Bfn.  Coefficient  Atom+Function         Bfn.  Coefficient  Atom+Function  
  ----- ------------  ---------------      ----- ------------  ---------------
    46      1.302353  5 Br dxz               48     -1.141851  5 Br dyz        

 Vector   19  Occ=2.000000D+00  E=-2.356500D+00
              MO Center=  1.3D+00, -1.6D-01,  5.7D-05, r^2= 1.1D-01
   Bfn.  Coefficient  Atom+Function         Bfn.  Coefficient  Atom+Function  
  ----- ------------  ---------------      ----- ------------  ---------------
    48      1.302372  5 Br dyz               46      1.141848  5 Br dxz        

 Vector   20  Occ=2.000000D+00  E=-2.356477D+00
              MO Center=  1.3D+00, -1.6D-01,  5.7D-05, r^2= 1.1D-01
   Bfn.  Coefficient  Atom+Function         Bfn.  Coefficient  Atom+Function  
  ----- ------------  ---------------      ----- ------------  ---------------
    49      0.938002  5 Br dzz               45     -0.594439  5 Br dxy        
    47     -0.520243  5 Br dyy               44     -0.415055  5 Br dxx        

 Vector   21  Occ=2.000000D+00  E=-1.112145D+00
              MO Center= -1.3D+00, -1.5D+00, -6.4D-05, r^2= 4.1D-01
   Bfn.  Coefficient  Atom+Function         Bfn.  Coefficient  Atom+Function  
  ----- ------------  ---------------      ----- ------------  ---------------
     6      0.758652  1 F  s                  1     -0.244740  1 F  s          
     2      0.228984  1 F  s                 10      0.087441  2 H  s          
     7      0.072264  1 F  px                 3      0.069305  1 F  px         
     8      0.047556  1 F  py                 4      0.042462  1 F  py         
    25      0.036941  4 H  s                 26      0.034824  4 H  s          

 Vector   22  Occ=2.000000D+00  E=-7.651663D-01
              MO Center= -1.3D+00,  7.8D-01, -5.9D-05, r^2= 2.1D+00
   Bfn.  Coefficient  Atom+Function         Bfn.  Coefficient  Atom+Function  
  ----- ------------  ---------------      ----- ------------  ---------------
    17      0.513533  3 Cl s                 21      0.422073  3 Cl s          
    13     -0.416478  3 Cl s                 40      0.222684  5 Br s          
    36      0.168533  5 Br s                 32     -0.148374  5 Br s          
    19     -0.096708  3 Cl py                25      0.092961  4 H  s          
     6     -0.083133  1 F  s                 12      0.072875  3 Cl s          

 Vector   23  Occ=2.000000D+00  E=-7.392654D-01
              MO Center=  6.0D-01,  8.0D-02,  2.3D-05, r^2= 2.5D+00
   Bfn.  Coefficient  Atom+Function         Bfn.  Coefficient  Atom+Function  
  ----- ------------  ---------------      ----- ------------  ---------------
    40      0.541227  5 Br s                 36      0.412605  5 Br s          
    32     -0.357580  5 Br s                 17     -0.240660  3 Cl s          
    21     -0.199523  3 Cl s                 13      0.194103  3 Cl s          
    28      0.138957  5 Br s                 50      0.075305  6 H  s          
    37     -0.068358  5 Br px                41     -0.056541  5 Br px         

 Vector   24  Occ=2.000000D+00  E=-5.223294D-01
              MO Center= -1.3D+00, -1.2D+00, -6.4D-05, r^2= 1.5D+00
   Bfn.  Coefficient  Atom+Function         Bfn.  Coefficient  Atom+Function  
  ----- ------------  ---------------      ----- ------------  ---------------
     3      0.407844  1 F  px                 7      0.389511  1 F  px         
    26     -0.246917  4 H  s                 11      0.221619  2 H  s          
    10      0.202648  2 H  s                 21      0.185397  3 Cl s          
     6     -0.171138  1 F  s                  4     -0.111741  1 F  py         
    25     -0.110105  4 H  s                  8     -0.101090  1 F  py         

 Vector   25  Occ=2.000000D+00  E=-4.521496D-01
              MO Center= -1.4D+00, -7.0D-01, -6.5D-05, r^2= 2.7D+00
   Bfn.  Coefficient  Atom+Function         Bfn.  Coefficient  Atom+Function  
  ----- ------------  ---------------      ----- ------------  ---------------
     8      0.360778  1 F  py                 4      0.343228  1 F  py         
     6     -0.275587  1 F  s                 19     -0.225313  3 Cl py         
    26      0.208583  4 H  s                 17     -0.178168  3 Cl s          
    25      0.167741  4 H  s                 21     -0.166471  3 Cl s          
     7      0.149601  1 F  px                23     -0.145966  3 Cl py         

 Vector   26  Occ=2.000000D+00  E=-4.203278D-01
              MO Center=  4.8D-01,  2.8D-01,  1.7D-05, r^2= 2.9D+00
   Bfn.  Coefficient  Atom+Function         Bfn.  Coefficient  Atom+Function  
  ----- ------------  ---------------      ----- ------------  ---------------
    51      0.370293  6 H  s                 40     -0.286914  5 Br s          
    37     -0.256561  5 Br px                38      0.248645  5 Br py         
    50      0.231508  6 H  s                 18      0.202155  3 Cl px         
    41     -0.180555  5 Br px                42      0.179993  5 Br py         
    33      0.173087  5 Br px                34     -0.166970  5 Br py         

 Vector   27  Occ=2.000000D+00  E=-3.604788D-01
              MO Center= -1.4D+00, -1.5D+00, -6.2D-05, r^2= 4.9D-01
   Bfn.  Coefficient  Atom+Function         Bfn.  Coefficient  Atom+Function  
  ----- ------------  ---------------      ----- ------------  ---------------
     9      0.602485  1 F  pz                 5      0.548929  1 F  pz         
    24      0.057589  3 Cl pz                43      0.044317  5 Br pz         
    20      0.036321  3 Cl pz         

 Vector   28  Occ=2.000000D+00  E=-3.349910D-01
              MO Center= -1.6D+00,  1.2D-01, -6.6D-05, r^2= 2.9D+00
   Bfn.  Coefficient  Atom+Function         Bfn.  Coefficient  Atom+Function  
  ----- ------------  ---------------      ----- ------------  ---------------
    19      0.474129  3 Cl py                 8      0.404744  1 F  py         
     4      0.364934  1 F  py                23      0.358533  3 Cl py         
    15     -0.220676  3 Cl py                25     -0.093600  4 H  s          
    17      0.079392  3 Cl s                 21      0.063386  3 Cl s          
    13     -0.059971  3 Cl s                 18      0.046301  3 Cl px         

 Vector   29  Occ=2.000000D+00  E=-3.028604D-01
              MO Center=  7.5D-01, -1.5D-01,  3.2D-05, r^2= 3.0D+00
   Bfn.  Coefficient  Atom+Function         Bfn.  Coefficient  Atom+Function  
  ----- ------------  ---------------      ----- ------------  ---------------
    42      0.445949  5 Br py                38      0.409028  5 Br py         
    34     -0.277735  5 Br py                41      0.270458  5 Br px         
    37      0.235146  5 Br px                 7      0.194917  1 F  px         
    18     -0.187117  3 Cl px                22     -0.167905  3 Cl px         
     3      0.165209  1 F  px                33     -0.161827  5 Br px         

 Vector   30  Occ=2.000000D+00  E=-2.917172D-01
              MO Center= -8.8D-01,  7.5D-01, -3.0D-05, r^2= 4.1D+00
   Bfn.  Coefficient  Atom+Function         Bfn.  Coefficient  Atom+Function  
  ----- ------------  ---------------      ----- ------------  ---------------
    18      0.512583  3 Cl px                22      0.432693  3 Cl px         
    41      0.347133  5 Br px                37      0.310476  5 Br px         
    14     -0.240927  3 Cl px                33     -0.208740  5 Br px         
    19     -0.073561  3 Cl py                23     -0.070317  3 Cl py         
     7      0.067374  1 F  px                29      0.067603  5 Br px         

 Vector   31  Occ=2.000000D+00  E=-2.892802D-01
              MO Center= -1.4D+00,  9.6D-01, -5.4D-05, r^2= 2.8D+00
   Bfn.  Coefficient  Atom+Function         Bfn.  Coefficient  Atom+Function  
  ----- ------------  ---------------      ----- ------------  ---------------
    20      0.553932  3 Cl pz                24      0.482029  3 Cl pz         
    16     -0.261705  3 Cl pz                43      0.245022  5 Br pz         
    39      0.198266  5 Br pz                35     -0.138349  5 Br pz         
     9     -0.063087  1 F  pz                 5     -0.062061  1 F  pz         
    31      0.044916  5 Br pz         

 Vector   32  Occ=2.000000D+00  E=-2.770253D-01
              MO Center=  8.1D-01,  6.0D-02,  3.5D-05, r^2= 3.0D+00
   Bfn.  Coefficient  Atom+Function         Bfn.  Coefficient  Atom+Function  
  ----- ------------  ---------------      ----- ------------  ---------------
    43      0.561156  5 Br pz                39      0.484128  5 Br pz         
    35     -0.331277  5 Br pz                20     -0.254419  3 Cl pz         
    24     -0.205900  3 Cl pz                16      0.118597  3 Cl pz         
    31      0.107409  5 Br pz         

 Vector   33  Occ=0.000000D+00  E=-4.130057D-02
              MO Center=  2.8D-01,  4.8D-01,  2.7D-06, r^2= 3.0D+00
   Bfn.  Coefficient  Atom+Function         Bfn.  Coefficient  Atom+Function  
  ----- ------------  ---------------      ----- ------------  ---------------
    51      1.183887  6 H  s                 42     -0.536529  5 Br py         
    41      0.524353  5 Br px                40     -0.429311  5 Br s          
    22     -0.335930  3 Cl px                50      0.287145  6 H  s          
    18     -0.255971  3 Cl px                38     -0.255602  5 Br py         
    37      0.199231  5 Br px                34      0.171129  5 Br py         

 Vector   34  Occ=0.000000D+00  E= 4.478351D-04
              MO Center= -7.7D-01, -6.6D-01, -6.4D-05, r^2= 3.2D+00
   Bfn.  Coefficient  Atom+Function         Bfn.  Coefficient  Atom+Function  
  ----- ------------  ---------------      ----- ------------  ---------------
    11      0.779999  2 H  s                 26      0.663992  4 H  s          
     6     -0.593278  1 F  s                 23      0.382804  3 Cl py         
    41      0.311325  5 Br px                19      0.259404  3 Cl py         
     7     -0.248722  1 F  px                51      0.248830  6 H  s          
    21     -0.216140  3 Cl s                  8     -0.212923  1 F  py         

 Vector   35  Occ=0.000000D+00  E= 5.984055D-02
              MO Center= -1.2D+00, -5.5D-01, -8.1D-05, r^2= 3.0D+00
   Bfn.  Coefficient  Atom+Function         Bfn.  Coefficient  Atom+Function  
  ----- ------------  ---------------      ----- ------------  ---------------
    26      1.047821  4 H  s                 11     -0.747527  2 H  s          
    23      0.524159  3 Cl py                 7      0.401623  1 F  px         
    21     -0.315887  3 Cl s                  3      0.287592  1 F  px         
    19      0.278298  3 Cl py                25      0.274247  4 H  s          
     8     -0.225698  1 F  py                17     -0.199359  3 Cl s          

 Vector   36  Occ=0.000000D+00  E= 4.866196D-01
              MO Center= -2.1D+00,  1.6D+00, -6.1D-05, r^2= 2.2D+00
   Bfn.  Coefficient  Atom+Function         Bfn.  Coefficient  Atom+Function  
  ----- ------------  ---------------      ----- ------------  ---------------
    17      1.399254  3 Cl s                 21     -1.367132  3 Cl s          
    19      0.601632  3 Cl py                23     -0.475139  3 Cl py         
    18     -0.451296  3 Cl px                22      0.451085  3 Cl px         
    13     -0.322520  3 Cl s                 40      0.314317  5 Br s          
    36     -0.297970  5 Br s                 15     -0.182597  3 Cl py         

 Vector   37  Occ=0.000000D+00  E= 5.020350D-01
              MO Center= -9.8D-01,  8.2D-01, -4.0D-05, r^2= 4.4D+00
   Bfn.  Coefficient  Atom+Function         Bfn.  Coefficient  Atom+Function  
  ----- ------------  ---------------      ----- ------------  ---------------
    20      1.033950  3 Cl pz                24     -0.990590  3 Cl pz         
    39      0.762498  5 Br pz                43     -0.641100  5 Br pz         
    16     -0.303056  3 Cl pz                35     -0.267446  5 Br pz         
    31      0.081414  5 Br pz                 5      0.039772  1 F  pz         

 Vector   38  Occ=0.000000D+00  E= 5.141774D-01
              MO Center=  1.4D+00, -2.1D-01,  8.2D-05, r^2= 3.9D+00
   Bfn.  Coefficient  Atom+Function         Bfn.  Coefficient  Atom+Function  
  ----- ------------  ---------------      ----- ------------  ---------------
    41     -1.082302  5 Br px                37      1.061548  5 Br px         
    36      0.857793  5 Br s                 40     -0.648585  5 Br s          
    22      0.560432  3 Cl px                51     -0.493588  6 H  s          
    18     -0.483692  3 Cl px                42      0.418967  5 Br py         
    33     -0.361893  5 Br px                38     -0.346170  5 Br py         

 Vector   39  Occ=0.000000D+00  E= 5.555414D-01
              MO Center= -8.7D-01,  1.0D+00, -2.1D-05, r^2= 5.0D+00
   Bfn.  Coefficient  Atom+Function         Bfn.  Coefficient  Atom+Function  
  ----- ------------  ---------------      ----- ------------  ---------------
    23      1.005191  3 Cl py                19     -0.768252  3 Cl py         
    42      0.746683  5 Br py                22      0.724464  3 Cl px         
    38     -0.680068  5 Br py                18     -0.646847  3 Cl px         
    40      0.508247  5 Br s                 36     -0.412552  5 Br s          
    26      0.381528  4 H  s                 37     -0.311992  5 Br px         

 Vector   40  Occ=0.000000D+00  E= 5.647040D-01
              MO Center=  4.4D-01,  2.2D-01,  1.3D-05, r^2= 4.7D+00
   Bfn.  Coefficient  Atom+Function         Bfn.  Coefficient  Atom+Function  
  ----- ------------  ---------------      ----- ------------  ---------------
    39      1.250604  5 Br pz                43     -1.110039  5 Br pz         
    24      0.654315  3 Cl pz                20     -0.648565  3 Cl pz         
    35     -0.429457  5 Br pz                16      0.187013  3 Cl pz         
    31      0.130369  5 Br pz         

 Vector   41  Occ=0.000000D+00  E= 5.770155D-01
              MO Center=  4.0D-01,  4.6D-01,  2.2D-05, r^2= 4.9D+00
   Bfn.  Coefficient  Atom+Function         Bfn.  Coefficient  Atom+Function  
  ----- ------------  ---------------      ----- ------------  ---------------
    42     -1.228804  5 Br py                38      1.175788  5 Br py         
    23      0.766393  3 Cl py                21     -0.650890  3 Cl s          
    40     -0.601717  5 Br s                 19     -0.503040  3 Cl py         
    36      0.494440  5 Br s                 17      0.433216  3 Cl s          
    26      0.393080  4 H  s                 34     -0.387478  5 Br py         

 Vector   42  Occ=0.000000D+00  E= 6.352830D-01
              MO Center= -5.4D-01,  2.7D-01, -5.3D-05, r^2= 3.7D+00
   Bfn.  Coefficient  Atom+Function         Bfn.  Coefficient  Atom+Function  
  ----- ------------  ---------------      ----- ------------  ---------------
    21      1.489164  3 Cl s                 40      1.227811  5 Br s          
    17     -1.116493  3 Cl s                 36     -0.918224  5 Br s          
    22      0.856238  3 Cl px                23     -0.760071  3 Cl py         
    51     -0.690141  6 H  s                 18     -0.643365  3 Cl px         
    26     -0.584451  4 H  s                 38      0.471233  5 Br py         

 Vector   43  Occ=0.000000D+00  E= 7.200269D-01
              MO Center=  2.1D-01, -1.1D-02,  6.9D-06, r^2= 3.6D+00
   Bfn.  Coefficient  Atom+Function         Bfn.  Coefficient  Atom+Function  
  ----- ------------  ---------------      ----- ------------  ---------------
    40      1.611160  5 Br s                 41     -1.321551  5 Br px         
    36     -1.273328  5 Br s                 37      1.034671  5 Br px         
    21     -0.853649  3 Cl s                 11     -0.783963  2 H  s          
    23      0.736825  3 Cl py                26      0.736665  4 H  s          
    17      0.601820  3 Cl s                 19     -0.391059  3 Cl py         

 Vector   44  Occ=0.000000D+00  E= 8.394935D-01
              MO Center= -8.6D-01, -9.5D-01, -8.5D-05, r^2= 2.5D+00
   Bfn.  Coefficient  Atom+Function         Bfn.  Coefficient  Atom+Function  
  ----- ------------  ---------------      ----- ------------  ---------------
    26     -1.117949  4 H  s                 21      1.081832  3 Cl s          
    11     -1.043019  2 H  s                 10      0.971739  2 H  s          
    40      0.964111  5 Br s                 51     -0.726200  6 H  s          
    25      0.655959  4 H  s                 17     -0.590703  3 Cl s          
    23     -0.548021  3 Cl py                36     -0.531203  5 Br s          

 Vector   45  Occ=0.000000D+00  E= 8.977850D-01
              MO Center= -1.2D+00, -7.4D-01, -9.8D-05, r^2= 2.8D+00
   Bfn.  Coefficient  Atom+Function         Bfn.  Coefficient  Atom+Function  
  ----- ------------  ---------------      ----- ------------  ---------------
    26      1.709356  4 H  s                 11     -1.043129  2 H  s          
    25     -0.994819  4 H  s                 21     -0.861903  3 Cl s          
    10      0.794450  2 H  s                 51      0.425711  6 H  s          
    23      0.391574  3 Cl py                50     -0.305598  6 H  s          
    42     -0.279327  5 Br py                17      0.270574  3 Cl s          

 Vector   46  Occ=0.000000D+00  E= 9.914475D-01
              MO Center= -1.4D-01,  9.0D-01, -3.0D-05, r^2= 2.2D+00
   Bfn.  Coefficient  Atom+Function         Bfn.  Coefficient  Atom+Function  
  ----- ------------  ---------------      ----- ------------  ---------------
    51      2.178712  6 H  s                 50     -1.259623  6 H  s          
    40     -0.993826  5 Br s                 21     -0.688894  3 Cl s          
    22     -0.627467  3 Cl px                42     -0.524527  5 Br py         
    26     -0.506986  4 H  s                 17      0.457906  3 Cl s          
    25      0.454349  4 H  s                 36      0.341573  5 Br s          

 Vector   47  Occ=0.000000D+00  E= 1.661182D+00
              MO Center= -1.4D+00, -1.6D+00, -5.5D-05, r^2= 6.0D-01
   Bfn.  Coefficient  Atom+Function         Bfn.  Coefficient  Atom+Function  
  ----- ------------  ---------------      ----- ------------  ---------------
     5      1.003283  1 F  pz                 9     -0.973496  1 F  pz         
    24      0.051866  3 Cl pz                20     -0.039871  3 Cl pz         
    43      0.035791  5 Br pz                39     -0.032032  5 Br pz         

 Vector   48  Occ=0.000000D+00  E= 1.778595D+00
              MO Center= -1.4D+00, -1.6D+00, -6.2D-05, r^2= 7.1D-01
   Bfn.  Coefficient  Atom+Function         Bfn.  Coefficient  Atom+Function  
  ----- ------------  ---------------      ----- ------------  ---------------
     8     -0.956514  1 F  py                 4      0.897675  1 F  py         
     7     -0.467813  1 F  px                 3      0.404150  1 F  px         
    10      0.317825  2 H  s                 25      0.185560  4 H  s          
    11     -0.139969  2 H  s                  2     -0.108275  1 F  s          
    26      0.106142  4 H  s                 41     -0.102510  5 Br px         

 Vector   49  Occ=0.000000D+00  E= 1.961631D+00
              MO Center= -1.4D+00, -1.5D+00, -6.7D-05, r^2= 1.0D+00
   Bfn.  Coefficient  Atom+Function         Bfn.  Coefficient  Atom+Function  
  ----- ------------  ---------------      ----- ------------  ---------------
     7      1.192236  1 F  px                 3     -0.907390  1 F  px         
    26      0.783767  4 H  s                  8     -0.551141  1 F  py         
    21     -0.515137  3 Cl s                 11     -0.465600  2 H  s          
     4      0.431230  1 F  py                23      0.346532  3 Cl py         
    10     -0.262889  2 H  s                 40      0.258489  5 Br s          

 Vector   50  Occ=0.000000D+00  E= 3.277418D+00
              MO Center= -1.3D+00, -1.4D+00, -7.1D-05, r^2= 8.5D-01
   Bfn.  Coefficient  Atom+Function         Bfn.  Coefficient  Atom+Function  
  ----- ------------  ---------------      ----- ------------  ---------------
     6     -1.721952  1 F  s                  2      1.567208  1 F  s          
    26      0.644409  4 H  s                 21     -0.482628  3 Cl s          
    11      0.448294  2 H  s                 40     -0.361641  5 Br s          
    23      0.303106  3 Cl py                41      0.248306  5 Br px         
     8     -0.226980  1 F  py                 7     -0.214021  1 F  px         

 Vector   51  Occ=0.000000D+00  E= 2.363075D+01
              MO Center=  1.3D+00, -1.6D-01,  5.6D-05, r^2= 7.9D-01
   Bfn.  Coefficient  Atom+Function         Bfn.  Coefficient  Atom+Function  
  ----- ------------  ---------------      ----- ------------  ---------------
    32     10.894653  5 Br s                 44     -5.178537  5 Br dxx        
    47     -5.176636  5 Br dyy               49     -5.173217  5 Br dzz        
    36      2.423718  5 Br s                 40     -1.355262  5 Br s          
    28      1.033214  5 Br s                 51      0.328104  6 H  s          
    41      0.264466  5 Br px                11      0.243900  2 H  s          


 center of mass
 --------------
 x =   0.16521128 y =  -0.01514880 z =   0.00000844

 moments of inertia (a.u.)
 ------------------
         363.477199225167         185.465102520082          -0.045287223044
         185.465102520082        1065.504861526309           0.006569385314
          -0.045287223044           0.006569385314        1428.982056870850

     Multipole analysis of the density
     ---------------------------------

     L   x y z        total         alpha         beta         nuclear
     -   - - -        -----         -----         ----         -------
     0   0 0 0     -0.000000    -32.000000    -32.000000     64.000000

     1   1 0 0      0.315498      0.157749      0.157749     -0.000000
     1   0 1 0     -0.681432     -0.340716     -0.340716      0.000000
     1   0 0 1     -0.000041     -0.000020     -0.000020     -0.000000

     2   2 0 0    -31.732108   -266.234422   -266.234422    500.736736
     2   1 1 0      1.716714     44.510519     44.510519    -87.304325
     2   1 0 1      0.000009     -0.010708     -0.010708      0.021425
     2   0 2 0    -29.428599   -104.423898   -104.423898    179.419196
     2   0 1 1      0.000140      0.001565      0.001565     -0.002990
     2   0 0 2    -29.207962    -14.603982    -14.603982      0.000001



                             Geometry "uno" -> "    "
                             ------------------------

 Output coordinates in angstroms (scale by  1.889725989 to convert to a.u.)

  No.       Tag          Charge          X              Y              Z
 ---- ---------------- ---------- -------------- -------------- --------------
    1 F                    9.0000    -1.38817116    -1.56523054    -0.00006326
    2 H                    1.0000    -0.35019148    -1.41632686    -0.00004944

      Atomic Mass 
      ----------- 

      F                 18.998400
      H                  1.007825


 Effective nuclear repulsion energy (a.u.)       0.0000000000

            Nuclear Dipole moment (a.u.) 
            ----------------------------
        X                 Y               Z
 ---------------- ---------------- ----------------
     0.0000000000     0.0000000000     0.0000000000



                             Geometry "dos" -> "    "
                             ------------------------

 Output coordinates in angstroms (scale by  1.889725989 to convert to a.u.)

  No.       Tag          Charge          X              Y              Z
 ---- ---------------- ---------- -------------- -------------- --------------
    1 Cl                  17.0000    -1.85546293     1.20134634    -0.00007390
    2 H                    1.0000    -1.84591099    -0.28742224    -0.00011862

      Atomic Mass 
      ----------- 

      Cl                34.968850
      H                  1.007825


 Effective nuclear repulsion energy (a.u.)       0.0000000000

            Nuclear Dipole moment (a.u.) 
            ----------------------------
        X                 Y               Z
 ---------------- ---------------- ----------------
     0.0000000000     0.0000000000     0.0000000000



                            Geometry "tres" -> "     "
                            --------------------------

 Output coordinates in angstroms (scale by  1.889725989 to convert to a.u.)

  No.       Tag          Charge          X              Y              Z
 ---- ---------------- ---------- -------------- -------------- --------------
    1 Br                  35.0000     1.31812809    -0.15646339     0.00005729
    2 H                    1.0000     0.09802930     0.84415461    -0.00001144

      Atomic Mass 
      ----------- 

      Br                79.916500
      H                  1.007825


 Effective nuclear repulsion energy (a.u.)       0.0000000000

            Nuclear Dipole moment (a.u.) 
            ----------------------------
        X                 Y               Z
 ---------------- ---------------- ----------------
     0.0000000000     0.0000000000     0.0000000000


                                 NWChem DFT Module
                                 -----------------


                                 FH-ClH-BrH-bsses




 Summary of "ao basis" -> "ao basis" (cartesian)
 ------------------------------------------------------------------------------
       Tag                 Description            Shells   Functions and Types
 ---------------- ------------------------------  ------  ---------------------
 H                           3-21g                   2        2   2s
 F                           3-21g                   5        9   3s2p
 Cl                          3-21g                   7       13   4s3p
 Br                          3-21g                  10       23   5s4p1d
 bqH                         3-21g                   2        2   2s
 bqF                         3-21g                   5        9   3s2p
 bqCl                        3-21g                   7       13   4s3p
 bqBr                        3-21g                  10       23   5s4p1d


  Caching 1-el integrals 

            General Information
            -------------------
          SCF calculation type: DFT
          Wavefunction type:  closed shell.
          No. of atoms     :     2
          No. of electrons :    10
           Alpha electrons :     5
            Beta electrons :     5
          Charge           :     0
          Spin multiplicity:     1
          Use of symmetry is: off; symmetry adaption is: off
          Maximum number of iterations: 100
          This is a Direct SCF calculation.
          AO basis - number of functions:    11
                     number of shells:     7
          Convergence on energy requested:  1.00D-06
          Convergence on density requested:  1.00D-05
          Convergence on gradient requested:  5.00D-04

              XC Information
              --------------
                        Slater Exchange Functional  1.000 local    
                      VWN V Correlation Functional  1.000 local    

             Grid Information
             ----------------
          Grid used for XC integration:  medium    
          Radial quadrature: Mura-Knowles        
          Angular quadrature: Lebedev. 
          Tag              B.-S. Rad. Rad. Pts. Rad. Cut. Ang. Pts.
          ---              ---------- --------- --------- ---------
          F                   0.50       49           5.0       434
          H                   0.35       45           4.0       434
          Grid pruning is: on 
          Number of quadrature shells:    94
          Spatial weights used:  Erf1

          Convergence Information
          -----------------------
          Convergence aids based upon iterative change in 
          total energy or number of iterations. 
          Levelshifting, if invoked, occurs when the 
          HOMO/LUMO gap drops below (HL_TOL):  1.00D-02
          DIIS, if invoked, will attempt to extrapolate 
          using up to (NFOCK): 10 stored Fock matrices.

                    Damping( 0%)  Levelshifting(0.5)       DIIS
                  --------------- ------------------- ---------------
          dE  on:    start            ASAP                start   
          dE off:    2 iters        100 iters           100 iters 


      Screening Tolerance Information
      -------------------------------
          Density screening/tol_rho:  1.00D-10
          AO Gaussian exp screening on grid/accAOfunc:  14
          CD Gaussian exp screening on grid/accCDfunc:  20
          XC Gaussian exp screening on grid/accXCfunc:  20
          Schwarz screening/accCoul:  1.00D-08


      Superposition of Atomic Density Guess
      -------------------------------------

 Sum of atomic energies:         -99.35355516

      Non-variational initial energy
      ------------------------------

 Total energy =     -99.207174
 1-e energy   =    -148.115333
 2-e energy   =      44.366323
 HOMO         =      -0.581580
 LUMO         =       0.114146

   Time after variat. SCF:      0.7
   Time prior to 1st pass:      0.7

 Grid_pts file          = ./FH-ClH-BrH-bsses.gridpts.0
 Record size in doubles =  12289        No. of grid_pts per rec  =   3070
 Max. records in memory =      5        Max. recs in file   =    863634


           Memory utilization after 1st SCF pass: 
           Heap Space remaining (MW):       86.18            86184400
          Stack Space remaining (MW):       86.25            86246980

   convergence    iter        energy       DeltaE   RMS-Dens  Diis-err    time
 ---------------- ----- ----------------- --------- --------- ---------  ------
 d= 0,ls=0.0,diis     1    -99.1614398177 -1.04D+02  7.74D-02  5.31D-01     0.7
 d= 0,ls=0.0,diis     2    -99.1254734946  3.60D-02  4.52D-02  9.31D-01     0.7
 d= 0,ls=0.0,diis     3    -99.2069022829 -8.14D-02  3.57D-03  2.52D-02     0.7
 d= 0,ls=0.0,diis     4    -99.2083979900 -1.50D-03  1.80D-03  7.14D-04     0.8
 d= 0,ls=0.0,diis     5    -99.2085065743 -1.09D-04  1.94D-05  7.89D-07     0.8
 d= 0,ls=0.0,diis     6    -99.2085066287 -5.44D-08  3.54D-06  7.34D-09     0.8


         Total DFT energy =      -99.208506628707
      One electron energy =     -149.046408449922
           Coulomb energy =       55.446578957443
    Exchange-Corr. energy =      -10.150512823620
 Nuclear repulsion energy =        4.541835687391

 Numeric. integr. density =        9.999996932753

     Total iterative time =      0.1s



                       DFT Final Molecular Orbital Analysis
                       ------------------------------------

 Vector    1  Occ=2.000000D+00  E=-2.387965D+01
              MO Center= -1.4D+00, -1.6D+00, -6.3D-05, r^2= 1.2D-02
   Bfn.  Coefficient  Atom+Function         Bfn.  Coefficient  Atom+Function  
  ----- ------------  ---------------      ----- ------------  ---------------
     1      0.979960  1 F  s                  2      0.104056  1 F  s          
     6     -0.032670  1 F  s          

 Vector    2  Occ=2.000000D+00  E=-9.915102D-01
              MO Center= -1.2D+00, -1.5D+00, -6.1D-05, r^2= 3.9D-01
   Bfn.  Coefficient  Atom+Function         Bfn.  Coefficient  Atom+Function  
  ----- ------------  ---------------      ----- ------------  ---------------
     6      0.761221  1 F  s                  1     -0.244867  1 F  s          
     2      0.227828  1 F  s                 10      0.100695  2 H  s          
     3      0.089309  1 F  px                 7      0.087661  1 F  px         
    11      0.052056  2 H  s          

 Vector    3  Occ=2.000000D+00  E=-3.981661D-01
              MO Center= -1.2D+00, -1.5D+00, -6.1D-05, r^2= 6.9D-01
   Bfn.  Coefficient  Atom+Function         Bfn.  Coefficient  Atom+Function  
  ----- ------------  ---------------      ----- ------------  ---------------
     3      0.427510  1 F  px                 7      0.426329  1 F  px         
     6     -0.361727  1 F  s                 10      0.247182  2 H  s          
    11      0.248002  2 H  s                  1      0.084405  1 F  s          
     2     -0.070149  1 F  s                  4      0.061329  1 F  py         
     8      0.061159  1 F  py         

 Vector    4  Occ=2.000000D+00  E=-2.486956D-01
              MO Center= -1.4D+00, -1.6D+00, -6.3D-05, r^2= 4.0D-01
   Bfn.  Coefficient  Atom+Function         Bfn.  Coefficient  Atom+Function  
  ----- ------------  ---------------      ----- ------------  ---------------
     8      0.437371  1 F  py                 9      0.422254  1 F  pz         
     4      0.391757  1 F  py                 5      0.378217  1 F  pz         
     7     -0.062749  1 F  px                 3     -0.056205  1 F  px         

 Vector    5  Occ=2.000000D+00  E=-2.486956D-01
              MO Center= -1.4D+00, -1.6D+00, -6.3D-05, r^2= 4.0D-01
   Bfn.  Coefficient  Atom+Function         Bfn.  Coefficient  Atom+Function  
  ----- ------------  ---------------      ----- ------------  ---------------
     9     -0.441849  1 F  pz                 8      0.417976  1 F  py         
     5     -0.395768  1 F  pz                 4      0.374385  1 F  py         
     7     -0.059955  1 F  px                 3     -0.053702  1 F  px         

 Vector    6  Occ=0.000000D+00  E= 2.116883D-02
              MO Center= -4.5D-01, -1.4D+00, -5.1D-05, r^2= 1.2D+00
   Bfn.  Coefficient  Atom+Function         Bfn.  Coefficient  Atom+Function  
  ----- ------------  ---------------      ----- ------------  ---------------
    11      1.001604  2 H  s                  6     -0.512494  1 F  s          
     7     -0.482881  1 F  px                 3     -0.339757  1 F  px         
    10      0.214412  2 H  s                  1      0.070639  1 F  s          
     8     -0.069272  1 F  py                 2     -0.048581  1 F  s          
     4     -0.048740  1 F  py         

 Vector    7  Occ=0.000000D+00  E= 8.306277D-01
              MO Center= -3.5D-01, -1.4D+00, -4.9D-05, r^2= 9.4D-01
   Bfn.  Coefficient  Atom+Function         Bfn.  Coefficient  Atom+Function  
  ----- ------------  ---------------      ----- ------------  ---------------
    10      1.266343  2 H  s                 11     -1.074360  2 H  s          
     3     -0.256730  1 F  px                 6      0.193370  1 F  s          
     7     -0.058553  1 F  px                 4     -0.036829  1 F  py         
     2     -0.033553  1 F  s          

 Vector    8  Occ=0.000000D+00  E= 1.764241D+00
              MO Center= -1.4D+00, -1.6D+00, -6.3D-05, r^2= 5.7D-01
   Bfn.  Coefficient  Atom+Function         Bfn.  Coefficient  Atom+Function  
  ----- ------------  ---------------      ----- ------------  ---------------
     5      0.790673  1 F  pz                 9     -0.761322  1 F  pz         
     4     -0.616874  1 F  py                 8      0.593975  1 F  py         
     3      0.088483  1 F  px                 7     -0.085199  1 F  px         

 Vector    9  Occ=0.000000D+00  E= 1.764241D+00
              MO Center= -1.4D+00, -1.6D+00, -6.3D-05, r^2= 5.7D-01
   Bfn.  Coefficient  Atom+Function         Bfn.  Coefficient  Atom+Function  
  ----- ------------  ---------------      ----- ------------  ---------------
     4      0.782659  1 F  py                 8     -0.753606  1 F  py         
     5      0.623188  1 F  pz                 9     -0.600055  1 F  pz         
     3     -0.112285  1 F  px                 7      0.108117  1 F  px         

 Vector   10  Occ=0.000000D+00  E= 1.936544D+00
              MO Center= -1.6D+00, -1.6D+00, -6.6D-05, r^2= 6.0D-01
   Bfn.  Coefficient  Atom+Function         Bfn.  Coefficient  Atom+Function  
  ----- ------------  ---------------      ----- ------------  ---------------
     7      1.150790  1 F  px                 3     -0.970860  1 F  px         
    10     -0.455400  2 H  s                  8      0.165087  1 F  py         
     2      0.148096  1 F  s                  4     -0.139275  1 F  py         
    11     -0.051972  2 H  s                  1     -0.036761  1 F  s          

 Vector   11  Occ=0.000000D+00  E= 3.110898D+00
              MO Center= -1.2D+00, -1.5D+00, -6.1D-05, r^2= 5.4D-01
   Bfn.  Coefficient  Atom+Function         Bfn.  Coefficient  Atom+Function  
  ----- ------------  ---------------      ----- ------------  ---------------
     2      1.507633  1 F  s                  6     -1.456179  1 F  s          
    11      0.323068  2 H  s                  7     -0.319619  1 F  px         
    10      0.188227  2 H  s                  3      0.142705  1 F  px         
     1     -0.131627  1 F  s                  8     -0.045851  1 F  py         


 center of mass
 --------------
 x =  -2.52445157 y =  -2.94368178 z =  -0.00011823

 moments of inertia (a.u.)
 ------------------
           0.075778419499          -0.528237172813          -0.000049026577
          -0.528237172813           3.682242451616          -0.000007033122
          -0.000049026577          -0.000007033122           3.758020869809

     Multipole analysis of the density
     ---------------------------------

     L   x y z        total         alpha         beta         nuclear
     -   - - -        -----         -----         ----         -------
     0   0 0 0     -0.000000     -5.000000     -5.000000     10.000000

     1   1 0 0      0.788418     12.529776     12.529776    -24.271134
     1   0 1 0      0.113103     14.705142     14.705142    -29.297181
     1   0 0 1      0.000010      0.000590      0.000590     -0.001169

     2   2 0 0     -6.221420    -34.296469    -34.296469     62.371518
     2   1 1 0     -2.365688    -36.985008    -36.985008     71.604327
     2   1 0 1     -0.000097     -0.001491     -0.001491      0.002884
     2   0 2 0     -4.549894    -45.226819    -45.226819     85.903743
     2   0 1 1     -0.000041     -0.001737     -0.001737      0.003432
     2   0 0 2     -3.918545     -1.959273     -1.959273      0.000000


                                 NWChem DFT Module
                                 -----------------


                                 FH-ClH-BrH-bsses




 Summary of "ao basis" -> "ao basis" (cartesian)
 ------------------------------------------------------------------------------
       Tag                 Description            Shells   Functions and Types
 ---------------- ------------------------------  ------  ---------------------
 H                           3-21g                   2        2   2s
 F                           3-21g                   5        9   3s2p
 Cl                          3-21g                   7       13   4s3p
 Br                          3-21g                  10       23   5s4p1d
 bqH                         3-21g                   2        2   2s
 bqF                         3-21g                   5        9   3s2p
 bqCl                        3-21g                   7       13   4s3p
 bqBr                        3-21g                  10       23   5s4p1d


  Caching 1-el integrals 

            General Information
            -------------------
          SCF calculation type: DFT
          Wavefunction type:  closed shell.
          No. of atoms     :     6
          No. of electrons :    10
           Alpha electrons :     5
            Beta electrons :     5
          Charge           :     0
          Spin multiplicity:     1
          Use of symmetry is: off; symmetry adaption is: off
          Maximum number of iterations: 100
          This is a Direct SCF calculation.
          AO basis - number of functions:    51
                     number of shells:    28
          Convergence on energy requested:  1.00D-06
          Convergence on density requested:  1.00D-05
          Convergence on gradient requested:  5.00D-04

              XC Information
              --------------
                        Slater Exchange Functional  1.000 local    
                      VWN V Correlation Functional  1.000 local    

             Grid Information
             ----------------
          Grid used for XC integration:  medium    
          Radial quadrature: Mura-Knowles        
          Angular quadrature: Lebedev. 
          Tag              B.-S. Rad. Rad. Pts. Rad. Cut. Ang. Pts.
          ---              ---------- --------- --------- ---------
          F                   0.50       49           8.0       434
          H                   0.35       45           8.0       434
          bqCl                1.00       88          10.0       590
          bqH                 0.35       45           9.0       434
          bqBr                1.15      112          10.0       590
          Grid pruning is: on 
          Number of quadrature shells:   384
          Spatial weights used:  Erf1

          Convergence Information
          -----------------------
          Convergence aids based upon iterative change in 
          total energy or number of iterations. 
          Levelshifting, if invoked, occurs when the 
          HOMO/LUMO gap drops below (HL_TOL):  1.00D-02
          DIIS, if invoked, will attempt to extrapolate 
          using up to (NFOCK): 10 stored Fock matrices.

                    Damping( 0%)  Levelshifting(0.5)       DIIS
                  --------------- ------------------- ---------------
          dE  on:    start            ASAP                start   
          dE off:    2 iters        100 iters           100 iters 


      Screening Tolerance Information
      -------------------------------
          Density screening/tol_rho:  1.00D-10
          AO Gaussian exp screening on grid/accAOfunc:  14
          CD Gaussian exp screening on grid/accCDfunc:  20
          XC Gaussian exp screening on grid/accXCfunc:  20
          Schwarz screening/accCoul:  1.00D-08


      Superposition of Atomic Density Guess
      -------------------------------------

 Sum of atomic energies:         -99.35355516

      Non-variational initial energy
      ------------------------------

 Total energy =     -99.207174
 1-e energy   =    -148.115333
 2-e energy   =      44.366323
 HOMO         =      -0.581706
 LUMO         =       0.076495

   Time after variat. SCF:      0.8
   Time prior to 1st pass:      0.8

 Grid_pts file          = ./FH-ClH-BrH-bsses.gridpts.0
 Record size in doubles =  12289        No. of grid_pts per rec  =   3070
 Max. records in memory =     22        Max. recs in file   =    863634


           Memory utilization after 1st SCF pass: 
           Heap Space remaining (MW):       85.97            85973704
          Stack Space remaining (MW):       86.25            86246724

   convergence    iter        energy       DeltaE   RMS-Dens  Diis-err    time
 ---------------- ----- ----------------- --------- --------- ---------  ------
 d= 0,ls=0.0,diis     1    -99.1811175745 -1.04D+02  1.73D-02  5.20D-01     0.9
 d= 0,ls=0.0,diis     2    -99.1327027905  4.84D-02  9.92D-03  1.11D+00     0.9
 d= 0,ls=0.0,diis     3    -99.2283349130 -9.56D-02  8.52D-04  2.54D-02     1.0
 d= 0,ls=0.0,diis     4    -99.2298395287 -1.50D-03  3.88D-04  7.95D-04     1.0
 d= 0,ls=0.0,diis     5    -99.2299571637 -1.18D-04  6.27D-06  7.16D-07     1.1
 d= 0,ls=0.0,diis     6    -99.2299572211 -5.74D-08  1.37D-06  3.02D-08     1.1


         Total DFT energy =      -99.229957221120
      One electron energy =     -148.808079082701
           Coulomb energy =       55.146951496266
    Exchange-Corr. energy =      -10.110665322076
 Nuclear repulsion energy =        4.541835687391

 Numeric. integr. density =       10.000000435441

     Total iterative time =      0.3s



                       DFT Final Molecular Orbital Analysis
                       ------------------------------------

 Vector    1  Occ=2.000000D+00  E=-2.391890D+01
              MO Center= -1.4D+00, -1.6D+00, -6.3D-05, r^2= 1.2D-02
   Bfn.  Coefficient  Atom+Function         Bfn.  Coefficient  Atom+Function  
  ----- ------------  ---------------      ----- ------------  ---------------
     1      0.980160  1 F  s                  2      0.106038  1 F  s          
     6     -0.038054  1 F  s          

 Vector    2  Occ=2.000000D+00  E=-1.018061D+00
              MO Center= -1.2D+00, -1.5D+00, -6.1D-05, r^2= 3.9D-01
   Bfn.  Coefficient  Atom+Function         Bfn.  Coefficient  Atom+Function  
  ----- ------------  ---------------      ----- ------------  ---------------
     6      0.759187  1 F  s                  1     -0.245399  1 F  s          
     2      0.231250  1 F  s                 10      0.099869  2 H  s          
     7      0.089951  1 F  px                 3      0.087599  1 F  px         
    11      0.042487  2 H  s          

 Vector    3  Occ=2.000000D+00  E=-4.245387D-01
              MO Center= -1.2D+00, -1.5D+00, -6.2D-05, r^2= 7.0D-01
   Bfn.  Coefficient  Atom+Function         Bfn.  Coefficient  Atom+Function  
  ----- ------------  ---------------      ----- ------------  ---------------
     3      0.435089  1 F  px                 7      0.419471  1 F  px         
     6     -0.320685  1 F  s                 11      0.245521  2 H  s          
    10      0.242629  2 H  s                 26     -0.109084  4 bq s          
     1      0.079453  1 F  s                  2     -0.071990  1 F  s          
     8      0.068493  1 F  py                 4      0.050471  1 F  py         

 Vector    4  Occ=2.000000D+00  E=-2.841551D-01
              MO Center= -1.4D+00, -1.5D+00, -6.4D-05, r^2= 4.7D-01
   Bfn.  Coefficient  Atom+Function         Bfn.  Coefficient  Atom+Function  
  ----- ------------  ---------------      ----- ------------  ---------------
     8      0.568882  1 F  py                 4      0.539411  1 F  py         
    26      0.143412  4 bq s                  3     -0.065660  1 F  px         
     7     -0.053630  1 F  px                11     -0.051097  2 H  s          
    41     -0.043592  5 bq px                40      0.043048  5 bq s          
     6     -0.033758  1 F  s          

 Vector    5  Occ=2.000000D+00  E=-2.751798D-01
              MO Center= -1.4D+00, -1.6D+00, -6.3D-05, r^2= 4.0D-01
   Bfn.  Coefficient  Atom+Function         Bfn.  Coefficient  Atom+Function  
  ----- ------------  ---------------      ----- ------------  ---------------
     9      0.606715  1 F  pz                 5      0.551428  1 F  pz         

 Vector    6  Occ=0.000000D+00  E=-1.745583D-02
              MO Center= -2.0D-01, -1.2D+00, -3.5D-05, r^2= 1.7D+00
   Bfn.  Coefficient  Atom+Function         Bfn.  Coefficient  Atom+Function  
  ----- ------------  ---------------      ----- ------------  ---------------
    11      0.750121  2 H  s                  6     -0.415756  1 F  s          
     7     -0.402895  1 F  px                40      0.355314  5 bq s          
     3     -0.299902  1 F  px                10      0.199832  2 H  s          
    42     -0.121997  5 bq py                36     -0.088736  5 bq s          
     8     -0.084670  1 F  py                51      0.083563  6 bq s          

 Vector    7  Occ=0.000000D+00  E= 1.488637D-01
              MO Center= -8.7D-01,  6.8D-01, -4.2D-05, r^2= 3.2D+00
   Bfn.  Coefficient  Atom+Function         Bfn.  Coefficient  Atom+Function  
  ----- ------------  ---------------      ----- ------------  ---------------
    21      0.634812  3 bq s                 51      0.423460  6 bq s          
    11     -0.341254  2 H  s                 26      0.328615  4 bq s          
    40      0.250956  5 bq s                  7      0.186781  1 F  px         
    17     -0.161076  3 bq s                  3      0.134643  1 F  px         
    10     -0.132931  2 H  s                 23      0.118862  3 bq py         

 Vector    8  Occ=0.000000D+00  E= 1.859204D-01
              MO Center=  5.3D-01,  4.4D-02,  2.2D-05, r^2= 4.6D+00
   Bfn.  Coefficient  Atom+Function         Bfn.  Coefficient  Atom+Function  
  ----- ------------  ---------------      ----- ------------  ---------------
    40      0.970828  5 bq s                 21     -0.445735  3 bq s          
    11     -0.291569  2 H  s                 26     -0.272797  4 bq s          
    41      0.241490  5 bq px                 6      0.240018  1 F  s          
    36     -0.204475  5 bq s                 51      0.130365  6 bq s          
    17      0.113498  3 bq s                 10     -0.109948  2 H  s          

 Vector    9  Occ=0.000000D+00  E= 2.862463D-01
              MO Center= -1.0D-01,  3.9D-01, -4.5D-06, r^2= 5.6D+00
   Bfn.  Coefficient  Atom+Function         Bfn.  Coefficient  Atom+Function  
  ----- ------------  ---------------      ----- ------------  ---------------
    41      0.488950  5 bq px                42     -0.447831  5 bq py         
    22     -0.444167  3 bq px                21      0.386566  3 bq s          
    40      0.359163  5 bq s                 51     -0.278074  6 bq s          
    26      0.177002  4 bq s                 23      0.105949  3 bq py         
    37     -0.099373  5 bq px                17     -0.088461  3 bq s          

 Vector   10  Occ=0.000000D+00  E= 3.058202D-01
              MO Center=  1.0D+00, -3.8D-02,  4.9D-05, r^2= 3.3D+00
   Bfn.  Coefficient  Atom+Function         Bfn.  Coefficient  Atom+Function  
  ----- ------------  ---------------      ----- ------------  ---------------
    43      1.080669  5 bq pz                24      0.306386  3 bq pz         
    39     -0.208941  5 bq pz                20     -0.046416  3 bq pz         
     5     -0.025835  1 F  pz         

 Vector   11  Occ=0.000000D+00  E= 3.419958D-01
              MO Center= -1.8D+00,  8.7D-01, -7.6D-05, r^2= 2.9D+00
   Bfn.  Coefficient  Atom+Function         Bfn.  Coefficient  Atom+Function  
  ----- ------------  ---------------      ----- ------------  ---------------
    26     -0.649725  4 bq s                 23      0.638100  3 bq py         
    21      0.551879  3 bq s                 42     -0.160656  5 bq py         
     6      0.153450  1 F  s                 40     -0.150261  5 bq s          
     8      0.142864  1 F  py                51      0.136464  6 bq s          
    17     -0.124418  3 bq s                  4      0.116911  1 F  py         

 Vector   12  Occ=0.000000D+00  E= 3.739790D-01
              MO Center= -1.6D+00,  1.1D+00, -6.1D-05, r^2= 3.3D+00
   Bfn.  Coefficient  Atom+Function         Bfn.  Coefficient  Atom+Function  
  ----- ------------  ---------------      ----- ------------  ---------------
    24      1.040318  3 bq pz                43     -0.350588  5 bq pz         
    20     -0.138653  3 bq pz                39      0.058040  5 bq pz         

 Vector   13  Occ=0.000000D+00  E= 3.903442D-01
              MO Center=  9.7D-01, -1.4D-01,  3.9D-05, r^2= 3.8D+00
   Bfn.  Coefficient  Atom+Function         Bfn.  Coefficient  Atom+Function  
  ----- ------------  ---------------      ----- ------------  ---------------
    42      1.033336  5 bq py                11      0.704316  2 H  s          
    41      0.618816  5 bq px                 6     -0.298164  1 F  s          
    22     -0.285137  3 bq px                40     -0.196984  5 bq s          
     7     -0.183226  1 F  px                10      0.176698  2 H  s          
    38     -0.177216  5 bq py                23      0.153390  3 bq py         

 Vector   14  Occ=0.000000D+00  E= 4.394291D-01
              MO Center= -2.6D-01,  4.5D-01, -1.1D-05, r^2= 5.5D+00
   Bfn.  Coefficient  Atom+Function         Bfn.  Coefficient  Atom+Function  
  ----- ------------  ---------------      ----- ------------  ---------------
    41      0.991279  5 bq px                22      0.721031  3 bq px         
    40     -0.468077  5 bq s                 11      0.375884  2 H  s          
    51      0.293102  6 bq s                 42     -0.255250  5 bq py         
     6     -0.196159  1 F  s                 26      0.183530  4 bq s          
    37     -0.153621  5 bq px                21     -0.137489  3 bq s          

 Vector   15  Occ=0.000000D+00  E= 5.856279D-01
              MO Center= -1.7D+00,  5.9D-01, -9.6D-05, r^2= 3.7D+00
   Bfn.  Coefficient  Atom+Function         Bfn.  Coefficient  Atom+Function  
  ----- ------------  ---------------      ----- ------------  ---------------
    26      1.854222  4 bq s                 23      1.380130  3 bq py         
    21     -0.989824  3 bq s                 51     -0.634355  6 bq s          
    40      0.437812  5 bq s                 41     -0.402579  5 bq px         
    22      0.347417  3 bq px                 6     -0.317114  1 F  s          
    11     -0.265626  2 H  s                  8     -0.222361  1 F  py         

 Vector   16  Occ=0.000000D+00  E= 6.325466D-01
              MO Center= -3.9D-01,  7.5D-01, -3.2D-05, r^2= 4.4D+00
   Bfn.  Coefficient  Atom+Function         Bfn.  Coefficient  Atom+Function  
  ----- ------------  ---------------      ----- ------------  ---------------
    51      1.974053  6 bq s                 21     -1.144211  3 bq s          
    40     -1.050113  5 bq s                 22     -0.939455  3 bq px         
    41      0.786771  5 bq px                26      0.760351  4 bq s          
    42     -0.762247  5 bq py                23      0.610688  3 bq py         
     6     -0.178612  1 F  s                 17      0.138684  3 bq s          

 Vector   17  Occ=0.000000D+00  E= 9.068783D-01
              MO Center= -3.3D-01, -1.5D+00, -5.2D-05, r^2= 1.4D+00
   Bfn.  Coefficient  Atom+Function         Bfn.  Coefficient  Atom+Function  
  ----- ------------  ---------------      ----- ------------  ---------------
    11      1.475025  2 H  s                 10     -1.284996  2 H  s          
    26     -0.411302  4 bq s                 42      0.282909  5 bq py         
    40     -0.245921  5 bq s                  6     -0.235315  1 F  s          
    41      0.232695  5 bq px                21      0.227958  3 bq s          
     3      0.167634  1 F  px                 4      0.131416  1 F  py         

 Vector   18  Occ=0.000000D+00  E= 1.205709D+00
[...]
    2       -0.289 ||      -0.000              -0.000             0.001
    3        1.325 ||      -0.002              -0.002             0.003
    4        3.357 ||       0.042               0.034            -0.001
    5        6.730 ||      -0.025              -0.021            -0.001
    6        8.186 ||       0.000               0.000             0.077
    7      162.085 ||      -0.006               0.014             0.000
    8      229.214 ||      -0.026              -0.022            -0.000
    9      353.956 ||       0.019               0.058            -0.000
   10      486.410 ||      -0.000              -0.000             0.851
   11      615.816 ||      -0.000               0.000             0.103
   12      717.432 ||       0.522               0.545             0.000
   13      768.461 ||       0.000               0.000             0.115
   14      828.299 ||       0.071              -0.029            -0.000
   15     1158.632 ||      -0.108               0.028            -0.000
   16     1399.459 ||       0.134               0.103             0.000
   17     1687.137 ||       0.121              -0.087             0.000
   18     2640.886 ||       0.012              -0.060            -0.000
 ----------------------------------------------------------------------------



  
  
 ----------------------------------------------------------------------------
 Normal Eigenvalue ||                 Infra Red Intensities
  Mode   [cm**-1]  || [atomic units] [(debye/angs)**2] [(KM/mol)] [arbitrary]
 ------ ---------- || -------------- ----------------- ---------- -----------
    1      -11.212 ||    0.000155           0.004         0.151       0.458
    2       -0.289 ||    0.000000           0.000         0.000       0.000
    3        1.325 ||    0.000001           0.000         0.001       0.002
    4        3.357 ||    0.000127           0.003         0.124       0.374
    5        6.730 ||    0.000045           0.001         0.044       0.133
    6        8.186 ||    0.000256           0.006         0.249       0.753
    7      162.085 ||    0.000010           0.000         0.010       0.030
    8      229.214 ||    0.000050           0.001         0.049       0.147
    9      353.956 ||    0.000164           0.004         0.160       0.482
   10      486.410 ||    0.031413           0.725        30.623      92.504
   11      615.816 ||    0.000457           0.011         0.446       1.346
   12      717.432 ||    0.024712           0.570        24.090      72.770
   13      768.461 ||    0.000577           0.013         0.562       1.698
   14      828.299 ||    0.000256           0.006         0.250       0.754
   15     1158.632 ||    0.000541           0.012         0.527       1.593
   16     1399.459 ||    0.001236           0.029         1.205       3.640
   17     1687.137 ||    0.000963           0.022         0.939       2.835
   18     2640.886 ||    0.000163           0.004         0.159       0.481
 ----------------------------------------------------------------------------





        Vibrational analysis via the FX method 
  --- with translations and rotations projected out ---
  --- via the Eckart algorithm                      ---
 Projected Nuclear Hessian trans-rot subspace norm:6.8027D-34
                         (should be close to zero!) 

          --------------------------------------------------------
          MASS-WEIGHTED PROJECTED HESSIAN (Hartree/Bohr/Bohr/Kamu)
          --------------------------------------------------------


               1            2            3            4            5            6            7            8            9           10
   ----- ----- ----- ----- -----
    1    1.45304D+01
    2    2.15167D+00  5.27043D+00
    3    1.88315D-04 -5.59698D-05  9.10567D-01
    4   -5.31307D+01 -8.85820D+00 -5.57805D-04  2.42268D+02
    5   -5.06393D+00 -7.18053D+00  1.61667D-04  9.27107D+00  3.75237D+01
    6   -3.88358D-04 -7.14405D-05 -2.90097D+00  2.86827D-03 -7.13544D-04  1.49697D+01
    7    5.01627D-01  5.95783D-02  8.04285D-06 -1.52074D+00 -6.91804D-01 -1.84282D-05  9.46875D-01
    8    9.83817D-01 -1.82515D+00  5.64869D-05 -2.16957D+00 -1.08873D+00 -6.10317D-05 -5.80530D-01  3.66728D+00
    9    2.90467D-05 -2.12986D-05  2.12488D-01 -8.84275D-05 -7.30327D-05 -8.33617D-02  1.70717D-05  7.02763D-05  2.41103D-01
   10   -3.89223D+00 -2.38886D-01  4.85575D-05 -1.58652D+01  1.37304D+01 -1.10753D-03 -2.63665D+00 -1.07833D+00 -3.50100D-05  4.87906D+01
   11   -5.27210D+00 -4.92925D+00 -8.34676D-05  3.47676D+01  1.25436D+01  1.34054D-03  1.57476D+00 -1.15507D+01 -3.18974D-04 -2.17635D+00
   12   -1.69098D-04  4.26566D-04 -3.03699D+00 -5.97068D-04  4.10666D-04  2.55645D+00 -5.16193D-05 -6.82135D-04 -1.79623D+00  1.58014D-03
   13   -6.54976D-01 -3.05997D-01 -2.43132D-05 -3.05361D-01  6.98391D-02 -6.02303D-05 -4.19435D-01  1.48498D-01 -1.69193D-05 -1.78648D-02
   14   -7.28821D-01  7.76421D-02 -3.05015D-05  1.40334D+00 -2.99798D-01  4.16857D-05  3.09136D-01  7.07049D-02  1.29551D-05  3.63982D-01
   15   -3.42278D-05 -1.28976D-05  1.02783D-01  3.02629D-05  2.70580D-05 -7.36236D-01 -2.18889D-05  9.28845D-06  5.67288D-02 -2.81548D-05
   16   -3.18679D+00  2.12895D+00 -1.39241D-04  1.59549D+01  2.43807D+00  5.70310D-04  1.36925D-01  1.07364D+00  4.74277D-05 -3.36118D-01
   17    1.68890D+00 -7.13615D-01  1.03686D-04 -5.29518D+00 -9.80843D+00 -3.28514D-04 -4.74851D-01 -1.66767D+00 -4.48414D-05 -7.40619D+00
   18   -1.26466D-04  1.28191D-04 -1.82417D-01  4.02041D-04 -2.09794D-04  2.11620D+00  1.29485D-04  1.24309D-06 -9.68339D-01 -2.26494D-04


              11           12           13           14           15           16           17           18
   ----- ----- ----- ----- -----
   11    8.26302D+01
   12    1.98418D-03  1.99186D+01
   13    8.01739D-02  1.17585D-05  1.34723D+00
   14   -1.55077D+00  5.66787D-06 -4.97315D-01  6.70734D-01
   15   -1.68508D-05 -3.67756D-02  7.21625D-05 -3.35498D-05  8.41730D-02
   16   -1.96910D+01 -4.95363D-05 -6.35924D+00  4.00461D+00 -3.67158D-04  5.40389D+01
   17    8.07615D+00 -2.79283D-04  4.73234D+00 -4.87579D+00  2.89834D-04 -3.39750D+01  5.80721D+01
   18   -9.33364D-04  1.61891D+00 -3.88898D-04  3.07521D-04 -7.56952D-01  3.07389D-03 -2.15916D-03  9.50138D+00

 center of mass
 --------------
 x =   0.16521128 y =  -0.01514880 z =   0.00000844

 moments of inertia (a.u.)
 ------------------
         363.477199225167         185.465102520082          -0.045287223044
         185.465102520082        1065.504861526309           0.006569385314
          -0.045287223044           0.006569385314        1428.982056870850

 Rotational Constants
 --------------------
 A=   0.189611 cm-1  (  0.272803 K)
 B=   0.054162 cm-1  (  0.077925 K)
 C=   0.042128 cm-1  (  0.060611 K)


 Temperature                      =   298.15K
 frequency scaling parameter      =   1.0000

 Zero-Point correction to Energy  =   15.785 kcal/mol  (  0.025155 au)
 Thermal correction to Energy     =   18.927 kcal/mol  (  0.030162 au)
 Thermal correction to Enthalpy   =   19.519 kcal/mol  (  0.031106 au)

 Total Entropy                    =   75.789 cal/mol-K
   - Translational                =   40.636 cal/mol-K (mol. weight = 136.9072)
   - Rotational                   =   27.701 cal/mol-K (symmetry #  =        1)
   - Vibrational                  =    7.452 cal/mol-K

 Cv (constant volume heat capacity) =   15.972 cal/mol-K
   - Translational                  =    2.979 cal/mol-K
   - Rotational                     =    2.979 cal/mol-K
   - Vibrational                    =   10.013 cal/mol-K



          -------------------------------------------------
          NORMAL MODE EIGENVECTORS IN CARTESIAN COORDINATES
          -------------------------------------------------
             (Projected Frequencies expressed in cm-1)

                    1           2           3           4           5           6
 
 P.Frequency       -0.00       -0.00       -0.00       -0.00        0.00        0.00
 
           1     0.00001     0.06722    -0.04686    -0.00000    -0.00000    -0.08155
           2     0.00000    -0.11029    -0.02296    -0.00000     0.00000    -0.00731
           3    -0.22379    -0.00000     0.00000     0.00091     0.00066    -0.00000
           4     0.00001     0.06133    -0.04233    -0.00000    -0.00000    -0.08190
           5     0.00000    -0.06919    -0.05452    -0.00000    -0.00000    -0.00482
           6    -0.17208    -0.00000     0.00000     0.02251    -0.03985    -0.00000
           7    -0.00000    -0.04235     0.03727     0.00000    -0.00000    -0.08819
           8     0.00000    -0.12880    -0.00875    -0.00000     0.00000    -0.00843
           9    -0.00011    -0.00000    -0.00000    -0.16774     0.00085     0.00000
          10     0.00001     0.01662    -0.00800     0.00000    -0.00000    -0.08461
          11     0.00001    -0.12842    -0.00904    -0.00000    -0.00000    -0.00841
          12    -0.12951    -0.00000     0.00000    -0.08397     0.00997    -0.00000
          13    -0.00000     0.01143    -0.00402    -0.00000     0.00000    -0.08493
          14    -0.00000    -0.00311    -0.10526     0.00000    -0.00000    -0.00082
          15    -0.00002    -0.00000    -0.00000    -0.00001    -0.11148     0.00000
          16    -0.00000    -0.02820     0.02641     0.00000    -0.00000    -0.08733
          17     0.00000    -0.05143    -0.06815    -0.00000    -0.00000    -0.00375
          18     0.04166     0.00000    -0.00000    -0.09134    -0.07134     0.00000

                    7           8           9          10          11          12
 
 P.Frequency      162.10      229.38      353.92      485.33      615.93      717.17
 
           1    -0.05087    -0.17649     0.03909    -0.00000     0.00000    -0.00102
           2     0.02035    -0.07471    -0.17519    -0.00000    -0.00001    -0.00384
           3    -0.00000    -0.00001     0.00000     0.02221    -0.01761    -0.00001
           4    -0.06927    -0.18810     0.00885     0.00000    -0.00001     0.05415
           5    -0.02321    -0.09296    -0.20219    -0.00000     0.00001    -0.12698
           6    -0.00001    -0.00000    -0.00002    -0.26540     0.84213     0.00008
           7    -0.12190     0.05044    -0.01016     0.00000    -0.00000     0.00134
           8     0.02702    -0.03082     0.09432     0.00000     0.00000     0.02069
           9    -0.00001     0.00000    -0.00000    -0.01488     0.00678    -0.00000
          10    -0.06849    -0.09138     0.09689    -0.00000     0.00004    -0.08761
          11     0.08149     0.00524     0.09798    -0.00000     0.00000    -0.12690
          12    -0.00001    -0.00001     0.00004    -0.06557    -0.47767     0.00013
          13     0.06594     0.02298    -0.00728     0.00000     0.00000     0.00909
          14    -0.01704     0.03238     0.00136     0.00000    -0.00000     0.00320
          15     0.00000     0.00000    -0.00000    -0.00654    -0.00604     0.00000
          16     0.09729     0.03398     0.08754    -0.00007    -0.00001    -0.71464
          17    -0.02825    -0.00239     0.02623    -0.00001     0.00001    -0.64507
          18     0.00001    -0.00002    -0.00001     0.94717     0.21107    -0.00002

                   13          14          15          16          17          18
 
 P.Frequency      768.59      828.23     1158.81     1399.52     1687.23     2640.91
 
           1     0.00000     0.00793     0.03984     0.00377     0.00744     0.04782
           2    -0.00001    -0.05210     0.01084     0.01441    -0.00838     0.00886
           3    -0.04181     0.00001    -0.00000     0.00000     0.00000     0.00000
           4    -0.00002    -0.02584    -0.10766     0.14166    -0.05980    -0.94915
           5     0.00028     0.79472    -0.25190    -0.46940    -0.00843    -0.05323
           6     0.42534    -0.00014     0.00004     0.00000     0.00000    -0.00001
           7    -0.00000     0.00194     0.01110     0.00009     0.00143     0.00070
           8     0.00000     0.01845    -0.01022     0.01528    -0.01304     0.00275
           9    -0.01381     0.00000    -0.00000     0.00000    -0.00000     0.00000
          10    -0.00015    -0.48243    -0.72640    -0.43009    -0.07214     0.06363
          11    -0.00009    -0.21549     0.42813    -0.57690     0.58818    -0.18633
          12     0.85781    -0.00029    -0.00000    -0.00004     0.00001     0.00000
          13     0.00000     0.00478    -0.00741     0.00444     0.00664     0.00028
          14    -0.00000    -0.00395     0.00323    -0.00257    -0.00630    -0.00066
          15    -0.00257     0.00000    -0.00000     0.00000     0.00000     0.00000
          16     0.00007    -0.08745     0.28582    -0.13772    -0.58467    -0.06301
          17     0.00015     0.07625    -0.28165     0.44800     0.52973     0.02938
          18     0.18812    -0.00007     0.00003    -0.00001    -0.00004    -0.00000



 ----------------------------------------------------------------------------
 Normal Eigenvalue ||    Projected Derivative Dipole Moments (debye/angs)
  Mode   [cm**-1]  ||      [d/dqX]             [d/dqY]           [d/dqZ]
 ------ ---------- || ------------------ ------------------ -----------------
    1       -0.000 ||      -0.000               0.000             0.055
    2       -0.000 ||      -0.039              -0.032             0.000
    3       -0.000 ||      -0.030              -0.025             0.000
    4       -0.000 ||      -0.000               0.000             0.078
    5        0.000 ||       0.000              -0.000            -0.025
    6        0.000 ||      -0.002              -0.002            -0.000
    7      162.096 ||      -0.006               0.014             0.000
    8      229.385 ||      -0.025              -0.022            -0.000
    9      353.919 ||       0.019               0.059            -0.000
   10      485.331 ||      -0.000              -0.000             0.851
   11      615.925 ||      -0.000               0.000             0.108
   12      717.175 ||       0.522               0.545             0.000
   13      768.588 ||       0.000               0.000             0.114
   14      828.231 ||       0.072              -0.028            -0.000
   15     1158.813 ||      -0.108               0.028             0.000
   16     1399.516 ||       0.134               0.103             0.000
   17     1687.232 ||       0.121              -0.087             0.000
   18     2640.908 ||       0.012              -0.060            -0.000
 ----------------------------------------------------------------------------



  
  
 ----------------------------------------------------------------------------
 Normal Eigenvalue ||           Projected Infra Red Intensities
  Mode   [cm**-1]  || [atomic units] [(debye/angs)**2] [(KM/mol)] [arbitrary]
 ------ ---------- || -------------- ----------------- ---------- -----------
    1       -0.000 ||    0.000132           0.003         0.128       0.387
    2       -0.000 ||    0.000110           0.003         0.107       0.324
    3       -0.000 ||    0.000065           0.001         0.063       0.191
    4       -0.000 ||    0.000266           0.006         0.260       0.784
    5        0.000 ||    0.000026           0.001         0.026       0.078
    6        0.000 ||    0.000000           0.000         0.000       0.001
    7      162.096 ||    0.000010           0.000         0.010       0.031
    8      229.385 ||    0.000049           0.001         0.047       0.143
    9      353.919 ||    0.000165           0.004         0.161       0.485
   10      485.331 ||    0.031366           0.724        30.577      92.366
   11      615.925 ||    0.000509           0.012         0.496       1.499
   12      717.175 ||    0.024699           0.570        24.078      72.734
   13      768.588 ||    0.000559           0.013         0.545       1.646
   14      828.231 ||    0.000260           0.006         0.253       0.766
   15     1158.813 ||    0.000542           0.013         0.528       1.596
   16     1399.516 ||    0.001240           0.029         1.209       3.652
   17     1687.232 ||    0.000963           0.022         0.939       2.837
   18     2640.908 ||    0.000163           0.004         0.159       0.481
 ----------------------------------------------------------------------------



 vib:animation  F

 Task  times  cpu:       23.6s     wall:       24.2s


                                NWChem Input Module
                                -------------------


 Summary of allocated global arrays
-----------------------------------
  No active global arrays



                         GA Statistics for process    0
                         ------------------------------

       create   destroy   get      put      acc     scatter   gather  read&inc
calls: 6051     6051     8.19e+05 6.18e+04 7.26e+05 1880        0     4223     
number of processes/call 1.07e+00 1.54e+00 1.02e+00 0.00e+00 0.00e+00
bytes total:             3.94e+08 3.95e+07 4.55e+08 0.00e+00 0.00e+00 3.38e+04
bytes remote:            1.79e+08 1.23e+07 1.67e+08 -1.15e+03 0.00e+00 0.00e+00
Max memory consumed for GA by this process: 1620672 bytes

MA_summarize_allocated_blocks: starting scan ...
MA_summarize_allocated_blocks: scan completed: 0 heap blocks, 0 stack blocks
MA usage statistics:

	allocation statistics:
					      heap	     stack
					      ----	     -----
	current number of blocks	         0	         0
	maximum number of blocks	        24	        49
	current total bytes		         0	         0
	maximum total bytes		   4547048	  82924104
	maximum total K-bytes		      4548	     82925
	maximum total M-bytes		         5	        83


                                     CITATION
                                     --------
                Please cite the following reference when publishing
                           results obtained with NWChem:

                 M. Valiev, E.J. Bylaska, N. Govind, K. Kowalski,
              T.P. Straatsma, H.J.J. van Dam, D. Wang, J. Nieplocha,
                        E. Apra, T.L. Windus, W.A. de Jong
                 "NWChem: a comprehensive and scalable open-source
                  solution for large scale molecular simulations"
                      Comput. Phys. Commun. 181, 1477 (2010)
                           doi:10.1016/j.cpc.2010.04.018

                                      AUTHORS
                                      -------
          E. Apra, E. J. Bylaska, W. A. de Jong, N. Govind, K. Kowalski,
       T. P. Straatsma, M. Valiev, H. J. J. van Dam, D. Wang, T. L. Windus,
        J. Hammond, J. Autschbach, K. Bhaskaran-Nair, J. Brabec, K. Lopata,
    S. A. Fischer, S. Krishnamoorthy, M. Jacquelin, W. Ma, M. Klemm, O. Villa,
      Y. Chen, V. Anisimov, F. Aquino, S. Hirata, M. T. Hackler, V. Konjkov,
            D. Mejia-Rodriguez, T. Risthaus, M. Malagoli, A. Marenich,
   A. Otero-de-la-Roza, J. Mullin, P. Nichols, R. Peverati, J. Pittner, Y. Zhao,
        P.-D. Fan, A. Fonari, M. J. Williamson, R. J. Harrison, J. R. Rehr,
      M. Dupuis, D. Silverstein, D. M. A. Smith, J. Nieplocha, V. Tipparaju,
    M. Krishnan, B. E. Van Kuiken, A. Vazquez-Mayagoitia, L. Jensen, M. Swart,
      Q. Wu, T. Van Voorhis, A. A. Auer, M. Nooijen, L. D. Crosby, E. Brown,
      G. Cisneros, G. I. Fann, H. Fruchtl, J. Garza, K. Hirao, R. A. Kendall,
      J. A. Nichols, K. Tsemekhman, K. Wolinski, J. Anchell, D. E. Bernholdt,
      P. Borowski, T. Clark, D. Clerc, H. Dachsel, M. J. O. Deegan, K. Dyall,
    D. Elwood, E. Glendening, M. Gutowski, A. C. Hess, J. Jaffe, B. G. Johnson,
     J. Ju, R. Kobayashi, R. Kutteh, Z. Lin, R. Littlefield, X. Long, B. Meng,
      T. Nakajima, S. Niu, L. Pollack, M. Rosing, K. Glaesemann, G. Sandrone,
      M. Stave, H. Taylor, G. Thomas, J. H. van Lenthe, A. T. Wong, Z. Zhang.

 Total times  cpu:       25.8s     wall:       26.5s
[0] ARMCI Warning: Freed 1 leaked allocations
