 argument  1 = /home/list1234/source/nwchem-6.8.1/QA/tests/h2o_hcons/h2o_hcons.nw



============================== echo of input deck ==============================
echo
start h2o

basis
  O library 6-31g*
  H library 6-31g*
end


geometry noautoz noautosym nocenter units au
 O                     0.00000000     0.00000000     0.00000000
 H                     0.23701217     0.50006465    -0.66134565
 H                     0.08518191    -0.91769081    -0.30894068
end
driver
clear
maxiter 40
end

####################################
#      TESTING HARM BONDS          #
####################################

#one spring bond
constraints
  spring bond 1 3 5.0 1.30
  fix atom 1:2
end

task dft optimize

constraints
clear
end

#two spring bonds
constraints
  spring bond 1 3 5.0 1.30
  spring bond 1 2 5.0 1.70
  fix atom 1
end
dft;print low;end
task dft optimize

constraints
clear
end

#same thing but without clearing constraints in between
geometry noautoz noautosym nocenter units au
 O                     0.00000000     0.00000000     0.00000000
 H                     0.23701217     0.50006465    -0.66134565
 H                     0.08518191    -0.91769081    -0.30894068
end

constraints
  spring bond 1 3 5.0 1.30
  fix atom 1:2
end
task dft optimize

constraints
  spring bond 1 2 5.0 1.70
  unfix atom 2
end
task dft optimize

constraints
clear
end

#same thing but using namespaces
geometry noautoz noautosym nocenter units au
 O                     0.00000000     0.00000000     0.00000000
 H                     0.23701217     0.50006465    -0.66134565
 H                     0.08518191    -0.91769081    -0.30894068
end

constraints one
  spring bond 1 3 5.0 1.30
  fix atom 1:2
end

constraints two
  spring bond 1 3 5.0 1.30
  spring bond 1 2 5.0 1.70
  fix atom 1
end

set constraints one
task dft optimize

set constraints two
task dft optimize


================================================================================


                                         
                                         


              Northwest Computational Chemistry Package (NWChem) 6.8
              ------------------------------------------------------


                    Environmental Molecular Sciences Laboratory
                       Pacific Northwest National Laboratory
                                Richland, WA 99352

                              Copyright (c) 1994-2017
                       Pacific Northwest National Laboratory
                            Battelle Memorial Institute

             NWChem is an open-source computational chemistry package
                        distributed under the terms of the
                      Educational Community License (ECL) 2.0
             A copy of the license is included with this distribution
                              in the LICENSE.TXT file

                                  ACKNOWLEDGMENT
                                  --------------

            This software and its documentation were developed at the
            EMSL at Pacific Northwest National Laboratory, a multiprogram
            national laboratory, operated for the U.S. Department of Energy
            by Battelle under Contract Number DE-AC05-76RL01830. Support
            for this work was provided by the Department of Energy Office
            of Biological and Environmental Research, Office of Basic
            Energy Sciences, and the Office of Advanced Scientific Computing.


           Job information
           ---------------

    hostname        = list1234-B360M-H
    program         = /home/list1234/source/nwchem-6.8.1/bin/LINUX64/nwchem
    date            = Sun Jun 30 23:30:43 2019

    compiled        = Sun_Jun_30_20:37:07_2019
    source          = /home/list1234/source/nwchem-6.8.1
    nwchem branch   = 6.8.1
    nwchem revision = v6.8-160-gc00cf755d
    ga revision     = 5.6.5
    use scalapack   = T
    input           = /home/list1234/source/nwchem-6.8.1/QA/tests/h2o_hcons/h2o_hcons.nw
    prefix          = h2o.
    data base       = ./h2o.db
    status          = startup
    nproc           =        4
    time left       =     -1s



           Memory information
           ------------------

    heap     =   86247164 doubles =    658.0 Mbytes
    stack    =   86247169 doubles =    658.0 Mbytes
    global   =  172494336 doubles =   1316.0 Mbytes (distinct from heap & stack)
    total    =  344988669 doubles =   2632.1 Mbytes
    verify   = yes
    hardfail = no 


           Directory information
           ---------------------

  0 permanent = .
  0 scratch   = .




                                NWChem Input Module
                                -------------------


                      Basis "ao basis" -> "" (cartesian)
                      -----
  O (Oxygen)
  ----------
            Exponent  Coefficients 
       -------------- ---------------------------------------------------------
  1 S  5.48467170E+03  0.001831
  1 S  8.25234950E+02  0.013950
  1 S  1.88046960E+02  0.068445
  1 S  5.29645000E+01  0.232714
  1 S  1.68975700E+01  0.470193
  1 S  5.79963530E+00  0.358521

  2 S  1.55396160E+01 -0.110778
  2 S  3.59993360E+00 -0.148026
  2 S  1.01376180E+00  1.130767

  3 P  1.55396160E+01  0.070874
  3 P  3.59993360E+00  0.339753
  3 P  1.01376180E+00  0.727159

  4 S  2.70005800E-01  1.000000

  5 P  2.70005800E-01  1.000000

  6 D  8.00000000E-01  1.000000

  H (Hydrogen)
  ------------
            Exponent  Coefficients 
       -------------- ---------------------------------------------------------
  1 S  1.87311370E+01  0.033495
  1 S  2.82539370E+00  0.234727
  1 S  6.40121700E-01  0.813757

  2 S  1.61277800E-01  1.000000



 Summary of "ao basis" -> "" (cartesian)
 ------------------------------------------------------------------------------
       Tag                 Description            Shells   Functions and Types
 ---------------- ------------------------------  ------  ---------------------
 O                           6-31g*                  6       15   3s2p1d
 H                           6-31g*                  2        2   2s




                             Geometry "geometry" -> ""
                             -------------------------

 Output coordinates in a.u. (scale by  1.000000000 to convert to a.u.)

  No.       Tag          Charge          X              Y              Z
 ---- ---------------- ---------- -------------- -------------- --------------
    1 O                    8.0000     0.00000000     0.00000000     0.00000000
    2 H                    1.0000     0.23701217     0.50006465    -0.66134565
    3 H                    1.0000     0.08518191    -0.91769081    -0.30894068

      Atomic Mass 
      ----------- 

      O                 15.994910
      H                  1.007825


 Effective nuclear repulsion energy (a.u.)      18.1881428103

            Nuclear Dipole moment (a.u.) 
            ----------------------------
        X                 Y               Z
 ---------------- ---------------- ----------------
     0.3221940800    -0.4176261600    -0.9702863300


            XYZ format geometry
            -------------------
     3
 geometry
 O                     0.00000000     0.00000000     0.00000000
 H                     0.12542145     0.26462284    -0.34996907
 H                     0.04507633    -0.48562110    -0.16348438

 ==============================================================================
                                internuclear distances
 ------------------------------------------------------------------------------
       center one      |      center two      | atomic units |       a.u.
 ------------------------------------------------------------------------------
    2 H                |   1 O                |     0.86233  |     0.86233
    3 H                |   1 O                |     0.97204  |     0.97204
 ------------------------------------------------------------------------------
                         number of included internuclear distances:          2
 ==============================================================================



 ==============================================================================
                                 internuclear angles
 ------------------------------------------------------------------------------
        center 1       |       center 2       |       center 3       |  degrees
 ------------------------------------------------------------------------------
    2 H                |   1 O                |   3 H                |   106.24
 ------------------------------------------------------------------------------
                            number of included internuclear angles:          1
 ==============================================================================




  Deleted DRIVER restart files 

 fixed atoms                  :   1     2


 spring bond (i,j,k,r0)          1       3   5.000   1.300
 no bondings springs found
 no dihedral springs found
                         NWChem Constraints Module
                         -------------------------
 General Information
 -------------------
 fixed atoms                  :   1     2


 spring bond (i,j,k,r0)          1       3   5.000   1.300
 no bondings springs found
 no dihedral springs found


                           NWChem Geometry Optimization
                           ----------------------------


 maximum gradient threshold         (gmax) =   0.000450
 rms gradient threshold             (grms) =   0.000300
 maximum cartesian step threshold   (xmax) =   0.001800
 rms cartesian step threshold       (xrms) =   0.001200
 fixed trust radius                (trust) =   0.300000
 maximum step size to saddle      (sadstp) =   0.100000
 energy precision                  (eprec) =   5.0D-06
 maximum number of steps          (nptopt) =   40
 initial hessian option           (inhess) =    0
 line search option               (linopt) =    1
 hessian update option            (modupd) =    1
 saddle point option              (modsad) =    0
 initial eigen-mode to follow     (moddir) =    0
 initial variable to follow       (vardir) =    0
 follow first negative mode     (firstneg) =    T
 apply conjugacy                    (opcg) =    F
 source of zmatrix                         =           


          -------------------
          Energy Minimization
          -------------------


 Using diagonal initial Hessian 

          --------
          Step   0
          --------


                         Geometry "geometry" -> "geometry"
                         ---------------------------------

 Output coordinates in a.u. (scale by  1.000000000 to convert to a.u.)

  No.       Tag          Charge          X              Y              Z
 ---- ---------------- ---------- -------------- -------------- --------------
    1 O                    8.0000     0.00000000     0.00000000     0.00000000
    2 H                    1.0000     0.23701217     0.50006465    -0.66134565
    3 H                    1.0000     0.08518191    -0.91769081    -0.30894068

      Atomic Mass 
      ----------- 

      O                 15.994910
      H                  1.007825


 Effective nuclear repulsion energy (a.u.)      18.1881428103

            Nuclear Dipole moment (a.u.) 
            ----------------------------
        X                 Y               Z
 ---------------- ---------------- ----------------
     0.3221940800    -0.4176261600    -0.9702863300


                                 NWChem DFT Module
                                 -----------------




 Summary of "ao basis" -> "ao basis" (cartesian)
 ------------------------------------------------------------------------------
       Tag                 Description            Shells   Functions and Types
 ---------------- ------------------------------  ------  ---------------------
 O                           6-31g*                  6       15   3s2p1d
 H                           6-31g*                  2        2   2s


  Caching 1-el integrals 

            General Information
            -------------------
          SCF calculation type: DFT
          Wavefunction type:  closed shell.
          No. of atoms     :     3
          No. of electrons :    10
           Alpha electrons :     5
            Beta electrons :     5
          Charge           :     0
          Spin multiplicity:     1
          Use of symmetry is: off; symmetry adaption is: off
          Maximum number of iterations:  30
          AO basis - number of functions:    19
                     number of shells:    10
          Convergence on energy requested:  1.00D-06
          Convergence on density requested:  1.00D-05
          Convergence on gradient requested:  5.00D-04

              XC Information
              --------------
                        Slater Exchange Functional  1.000 local    
                      VWN V Correlation Functional  1.000 local    

             Grid Information
             ----------------
          Grid used for XC integration:  medium    
          Radial quadrature: Mura-Knowles        
          Angular quadrature: Lebedev. 
          Tag              B.-S. Rad. Rad. Pts. Rad. Cut. Ang. Pts.
          ---              ---------- --------- --------- ---------
          O                   0.60       49           4.0       434
          H                   0.35       45           5.0       434
          Grid pruning is: on 
          Number of quadrature shells:   139
          Spatial weights used:  Erf1

          Convergence Information
          -----------------------
          Convergence aids based upon iterative change in 
          total energy or number of iterations. 
          Levelshifting, if invoked, occurs when the 
          HOMO/LUMO gap drops below (HL_TOL):  1.00D-02
          DIIS, if invoked, will attempt to extrapolate 
          using up to (NFOCK): 10 stored Fock matrices.

                    Damping( 0%)  Levelshifting(0.5)       DIIS
                  --------------- ------------------- ---------------
          dE  on:    start            ASAP                start   
          dE off:    2 iters         30 iters            30 iters 


      Screening Tolerance Information
      -------------------------------
          Density screening/tol_rho:  1.00D-10
          AO Gaussian exp screening on grid/accAOfunc:  14
          CD Gaussian exp screening on grid/accCDfunc:  20
          XC Gaussian exp screening on grid/accXCfunc:  20
          Schwarz screening/accCoul:  1.00D-08


      Superposition of Atomic Density Guess
      -------------------------------------

 Sum of atomic energies:         -75.75081731

      Non-variational initial energy
      ------------------------------

 Total energy =     -75.526952
 1-e energy   =    -132.190370
 2-e energy   =      38.475276
 HOMO         =      -0.791680
 LUMO         =       0.165836

   Time after variat. SCF:      0.1
   Time prior to 1st pass:      0.1

 #quartets = 1.540D+03 #integrals = 1.424D+04 #direct =  0.0% #cached =100.0%


 Integral file          = ./h2o.aoints.0
 Record size in doubles =  65536        No. of integs per rec  =  43688
 Max. records in memory =      2        Max. records in file   = 161930
 No. of bits per label  =      8        No. of bits per value  =     64


File balance: exchanges=     0  moved=     0  time=   0.0


 Grid_pts file          = ./h2o.gridpts.0
 Record size in doubles =  12289        No. of grid_pts per rec  =   3070
 Max. records in memory =      7        Max. recs in file   =    863563


           Memory utilization after 1st SCF pass: 
           Heap Space remaining (MW):       86.03            86028412
          Stack Space remaining (MW):       86.25            86246932

   convergence    iter        energy       DeltaE   RMS-Dens  Diis-err    time
 ---------------- ----- ----------------- --------- --------- ---------  ------
 d= 0,ls=0.0,diis     1    -73.9245092089 -9.21D+01  5.03D-02  1.26D+00     0.1
 d= 0,ls=0.0,diis     2    -73.9147620730  9.75D-03  2.76D-02  1.18D+00     0.1
 d= 0,ls=0.0,diis     3    -74.0031174656 -8.84D-02  2.74D-03  1.38D-02     0.1
 d= 0,ls=0.0,diis     4    -74.0042400322 -1.12D-03  1.91D-04  5.27D-05     0.1
 d= 0,ls=0.0,diis     5    -74.0042445514 -4.52D-06  1.16D-05  3.08D-07     0.2
 d= 0,ls=0.0,diis     6    -74.0042445732 -2.19D-08  1.36D-06  2.93D-09     0.2


         Total DFT energy =      -74.004244573219
      One electron energy =     -135.564703346129
           Coulomb energy =       52.878507158260
    Exchange-Corr. energy =       -9.506191195664
 Nuclear repulsion energy =       18.188142810314

 Numeric. integr. density =        9.999999722593

     Total iterative time =      0.1s



                       DFT Final Molecular Orbital Analysis
                       ------------------------------------

 Vector    1  Occ=2.000000D+00  E=-1.860233D+01
              MO Center=  1.3D-04, -3.4D-05, -3.9D-04, r^2= 1.5D-02
   Bfn.  Coefficient  Atom+Function         Bfn.  Coefficient  Atom+Function  
  ----- ------------  ---------------      ----- ------------  ---------------
     1      0.989116  1 O  s                  6      0.039947  1 O  s          
     2      0.033372  1 O  s          

 Vector    2  Occ=2.000000D+00  E=-1.206596D+00
              MO Center=  7.6D-02, -6.1D-02, -2.3D-01, r^2= 3.2D-01
   Bfn.  Coefficient  Atom+Function         Bfn.  Coefficient  Atom+Function  
  ----- ------------  ---------------      ----- ------------  ---------------
     2      0.412399  1 O  s                 16      0.300220  2 H  s          
    18      0.265042  3 H  s                  1     -0.240917  1 O  s          
     5     -0.238270  1 O  pz                 6      0.108008  1 O  s          
     3      0.080157  1 O  px                17      0.056807  2 H  s          
     4     -0.055784  1 O  py                 9      0.037167  1 O  pz         

 Vector    3  Occ=2.000000D+00  E=-6.982976D-01
              MO Center=  2.9D-02, -6.4D-02, -9.0D-02, r^2= 4.1D-01
   Bfn.  Coefficient  Atom+Function         Bfn.  Coefficient  Atom+Function  
  ----- ------------  ---------------      ----- ------------  ---------------
     4      0.612397  1 O  py                16      0.309904  2 H  s          
    18     -0.302223  3 H  s                 17      0.184061  2 H  s          
     5     -0.180073  1 O  pz                19     -0.175818  3 H  s          
     3      0.075097  1 O  px                 8      0.053571  1 O  py         
    14     -0.040574  1 O  dyz                6     -0.036846  1 O  s          

 Vector    4  Occ=2.000000D+00  E=-3.589877D-01
              MO Center= -7.9D-02,  8.1D-02,  2.4D-01, r^2= 4.6D-01
   Bfn.  Coefficient  Atom+Function         Bfn.  Coefficient  Atom+Function  
  ----- ------------  ---------------      ----- ------------  ---------------
     5      0.553445  1 O  pz                 6      0.369380  1 O  s          
     9      0.311975  1 O  pz                 2      0.199199  1 O  s          
     4      0.187567  1 O  py                 3     -0.184901  1 O  px         
     7     -0.104269  1 O  px                 8      0.103860  1 O  py         
    18     -0.097056  3 H  s                 16     -0.093305  2 H  s          

 Vector    5  Occ=2.000000D+00  E=-2.995743D-01
              MO Center=  9.8D-03, -9.7D-03, -2.9D-02, r^2= 5.5D-01
   Bfn.  Coefficient  Atom+Function         Bfn.  Coefficient  Atom+Function  
  ----- ------------  ---------------      ----- ------------  ---------------
     3      0.644380  1 O  px                 7      0.439338  1 O  px         
     5      0.220125  1 O  pz                 9      0.150081  1 O  pz         
    12     -0.074724  1 O  dxz               11     -0.028677  1 O  dxy        
    15     -0.028817  1 O  dzz               10      0.028194  1 O  dxx        

 Vector    6  Occ=0.000000D+00  E= 1.269991D-01
              MO Center=  2.0D-01, -2.5D-01, -5.9D-01, r^2= 2.4D+00
   Bfn.  Coefficient  Atom+Function         Bfn.  Coefficient  Atom+Function  
  ----- ------------  ---------------      ----- ------------  ---------------
     6      2.162106  1 O  s                 17     -1.322312  2 H  s          
    19     -1.322700  3 H  s                  9     -0.145833  1 O  pz         
     1     -0.119008  1 O  s                 10     -0.106619  1 O  dxx        
    15     -0.097297  1 O  dzz               13     -0.083906  1 O  dyy        
     8     -0.079229  1 O  py                 2      0.073270  1 O  s          

 Vector    7  Occ=0.000000D+00  E= 2.299027D-01
              MO Center=  1.5D-01, -1.4D-01, -4.6D-01, r^2= 2.9D+00
   Bfn.  Coefficient  Atom+Function         Bfn.  Coefficient  Atom+Function  
  ----- ------------  ---------------      ----- ------------  ---------------
    17      2.958097  2 H  s                 19     -2.803500  3 H  s          
     8     -0.776258  1 O  py                 4     -0.266247  1 O  py         
     9      0.197280  1 O  pz                 6     -0.188333  1 O  s          
     7     -0.084610  1 O  px                 5      0.069489  1 O  pz         
    14      0.053455  1 O  dyz                3     -0.029643  1 O  px         

 Vector    8  Occ=0.000000D+00  E= 7.313379D-01
              MO Center= -8.5D-02,  6.6D-02,  2.5D-01, r^2= 1.3D+00
   Bfn.  Coefficient  Atom+Function         Bfn.  Coefficient  Atom+Function  
  ----- ------------  ---------------      ----- ------------  ---------------
     9      1.282877  1 O  pz                 6     -1.058398  1 O  s          
    17      0.740525  2 H  s                  5     -0.650627  1 O  pz         
     7     -0.433199  1 O  px                16      0.427849  2 H  s          
    18      0.318537  3 H  s                 19      0.283664  3 H  s          
     2     -0.236116  1 O  s                  8      0.227310  1 O  py         

 Vector    9  Occ=0.000000D+00  E= 7.991543D-01
              MO Center= -1.7D-03, -1.1D-04,  5.0D-03, r^2= 1.2D+00
   Bfn.  Coefficient  Atom+Function         Bfn.  Coefficient  Atom+Function  
  ----- ------------  ---------------      ----- ------------  ---------------
     7      1.001398  1 O  px                 3     -0.881968  1 O  px         
     9      0.342085  1 O  pz                 5     -0.301287  1 O  pz         
    12      0.026141  1 O  dxz        

 Vector   10  Occ=0.000000D+00  E= 9.124385D-01
              MO Center= -2.8D-02,  4.0D-02,  8.4D-02, r^2= 1.7D+00
   Bfn.  Coefficient  Atom+Function         Bfn.  Coefficient  Atom+Function  
  ----- ------------  ---------------      ----- ------------  ---------------
    17      2.703355  2 H  s                 19     -2.651425  3 H  s          
     8     -2.452668  1 O  py                18     -0.690765  3 H  s          
    16      0.600086  2 H  s                  9      0.566057  1 O  pz         
     4      0.367443  1 O  py                 7     -0.247770  1 O  px         
    14     -0.085283  1 O  dyz                6     -0.072848  1 O  s          

 Vector   11  Occ=0.000000D+00  E= 1.236467D+00
              MO Center=  8.3D-02, -3.8D-02, -2.5D-01, r^2= 1.7D+00
   Bfn.  Coefficient  Atom+Function         Bfn.  Coefficient  Atom+Function  
  ----- ------------  ---------------      ----- ------------  ---------------
     6      5.495129  1 O  s                 17     -1.767908  2 H  s          
     2     -1.454120  1 O  s                 19     -1.253015  3 H  s          
     9     -0.676012  1 O  pz                13     -0.627725  1 O  dyy        
    16     -0.496661  2 H  s                 18     -0.418831  3 H  s          
    15     -0.308814  1 O  dzz               10     -0.244062  1 O  dxx        

 Vector   12  Occ=0.000000D+00  E= 1.455496D+00
              MO Center=  2.7D-02, -2.5D-01, -9.5D-02, r^2= 8.2D-01
   Bfn.  Coefficient  Atom+Function         Bfn.  Coefficient  Atom+Function  
  ----- ------------  ---------------      ----- ------------  ---------------
    19      1.683812  3 H  s                 17     -1.187372  2 H  s          
     8      0.940801  1 O  py                 6     -0.742569  1 O  s          
    14     -0.692854  1 O  dyz                4     -0.684986  1 O  py         
    13     -0.523326  1 O  dyy               15      0.464965  1 O  dzz        
     2      0.431367  1 O  s                 18     -0.400307  3 H  s          

 Vector   13  Occ=0.000000D+00  E= 1.528397D+00
              MO Center=  3.4D-02,  1.2D-01, -9.2D-02, r^2= 8.0D-01
   Bfn.  Coefficient  Atom+Function         Bfn.  Coefficient  Atom+Function  
  ----- ------------  ---------------      ----- ------------  ---------------
     6      1.922116  1 O  s                 17     -1.188205  2 H  s          
    14     -1.146091  1 O  dyz                2     -0.864787  1 O  s          
    11      0.428623  1 O  dxy               10     -0.420734  1 O  dxx        
    13      0.401105  1 O  dyy               15     -0.387367  1 O  dzz        
     9     -0.327887  1 O  pz                 8      0.289932  1 O  py         

 Vector   14  Occ=0.000000D+00  E= 1.607686D+00
              MO Center=  3.3D-04,  3.3D-03, -7.5D-04, r^2= 6.1D-01
   Bfn.  Coefficient  Atom+Function         Bfn.  Coefficient  Atom+Function  
  ----- ------------  ---------------      ----- ------------  ---------------
    11      1.585975  1 O  dxy               14      0.551084  1 O  dyz        
    12     -0.310185  1 O  dxz               10      0.159874  1 O  dxx        
    15     -0.124618  1 O  dzz               13     -0.035256  1 O  dyy        

 Vector   15  Occ=0.000000D+00  E= 1.644635D+00
              MO Center=  1.9D-03,  4.8D-03, -5.2D-03, r^2= 6.4D-01
   Bfn.  Coefficient  Atom+Function         Bfn.  Coefficient  Atom+Function  
  ----- ------------  ---------------      ----- ------------  ---------------
    12      0.982053  1 O  dxz                6     -0.691521  1 O  s          
    10      0.689747  1 O  dxx               15     -0.592154  1 O  dzz        
     2      0.460992  1 O  s                 17      0.367727  2 H  s          
    14     -0.348596  1 O  dyz                5     -0.169751  1 O  pz         
    16     -0.153795  2 H  s                 18     -0.149634  3 H  s          

 Vector   16  Occ=0.000000D+00  E= 1.663507D+00
              MO Center= -8.4D-03,  6.6D-03,  2.5D-02, r^2= 6.1D-01
   Bfn.  Coefficient  Atom+Function         Bfn.  Coefficient  Atom+Function  
  ----- ------------  ---------------      ----- ------------  ---------------
    12      1.331999  1 O  dxz               15      0.513975  1 O  dzz        
    10     -0.505193  1 O  dxx               11      0.407145  1 O  dxy        
    14      0.101884  1 O  dyz                3      0.052950  1 O  px         

 Vector   17  Occ=0.000000D+00  E= 3.669437D+00
              MO Center=  4.4D-02, -1.0D-01, -1.4D-01, r^2= 1.1D+00
   Bfn.  Coefficient  Atom+Function         Bfn.  Coefficient  Atom+Function  
  ----- ------------  ---------------      ----- ------------  ---------------
     6      6.487817  1 O  s                 10     -1.885072  1 O  dxx        
    15     -1.565342  1 O  dzz               18     -1.377945  3 H  s          
    19     -1.299970  3 H  s                 17     -1.258986  2 H  s          
    13     -0.986475  1 O  dyy                9     -0.802033  1 O  pz         
    16     -0.785974  2 H  s                  8     -0.500648  1 O  py         

 Vector   18  Occ=0.000000D+00  E= 4.157736D+00
              MO Center= -5.6D-03,  1.5D-01,  2.6D-02, r^2= 7.7D-01
   Bfn.  Coefficient  Atom+Function         Bfn.  Coefficient  Atom+Function  
  ----- ------------  ---------------      ----- ------------  ---------------
    18      3.784850  3 H  s                 13     -2.132054  1 O  dyy        
     8      1.605261  1 O  py                14     -1.299008  1 O  dyz        
     2     -1.259221  1 O  s                 17     -1.263866  2 H  s          
     4      1.190772  1 O  py                 6      1.051365  1 O  s          
    19      0.705149  3 H  s                  5      0.490814  1 O  pz         

 Vector   19  Occ=0.000000D+00  E= 4.867139D+00
              MO Center= -2.5D-02, -6.3D-02,  7.0D-02, r^2= 6.9D-01
   Bfn.  Coefficient  Atom+Function         Bfn.  Coefficient  Atom+Function  
  ----- ------------  ---------------      ----- ------------  ---------------
    16      4.698920  2 H  s                 14      1.996555  1 O  dyz        
     2     -1.809543  1 O  s                  8     -1.384835  1 O  py         
     5      1.303683  1 O  pz                15     -1.198345  1 O  dzz        
    17      1.164575  2 H  s                  9      1.090028  1 O  pz         
    19     -1.024610  3 H  s                  4     -0.987054  1 O  py         


 center of mass
 --------------
 x =   0.01802916 y =  -0.02336929 z =  -0.05429475

 moments of inertia (a.u.)
 ------------------
           1.574829772513          -0.048254862831           0.166865261107
          -0.048254862831           0.541970792687           0.070425264324
           0.166865261107           0.070425264324           1.149004438083

     Multipole analysis of the density
     ---------------------------------

     L   x y z        total         alpha         beta         nuclear
     -   - - -        -----         -----         ----         -------
     0   0 0 0     -0.000000     -5.000000     -5.000000     10.000000

     1   1 0 0      0.183688     -0.069253     -0.069253      0.322194
     1   0 1 0     -0.212219      0.102704      0.102704     -0.417626
     1   0 0 1     -0.551496      0.209395      0.209395     -0.970286

     2   2 0 0     -4.434271     -2.248851     -2.248851      0.063431
     2   1 1 0      0.053150      0.006400      0.006400      0.040351
     2   1 0 1     -0.196437     -0.006687     -0.006687     -0.183063
     2   0 2 0     -3.481469     -2.286845     -2.286845      1.092221
     2   0 1 1     -0.089289     -0.021043     -0.021043     -0.047204
     2   0 0 2     -3.933314     -2.233068     -2.233068      0.532822


 Parallel integral file used       4 records with       0 large values


            General Information
            -------------------
          SCF calculation type: DFT
          Wavefunction type:  closed shell.
          No. of atoms     :     3
          No. of electrons :    10
           Alpha electrons :     5
            Beta electrons :     5
          Charge           :     0
          Spin multiplicity:     1
          Use of symmetry is: off; symmetry adaption is: off
          Maximum number of iterations:  30
          AO basis - number of functions:    19
                     number of shells:    10
          Convergence on energy requested:  1.00D-06
          Convergence on density requested:  1.00D-05
          Convergence on gradient requested:  5.00D-04

              XC Information
              --------------
                        Slater Exchange Functional  1.000 local    
                      VWN V Correlation Functional  1.000 local    

             Grid Information
             ----------------
          Grid used for XC integration:  medium    
          Radial quadrature: Mura-Knowles        
          Angular quadrature: Lebedev. 
          Tag              B.-S. Rad. Rad. Pts. Rad. Cut. Ang. Pts.
          ---              ---------- --------- --------- ---------
          O                   0.60       49           4.0       434
          H                   0.35       45           5.0       434
          Grid pruning is: on 
          Number of quadrature shells:   139
          Spatial weights used:  Erf1

          Convergence Information
          -----------------------
          Convergence aids based upon iterative change in 
          total energy or number of iterations. 
          Levelshifting, if invoked, occurs when the 
          HOMO/LUMO gap drops below (HL_TOL):  1.00D-02
          DIIS, if invoked, will attempt to extrapolate 
          using up to (NFOCK): 10 stored Fock matrices.

                    Damping( 0%)  Levelshifting(0.5)       DIIS
                  --------------- ------------------- ---------------
          dE  on:    start            ASAP                start   
          dE off:    2 iters         30 iters            30 iters 


      Screening Tolerance Information
      -------------------------------
          Density screening/tol_rho:  1.00D-10
          AO Gaussian exp screening on grid/accAOfunc:  14
          CD Gaussian exp screening on grid/accCDfunc:  20
          XC Gaussian exp screening on grid/accXCfunc:  20
          Schwarz screening/accCoul:  1.00D-08



                            NWChem DFT Gradient Module
                            --------------------------



  charge          =   0.00
  wavefunction    = closed shell



                         DFT ENERGY GRADIENTS

    atom               coordinates                        gradient
                 x          y          z           x          y          z
   1 O       0.000000   0.000000   0.000000    0.000000   0.000000   0.000000
   2 H       0.237012   0.500065  -0.661346    0.000000   0.000000   0.000000
   3 H       0.085182  -0.917691  -0.308941   -0.238388   2.867064   0.883998

                 ----------------------------------------
                 |  Time  |  1-e(secs)   |  2-e(secs)   |
                 ----------------------------------------
                 |  CPU   |       0.00   |       0.01   |
                 ----------------------------------------
                 |  WALL  |       0.00   |       0.01   |
                 ----------------------------------------
 adding spring #                     1
   spring parameters (i,j,k,r0):                    1                    3   5.0000000000000000        1.3000000000000003     
   spring length and energy    :  0.97203740890387968       0.53779730579240592     
   spring forces               :  0.28740128375943069       -3.0962620688856561       -1.0423568576651012     
   spring deriv                :   3.2796259109612058     

@ Step       Energy      Delta E   Gmax     Grms     Xrms     Xmax   Walltime
@ ---- ---------------- -------- -------- -------- -------- -------- --------
@    0     -73.46644727  0.0D+00  5.96333  2.09625  0.00000  0.00000      0.2
                                                                    

 Restricting large step in mode    1 eval= 1.5D-01 step=-2.9D+00 new=-3.0D-01
 Restricting large step in mode    2 eval= 2.0D-01 step= 1.6D+00 new= 3.0D-01
 Restricting large step in mode    9 eval= 1.1D+00 step=-6.0D+00 new=-3.0D-01
 Restricting overall step due to large component. alpha=  0.68

                                 NWChem DFT Module
                                 -----------------




 Summary of "ao basis" -> "ao basis" (cartesian)
 ------------------------------------------------------------------------------
       Tag                 Description            Shells   Functions and Types
 ---------------- ------------------------------  ------  ---------------------
 O                           6-31g*                  6       15   3s2p1d
 H                           6-31g*                  2        2   2s


  Caching 1-el integrals 

            General Information
            -------------------
          SCF calculation type: DFT
          Wavefunction type:  closed shell.
          No. of atoms     :     3
          No. of electrons :    10
           Alpha electrons :     5
            Beta electrons :     5
          Charge           :     0
          Spin multiplicity:     1
          Use of symmetry is: off; symmetry adaption is: off
          Maximum number of iterations:  30
          AO basis - number of functions:    19
                     number of shells:    10
          Convergence on energy requested:  1.00D-06
          Convergence on density requested:  1.00D-05
          Convergence on gradient requested:  5.00D-04

              XC Information
              --------------
                        Slater Exchange Functional  1.000 local    
                      VWN V Correlation Functional  1.000 local    

             Grid Information
             ----------------
          Grid used for XC integration:  medium    
          Radial quadrature: Mura-Knowles        
          Angular quadrature: Lebedev. 
          Tag              B.-S. Rad. Rad. Pts. Rad. Cut. Ang. Pts.
          ---              ---------- --------- --------- ---------
          O                   0.60       49           5.0       434
          H                   0.35       45           5.0       434
          Grid pruning is: on 
          Number of quadrature shells:   139
          Spatial weights used:  Erf1

          Convergence Information
          -----------------------
          Convergence aids based upon iterative change in 
          total energy or number of iterations. 
          Levelshifting, if invoked, occurs when the 
          HOMO/LUMO gap drops below (HL_TOL):  1.00D-02
          DIIS, if invoked, will attempt to extrapolate 
          using up to (NFOCK): 10 stored Fock matrices.

                    Damping( 0%)  Levelshifting(0.5)       DIIS
                  --------------- ------------------- ---------------
          dE  on:    start            ASAP                start   
          dE off:    2 iters         30 iters            30 iters 


      Screening Tolerance Information
      -------------------------------
          Density screening/tol_rho:  1.00D-10
          AO Gaussian exp screening on grid/accAOfunc:  14
          CD Gaussian exp screening on grid/accCDfunc:  20
          XC Gaussian exp screening on grid/accXCfunc:  20
          Schwarz screening/accCoul:  1.00D-08


 Loading old vectors from job with title :



   Time after variat. SCF:      0.2
   Time prior to 1st pass:      0.2

 #quartets = 1.540D+03 #integrals = 1.424D+04 #direct =  0.0% #cached =100.0%


 Integral file          = ./h2o.aoints.0
 Record size in doubles =  65536        No. of integs per rec  =  43688
 Max. records in memory =      2        Max. records in file   = 161930
 No. of bits per label  =      8        No. of bits per value  =     64


File balance: exchanges=     0  moved=     0  time=   0.0


 Grid_pts file          = ./h2o.gridpts.0
 Record size in doubles =  12289        No. of grid_pts per rec  =   3070
 Max. records in memory =      7        Max. recs in file   =    863563


           Memory utilization after 1st SCF pass: 
           Heap Space remaining (MW):       86.03            86028412
          Stack Space remaining (MW):       86.25            86246932

   convergence    iter        energy       DeltaE   RMS-Dens  Diis-err    time
 ---------------- ----- ----------------- --------- --------- ---------  ------
 d= 0,ls=0.0,diis     1    -74.4570286464 -9.09D+01  2.40D-02  2.00D-01     0.3
 d= 0,ls=0.0,diis     2    -74.4699623372 -1.29D-02  8.73D-03  7.70D-02     0.3
 d= 0,ls=0.0,diis     3    -74.4748667408 -4.90D-03  2.73D-03  1.38D-02     0.3
 d= 0,ls=0.0,diis     4    -74.4759284795 -1.06D-03  2.64D-04  5.88D-05     0.3
 d= 0,ls=0.0,diis     5    -74.4759337343 -5.25D-06  1.60D-05  1.42D-07     0.3
 d= 0,ls=0.0,diis     6    -74.4759337483 -1.39D-08  5.47D-07  4.91D-10     0.3


         Total DFT energy =      -74.475933748260
      One electron energy =     -133.289997896037
           Coulomb energy =       51.763768026958
    Exchange-Corr. energy =       -9.368567455379
 Nuclear repulsion energy =       16.418863576198

 Numeric. integr. density =        9.999997171331

     Total iterative time =      0.1s



                       DFT Final Molecular Orbital Analysis
                       ------------------------------------

 Vector    1  Occ=2.000000D+00  E=-1.859314D+01
              MO Center=  1.4D-04,  1.1D-04, -3.9D-04, r^2= 1.5D-02
   Bfn.  Coefficient  Atom+Function         Bfn.  Coefficient  Atom+Function  
  ----- ------------  ---------------      ----- ------------  ---------------
     1      0.989560  1 O  s                  6      0.036573  1 O  s          
     2      0.033424  1 O  s          

 Vector    2  Occ=2.000000D+00  E=-1.193095D+00
              MO Center=  9.4D-02, -8.1D-03, -2.6D-01, r^2= 3.2D-01
   Bfn.  Coefficient  Atom+Function         Bfn.  Coefficient  Atom+Function  
  ----- ------------  ---------------      ----- ------------  ---------------
     2      0.418559  1 O  s                 16      0.320618  2 H  s          
     5     -0.261967  1 O  pz                 1     -0.225796  1 O  s          
    18      0.205476  3 H  s                  6      0.108775  1 O  s          
     3      0.093539  1 O  px                17      0.086933  2 H  s          
     9      0.033854  1 O  pz                 8     -0.031013  1 O  py         

 Vector    3  Occ=2.000000D+00  E=-6.104945D-01
              MO Center=  3.9D-02, -1.3D-01, -1.1D-01, r^2= 4.6D-01
   Bfn.  Coefficient  Atom+Function         Bfn.  Coefficient  Atom+Function  
  ----- ------------  ---------------      ----- ------------  ---------------
     4      0.605051  1 O  py                16      0.286925  2 H  s          
    18     -0.275517  3 H  s                  8      0.145406  1 O  py         
    17      0.145166  2 H  s                 19     -0.137735  3 H  s          
     5     -0.121414  1 O  pz                 6     -0.107457  1 O  s          
    14     -0.063583  1 O  dyz                3      0.044457  1 O  px         

 Vector    4  Occ=2.000000D+00  E=-3.664551D-01
              MO Center= -8.7D-02,  5.6D-02,  2.4D-01, r^2= 4.6D-01
   Bfn.  Coefficient  Atom+Function         Bfn.  Coefficient  Atom+Function  
  ----- ------------  ---------------      ----- ------------  ---------------
     5      0.540479  1 O  pz                 6      0.419641  1 O  s          
     9      0.305693  1 O  pz                 2      0.216654  1 O  s          
     3     -0.192716  1 O  px                 4      0.124315  1 O  py         
     7     -0.109003  1 O  px                18     -0.107047  3 H  s          
     1     -0.098389  1 O  s                 16     -0.095348  2 H  s          

 Vector    5  Occ=2.000000D+00  E=-2.890324D-01
              MO Center=  1.2D-02, -5.6D-03, -3.3D-02, r^2= 5.6D-01
   Bfn.  Coefficient  Atom+Function         Bfn.  Coefficient  Atom+Function  
  ----- ------------  ---------------      ----- ------------  ---------------
     3      0.631309  1 O  px                 7      0.448386  1 O  px         
     5      0.225369  1 O  pz                 9      0.160068  1 O  pz         
    12     -0.082372  1 O  dxz               10      0.033667  1 O  dxx        
    15     -0.033696  1 O  dzz        

 Vector    6  Occ=0.000000D+00  E= 1.118405D-01
              MO Center=  2.4D-01, -3.3D-01, -6.8D-01, r^2= 2.3D+00
   Bfn.  Coefficient  Atom+Function         Bfn.  Coefficient  Atom+Function  
  ----- ------------  ---------------      ----- ------------  ---------------
     6      1.948111  1 O  s                 19     -1.312465  3 H  s          
    17     -1.157871  2 H  s                  9     -0.206363  1 O  pz         
     8     -0.177938  1 O  py                 1     -0.112169  1 O  s          
     5     -0.099960  1 O  pz                10     -0.092118  1 O  dxx        
     2      0.091059  1 O  s                  4     -0.091512  1 O  py         

 Vector    7  Occ=0.000000D+00  E= 2.301822D-01
              MO Center=  2.1D-01, -6.7D-03, -5.8D-01, r^2= 2.8D+00
   Bfn.  Coefficient  Atom+Function         Bfn.  Coefficient  Atom+Function  
  ----- ------------  ---------------      ----- ------------  ---------------
    17      2.994531  2 H  s                 19     -2.409871  3 H  s          
     8     -0.778657  1 O  py                 6     -0.678817  1 O  s          
     4     -0.295844  1 O  py                 9      0.079282  1 O  pz         
    14      0.059652  1 O  dyz               13      0.039049  1 O  dyy        
    10      0.034238  1 O  dxx               15      0.030933  1 O  dzz        

 Vector    8  Occ=0.000000D+00  E= 7.266117D-01
              MO Center= -1.2D-01, -6.3D-02,  3.4D-01, r^2= 1.3D+00
   Bfn.  Coefficient  Atom+Function         Bfn.  Coefficient  Atom+Function  
  ----- ------------  ---------------      ----- ------------  ---------------
     9      1.325680  1 O  pz                17      1.197060  2 H  s          
     6     -0.924663  1 O  s                  5     -0.637065  1 O  pz         
    16      0.579665  2 H  s                  7     -0.474099  1 O  px         
     8     -0.460779  1 O  py                 2     -0.264737  1 O  s          
     3      0.227319  1 O  px                19     -0.175955  3 H  s          

 Vector    9  Occ=0.000000D+00  E= 8.057661D-01
              MO Center= -1.4D-03, -4.0D-03,  3.8D-03, r^2= 1.2D+00
   Bfn.  Coefficient  Atom+Function         Bfn.  Coefficient  Atom+Function  
  ----- ------------  ---------------      ----- ------------  ---------------
     7      0.991692  1 O  px                 3     -0.885264  1 O  px         
     9      0.354021  1 O  pz                 5     -0.316027  1 O  pz         

 Vector   10  Occ=0.000000D+00  E= 8.750476D-01
              MO Center= -3.8D-02,  1.5D-01,  1.1D-01, r^2= 1.4D+00
   Bfn.  Coefficient  Atom+Function         Bfn.  Coefficient  Atom+Function  
  ----- ------------  ---------------      ----- ------------  ---------------
     8      2.036009  1 O  py                17     -1.789612  2 H  s          
    19      1.602881  3 H  s                 18      0.855899  3 H  s          
    16     -0.467814  2 H  s                  4     -0.332101  1 O  py         
     6      0.285781  1 O  s                  5     -0.176566  1 O  pz         
     9      0.156502  1 O  pz                14      0.126867  1 O  dyz        

 Vector   11  Occ=0.000000D+00  E= 1.231477D+00
              MO Center=  1.1D-01, -3.8D-01, -3.1D-01, r^2= 1.6D+00
   Bfn.  Coefficient  Atom+Function         Bfn.  Coefficient  Atom+Function  
  ----- ------------  ---------------      ----- ------------  ---------------
     6      4.796500  1 O  s                 19     -1.614040  3 H  s          
     2     -1.595841  1 O  s                 17     -1.090133  2 H  s          
     9     -0.674237  1 O  pz                 8     -0.508091  1 O  py         
     4      0.470553  1 O  py                15     -0.438961  1 O  dzz        
    16     -0.407689  2 H  s                 13     -0.397880  1 O  dyy        

 Vector   12  Occ=0.000000D+00  E= 1.297140D+00
              MO Center=  8.7D-02,  3.3D-02, -2.4D-01, r^2= 1.1D+00
   Bfn.  Coefficient  Atom+Function         Bfn.  Coefficient  Atom+Function  
  ----- ------------  ---------------      ----- ------------  ---------------
     6      2.704385  1 O  s                 17     -2.374944  2 H  s          
    19      1.053015  3 H  s                  8      0.944803  1 O  py         
    18     -0.774999  3 H  s                  4     -0.703351  1 O  py         
     9     -0.582103  1 O  pz                13     -0.543842  1 O  dyy        
     2     -0.490292  1 O  s                 14     -0.440141  1 O  dyz        

 Vector   13  Occ=0.000000D+00  E= 1.550346D+00
              MO Center=  6.0D-03,  8.0D-02, -1.6D-02, r^2= 6.8D-01
   Bfn.  Coefficient  Atom+Function         Bfn.  Coefficient  Atom+Function  
  ----- ------------  ---------------      ----- ------------  ---------------
     6      1.032676  1 O  s                 14     -0.944119  1 O  dyz        
    17     -0.805230  2 H  s                 13      0.663295  1 O  dyy        
    15     -0.584708  1 O  dzz                2     -0.464217  1 O  s          
    11      0.340434  1 O  dxy               10     -0.299658  1 O  dxx        
     8      0.280651  1 O  py                12      0.230993  1 O  dxz        

 Vector   14  Occ=0.000000D+00  E= 1.605599D+00
              MO Center=  1.9D-02,  4.1D-02, -5.3D-02, r^2= 6.8D-01
   Bfn.  Coefficient  Atom+Function         Bfn.  Coefficient  Atom+Function  
  ----- ------------  ---------------      ----- ------------  ---------------
     6      0.978664  1 O  s                 12     -0.963275  1 O  dxz        
    17     -0.833389  2 H  s                 10     -0.644397  1 O  dxx        
     2     -0.622004  1 O  s                 15      0.531911  1 O  dzz        
    14     -0.319301  1 O  dyz                8      0.300489  1 O  py         
    16      0.274169  2 H  s                  5      0.257444  1 O  pz         

 Vector   15  Occ=0.000000D+00  E= 1.625563D+00
              MO Center= -2.5D-04,  1.2D-02,  7.5D-04, r^2= 6.1D-01
   Bfn.  Coefficient  Atom+Function         Bfn.  Coefficient  Atom+Function  
  ----- ------------  ---------------      ----- ------------  ---------------
    11      1.627232  1 O  dxy               14      0.580683  1 O  dyz        
    12      0.092628  1 O  dxz               15      0.037459  1 O  dzz        
    10     -0.034462  1 O  dxx        

 Vector   16  Occ=0.000000D+00  E= 1.650311D+00
              MO Center= -1.0D-02, -2.1D-03,  2.9D-02, r^2= 6.1D-01
   Bfn.  Coefficient  Atom+Function         Bfn.  Coefficient  Atom+Function  
  ----- ------------  ---------------      ----- ------------  ---------------
    12      1.334592  1 O  dxz               10     -0.546249  1 O  dxx        
    15      0.546044  1 O  dzz               11     -0.110214  1 O  dxy        
     3      0.052623  1 O  px                14     -0.042521  1 O  dyz        

 Vector   17  Occ=0.000000D+00  E= 3.051537D+00
              MO Center=  1.3D-02, -4.6D-02, -3.6D-02, r^2= 8.4D-01
   Bfn.  Coefficient  Atom+Function         Bfn.  Coefficient  Atom+Function  
  ----- ------------  ---------------      ----- ------------  ---------------
    18      2.706360  3 H  s                  6     -2.343880  1 O  s          
    14     -1.694648  1 O  dyz                8      1.177079  1 O  py         
    13     -0.849855  1 O  dyy                9      0.780769  1 O  pz         
    10      0.766584  1 O  dxx               19      0.705790  3 H  s          
    11      0.598708  1 O  dxy                4      0.501781  1 O  py         

 Vector   18  Occ=0.000000D+00  E= 3.700062D+00
              MO Center=  2.3D-02,  8.9D-02, -6.3D-02, r^2= 1.1D+00
   Bfn.  Coefficient  Atom+Function         Bfn.  Coefficient  Atom+Function  
  ----- ------------  ---------------      ----- ------------  ---------------
     6      5.741699  1 O  s                 13     -1.836253  1 O  dyy        
    10     -1.751521  1 O  dxx               17     -1.722877  2 H  s          
    15     -1.615577  1 O  dzz                9     -0.617974  1 O  pz         
    16     -0.584042  2 H  s                 14     -0.563779  1 O  dyz        
    19     -0.548674  3 H  s                 18      0.527926  3 H  s          

 Vector   19  Occ=0.000000D+00  E= 4.785642D+00
              MO Center= -2.7D-02, -5.8D-02,  7.4D-02, r^2= 6.7D-01
   Bfn.  Coefficient  Atom+Function         Bfn.  Coefficient  Atom+Function  
  ----- ------------  ---------------      ----- ------------  ---------------
    16      4.666398  2 H  s                 14      1.986984  1 O  dyz        
     2     -1.771296  1 O  s                  5      1.315132  1 O  pz         
     6     -1.222207  1 O  s                  8     -1.138059  1 O  py         
    15     -1.048975  1 O  dzz                9      1.039087  1 O  pz         
     4     -0.976811  1 O  py                17      0.977346  2 H  s          


 center of mass
 --------------
 x =   0.02531877 y =  -0.03068670 z =  -0.07108198

 moments of inertia (a.u.)
 ------------------
           2.066437316367           0.094218347701           0.257784146726
           0.094218347701           0.815361698694          -0.270855296313
           0.257784146726          -0.270855296313           1.434779301471

     Multipole analysis of the density
     ---------------------------------

     L   x y z        total         alpha         beta         nuclear
     -   - - -        -----         -----         ----         -------
     0   0 0 0     -0.000000     -5.000000     -5.000000     10.000000

     1   1 0 0      0.232277     -0.110094     -0.110094      0.452465
     1   0 1 0     -0.215415      0.166489      0.166489     -0.548393
     1   0 0 1     -0.651772      0.309257      0.309257     -1.270286

     2   2 0 0     -4.564743     -2.333669     -2.333669      0.102595
     2   1 1 0     -0.022801      0.042285      0.042285     -0.107371
     2   1 0 1     -0.261139      0.013403      0.013403     -0.287945
     2   0 2 0     -3.555504     -2.452416     -2.452416      1.349329
     2   0 1 1      0.069557     -0.119088     -0.119088      0.307733
     2   0 0 2     -3.926056     -2.367122     -2.367122      0.808187


 Parallel integral file used       4 records with       0 large values

 adding spring #                     1
   spring parameters (i,j,k,r0):                    1                    3   5.0000000000000000        1.3000000000000003     
   spring length and energy    :   1.2314596553316386        2.3488894236289075E-002
 Line search: 
     step= 0.68 grad=-2.1D+00 hess= 9.6D-01 energy=    -74.452445 mode=downhill
 new step= 1.10                   predicted energy=    -74.621615

          --------
          Step   1
          --------


                         Geometry "geometry" -> "geometry"
                         ---------------------------------

 Output coordinates in a.u. (scale by  1.000000000 to convert to a.u.)

  No.       Tag          Charge          X              Y              Z
 ---- ---------------- ---------- -------------- -------------- --------------
    1 O                    8.0000     0.00000000     0.00000000     0.00000000
    2 H                    1.0000     0.23701217     0.50006465    -0.66134565
    3 H                    1.0000     0.29620882    -1.12952240    -0.79491451

      Atomic Mass 
      ----------- 

      O                 15.994910
      H                  1.007825


 Effective nuclear repulsion energy (a.u.)      15.5516644688

            Nuclear Dipole moment (a.u.) 
            ----------------------------
        X                 Y               Z
 ---------------- ---------------- ----------------
     0.5332209936    -0.6294577505    -1.4562601599


                                 NWChem DFT Module
                                 -----------------




 Summary of "ao basis" -> "ao basis" (cartesian)
 ------------------------------------------------------------------------------
       Tag                 Description            Shells   Functions and Types
 ---------------- ------------------------------  ------  ---------------------
 O                           6-31g*                  6       15   3s2p1d
 H                           6-31g*                  2        2   2s


  Caching 1-el integrals 

            General Information
            -------------------
          SCF calculation type: DFT
          Wavefunction type:  closed shell.
          No. of atoms     :     3
          No. of electrons :    10
           Alpha electrons :     5
            Beta electrons :     5
          Charge           :     0
          Spin multiplicity:     1
          Use of symmetry is: off; symmetry adaption is: off
          Maximum number of iterations:  30
          AO basis - number of functions:    19
                     number of shells:    10
          Convergence on energy requested:  1.00D-06
          Convergence on density requested:  1.00D-05
          Convergence on gradient requested:  5.00D-04

              XC Information
              --------------
                        Slater Exchange Functional  1.000 local    
                      VWN V Correlation Functional  1.000 local    

             Grid Information
             ----------------
          Grid used for XC integration:  medium    
          Radial quadrature: Mura-Knowles        
          Angular quadrature: Lebedev. 
          Tag              B.-S. Rad. Rad. Pts. Rad. Cut. Ang. Pts.
          ---              ---------- --------- --------- ---------
          O                   0.60       49           5.0       434
          H                   0.35       45           5.0       434
          Grid pruning is: on 
          Number of quadrature shells:   139
          Spatial weights used:  Erf1

          Convergence Information
          -----------------------
          Convergence aids based upon iterative change in 
          total energy or number of iterations. 
          Levelshifting, if invoked, occurs when the 
          HOMO/LUMO gap drops below (HL_TOL):  1.00D-02
          DIIS, if invoked, will attempt to extrapolate 
          using up to (NFOCK): 10 stored Fock matrices.

                    Damping( 0%)  Levelshifting(0.5)       DIIS
                  --------------- ------------------- ---------------
          dE  on:    start            ASAP                start   
          dE off:    2 iters         30 iters            30 iters 


      Screening Tolerance Information
      -------------------------------
          Density screening/tol_rho:  1.00D-10
          AO Gaussian exp screening on grid/accAOfunc:  14
          CD Gaussian exp screening on grid/accCDfunc:  20
          XC Gaussian exp screening on grid/accXCfunc:  20
          Schwarz screening/accCoul:  1.00D-08


 Loading old vectors from job with title :



   Time after variat. SCF:      0.3
   Time prior to 1st pass:      0.3

 #quartets = 1.540D+03 #integrals = 1.424D+04 #direct =  0.0% #cached =100.0%


 Integral file          = ./h2o.aoints.0
 Record size in doubles =  65536        No. of integs per rec  =  43688
 Max. records in memory =      2        Max. records in file   = 161930
 No. of bits per label  =      8        No. of bits per value  =     64


File balance: exchanges=     0  moved=     0  time=   0.0


 Grid_pts file          = ./h2o.gridpts.0
 Record size in doubles =  12289        No. of grid_pts per rec  =   3070
 Max. records in memory =      7        Max. recs in file   =    863563


           Memory utilization after 1st SCF pass: 
           Heap Space remaining (MW):       86.03            86028412
          Stack Space remaining (MW):       86.25            86246932

   convergence    iter        energy       DeltaE   RMS-Dens  Diis-err    time
 ---------------- ----- ----------------- --------- --------- ---------  ------
 d= 0,ls=0.0,diis     1    -74.6001543356 -9.02D+01  1.16D-02  5.25D-02     0.4
 d= 0,ls=0.0,diis     2    -74.6039227986 -3.77D-03  4.86D-03  2.59D-02     0.4
 d= 0,ls=0.0,diis     3    -74.6056911418 -1.77D-03  1.46D-03  3.57D-03     0.4
 d= 0,ls=0.0,diis     4    -74.6059693201 -2.78D-04  1.85D-04  3.01D-05     0.4
 d= 0,ls=0.0,diis     5    -74.6059720717 -2.75D-06  1.13D-05  6.39D-08     0.4
 d= 0,ls=0.0,diis     6    -74.6059720784 -6.72D-09  7.63D-07  6.99D-10     0.5


         Total DFT energy =      -74.605972078373
      One electron energy =     -131.997363106884
           Coulomb energy =       51.132403996104
    Exchange-Corr. energy =       -9.292677436396
 Nuclear repulsion energy =       15.551664468803

 Numeric. integr. density =       10.000002854339

     Total iterative time =      0.1s



                       DFT Final Molecular Orbital Analysis
                       ------------------------------------

 Vector    1  Occ=2.000000D+00  E=-1.859864D+01
              MO Center=  1.3D-04,  1.6D-04, -3.7D-04, r^2= 1.5D-02
   Bfn.  Coefficient  Atom+Function         Bfn.  Coefficient  Atom+Function  
  ----- ------------  ---------------      ----- ------------  ---------------
     1      0.989739  1 O  s                  6      0.034955  1 O  s          
     2      0.033397  1 O  s          

 Vector    2  Occ=2.000000D+00  E=-1.172752D+00
              MO Center=  9.9D-02,  2.5D-02, -2.7D-01, r^2= 3.2D-01
   Bfn.  Coefficient  Atom+Function         Bfn.  Coefficient  Atom+Function  
  ----- ------------  ---------------      ----- ------------  ---------------
     2      0.416639  1 O  s                 16      0.335774  2 H  s          
     5     -0.263950  1 O  pz                 1     -0.221369  1 O  s          
    18      0.173696  3 H  s                  6      0.116026  1 O  s          
     3      0.095598  1 O  px                17      0.095616  2 H  s          
     4      0.046299  1 O  py                 8     -0.042214  1 O  py         

 Vector    3  Occ=2.000000D+00  E=-5.658919D-01
              MO Center=  4.7D-02, -1.8D-01, -1.3D-01, r^2= 5.0D-01
   Bfn.  Coefficient  Atom+Function         Bfn.  Coefficient  Atom+Function  
  ----- ------------  ---------------      ----- ------------  ---------------
     4      0.594358  1 O  py                16      0.268599  2 H  s          
    18     -0.262479  3 H  s                  8      0.184652  1 O  py         
     6     -0.149364  1 O  s                 19     -0.139887  3 H  s          
    17      0.135539  2 H  s                  5     -0.104638  1 O  pz         
    14     -0.073192  1 O  dyz                2     -0.052423  1 O  s          

 Vector    4  Occ=2.000000D+00  E=-3.680098D-01
              MO Center= -8.6D-02,  4.3D-02,  2.4D-01, r^2= 4.7D-01
   Bfn.  Coefficient  Atom+Function         Bfn.  Coefficient  Atom+Function  
  ----- ------------  ---------------      ----- ------------  ---------------
     5      0.532551  1 O  pz                 6      0.439161  1 O  s          
     9      0.300527  1 O  pz                 2      0.223467  1 O  s          
     3     -0.194153  1 O  px                18     -0.118030  3 H  s          
     7     -0.109557  1 O  px                 1     -0.103172  1 O  s          
     4      0.101147  1 O  py                16     -0.097446  2 H  s          

 Vector    5  Occ=2.000000D+00  E=-2.818419D-01
              MO Center=  1.2D-02, -2.4D-03, -3.4D-02, r^2= 5.7D-01
   Bfn.  Coefficient  Atom+Function         Bfn.  Coefficient  Atom+Function  
  ----- ------------  ---------------      ----- ------------  ---------------
     3      0.626375  1 O  px                 7      0.451535  1 O  px         
     5      0.227580  1 O  pz                 9      0.164056  1 O  pz         
    12     -0.082564  1 O  dxz               10      0.034611  1 O  dxx        
    15     -0.034567  1 O  dzz        

 Vector    6  Occ=0.000000D+00  E= 9.617201D-02
              MO Center=  2.7D-01, -4.1D-01, -7.3D-01, r^2= 2.1D+00
   Bfn.  Coefficient  Atom+Function         Bfn.  Coefficient  Atom+Function  
  ----- ------------  ---------------      ----- ------------  ---------------
     6      1.756608  1 O  s                 19     -1.327541  3 H  s          
    17     -0.976114  2 H  s                  8     -0.256270  1 O  py         
     9     -0.241147  1 O  pz                 4     -0.143577  1 O  py         
     5     -0.126796  1 O  pz                 1     -0.107422  1 O  s          
     2      0.098041  1 O  s                  7      0.089293  1 O  px         

 Vector    7  Occ=0.000000D+00  E= 2.253213D-01
              MO Center=  2.3D-01,  1.4D-01, -6.3D-01, r^2= 2.6D+00
   Bfn.  Coefficient  Atom+Function         Bfn.  Coefficient  Atom+Function  
  ----- ------------  ---------------      ----- ------------  ---------------
    17      3.016482  2 H  s                 19     -2.083156  3 H  s          
     6     -1.040970  1 O  s                  8     -0.741702  1 O  py         
     4     -0.305690  1 O  py                14      0.054116  1 O  dyz        
     9      0.052130  1 O  pz                10      0.052345  1 O  dxx        
    15      0.050702  1 O  dzz               13      0.045217  1 O  dyy        

 Vector    8  Occ=0.000000D+00  E= 7.132757D-01
              MO Center= -1.2D-01, -1.8D-01,  3.3D-01, r^2= 1.3D+00
   Bfn.  Coefficient  Atom+Function         Bfn.  Coefficient  Atom+Function  
  ----- ------------  ---------------      ----- ------------  ---------------
    17      1.301481  2 H  s                  9      1.214272  1 O  pz         
     6     -0.965116  1 O  s                  8     -0.787126  1 O  py         
    16      0.656726  2 H  s                  5     -0.590892  1 O  pz         
     7     -0.436027  1 O  px                 2     -0.243585  1 O  s          
     3      0.214657  1 O  px                18     -0.196107  3 H  s          

 Vector    9  Occ=0.000000D+00  E= 8.078150D-01
              MO Center= -9.4D-04, -5.5D-03,  2.7D-03, r^2= 1.2D+00
   Bfn.  Coefficient  Atom+Function         Bfn.  Coefficient  Atom+Function  
  ----- ------------  ---------------      ----- ------------  ---------------
     7      0.987681  1 O  px                 3     -0.886145  1 O  px         
     9      0.358853  1 O  pz                 5     -0.321962  1 O  pz         
    11     -0.033564  1 O  dxy        

 Vector   10  Occ=0.000000D+00  E= 8.604603D-01
              MO Center= -4.3D-02,  2.0D-01,  1.2D-01, r^2= 1.2D+00
   Bfn.  Coefficient  Atom+Function         Bfn.  Coefficient  Atom+Function  
  ----- ------------  ---------------      ----- ------------  ---------------
     8      1.502393  1 O  py                17     -1.073194  2 H  s          
    18      0.939552  3 H  s                 19      0.775742  3 H  s          
     9      0.518246  1 O  pz                 6      0.460716  1 O  s          
     5     -0.307097  1 O  pz                16     -0.305270  2 H  s          
     2     -0.229087  1 O  s                  4     -0.230159  1 O  py         

 Vector   11  Occ=0.000000D+00  E= 1.122257D+00
              MO Center=  1.2D-01, -6.3D-01, -3.1D-01, r^2= 1.1D+00
   Bfn.  Coefficient  Atom+Function         Bfn.  Coefficient  Atom+Function  
  ----- ------------  ---------------      ----- ------------  ---------------
     6      1.933879  1 O  s                 19     -1.917445  3 H  s          
     8     -1.154456  1 O  py                 2     -0.932455  1 O  s          
     4      0.837839  1 O  py                17      0.676200  2 H  s          
    18      0.542026  3 H  s                 10     -0.299173  1 O  dxx        
    14      0.277004  1 O  dyz               15     -0.269647  1 O  dzz        

 Vector   12  Occ=0.000000D+00  E= 1.275922D+00
              MO Center=  1.2D-01,  2.7D-01, -3.3D-01, r^2= 1.5D+00
   Bfn.  Coefficient  Atom+Function         Bfn.  Coefficient  Atom+Function  
  ----- ------------  ---------------      ----- ------------  ---------------
     6      5.093082  1 O  s                 17     -2.799812  2 H  s          
     2     -1.383134  1 O  s                  9     -0.930190  1 O  pz         
     8      0.607967  1 O  py                13     -0.603480  1 O  dyy        
    18     -0.580367  3 H  s                 16     -0.462373  2 H  s          
    15     -0.351977  1 O  dzz                7      0.333985  1 O  px         

 Vector   13  Occ=0.000000D+00  E= 1.564712D+00
              MO Center= -1.2D-02,  2.1D-02,  3.3D-02, r^2= 6.2D-01
   Bfn.  Coefficient  Atom+Function         Bfn.  Coefficient  Atom+Function  
  ----- ------------  ---------------      ----- ------------  ---------------
    13      0.784824  1 O  dyy               15     -0.739000  1 O  dzz        
    14     -0.550088  1 O  dyz               12      0.535180  1 O  dxz        
     6      0.311499  1 O  s                 17     -0.235538  2 H  s          
    11      0.189490  1 O  dxy               10     -0.105302  1 O  dxx        
     2     -0.097945  1 O  s                  8      0.093740  1 O  py         

 Vector   14  Occ=0.000000D+00  E= 1.597409D+00
              MO Center=  3.5D-02,  9.0D-02, -9.8D-02, r^2= 7.2D-01
   Bfn.  Coefficient  Atom+Function         Bfn.  Coefficient  Atom+Function  
  ----- ------------  ---------------      ----- ------------  ---------------
     6      1.266486  1 O  s                 17     -1.104852  2 H  s          
    12     -0.779319  1 O  dxz               14     -0.742769  1 O  dyz        
     2     -0.721011  1 O  s                 10     -0.671232  1 O  dxx        
     8      0.412525  1 O  py                16      0.321775  2 H  s          
    15      0.267200  1 O  dzz                5      0.264285  1 O  pz         

 Vector   15  Occ=0.000000D+00  E= 1.640801D+00
              MO Center= -1.9D-03,  1.7D-02,  5.0D-03, r^2= 6.1D-01
   Bfn.  Coefficient  Atom+Function         Bfn.  Coefficient  Atom+Function  
  ----- ------------  ---------------      ----- ------------  ---------------
    11      1.547409  1 O  dxy               14      0.565698  1 O  dyz        
    12      0.401184  1 O  dxz               10     -0.179608  1 O  dxx        
    15      0.169471  1 O  dzz                7      0.026549  1 O  px         

 Vector   16  Occ=0.000000D+00  E= 1.650980D+00
              MO Center= -9.3D-03, -8.9D-03,  2.6D-02, r^2= 6.1D-01
   Bfn.  Coefficient  Atom+Function         Bfn.  Coefficient  Atom+Function  
  ----- ------------  ---------------      ----- ------------  ---------------
    12      1.263262  1 O  dxz               15      0.528283  1 O  dzz        
    10     -0.525006  1 O  dxx               11     -0.504110  1 O  dxy        
    14     -0.172391  1 O  dyz                3      0.051002  1 O  px         

 Vector   17  Occ=0.000000D+00  E= 2.733672D+00
              MO Center=  1.4D-02, -4.9D-02, -3.8D-02, r^2= 8.6D-01
   Bfn.  Coefficient  Atom+Function         Bfn.  Coefficient  Atom+Function  
  ----- ------------  ---------------      ----- ------------  ---------------
    18     -2.124398  3 H  s                  6      1.933019  1 O  s          
    14      1.728701  1 O  dyz                8     -0.907065  1 O  py         
     9     -0.785116  1 O  pz                10     -0.697081  1 O  dxx        
    13      0.674202  1 O  dyy               11     -0.647483  1 O  dxy        
    12     -0.595475  1 O  dxz               19     -0.381952  3 H  s          

 Vector   18  Occ=0.000000D+00  E= 3.665660D+00
              MO Center=  2.8D-02,  5.8D-02, -7.8D-02, r^2= 1.1D+00
   Bfn.  Coefficient  Atom+Function         Bfn.  Coefficient  Atom+Function  
  ----- ------------  ---------------      ----- ------------  ---------------
     6      5.727571  1 O  s                 10     -1.781622  1 O  dxx        
    17     -1.753120  2 H  s                 13     -1.727018  1 O  dyy        
    15     -1.618758  1 O  dzz                9     -0.668564  1 O  pz         
    16     -0.530861  2 H  s                  1     -0.507968  1 O  s          
    19     -0.470589  3 H  s                 14     -0.389203  1 O  dyz        

 Vector   19  Occ=0.000000D+00  E= 4.758611D+00
              MO Center= -2.5D-02, -5.5D-02,  7.0D-02, r^2= 6.6D-01
   Bfn.  Coefficient  Atom+Function         Bfn.  Coefficient  Atom+Function  
  ----- ------------  ---------------      ----- ------------  ---------------
    16      4.655751  2 H  s                 14      1.932672  1 O  dyz        
     2     -1.750662  1 O  s                  6     -1.492002  1 O  s          
     5      1.323795  1 O  pz                 9      1.061713  1 O  pz         
     8     -1.012501  1 O  py                15     -0.995658  1 O  dzz        
     4     -0.972107  1 O  py                17      0.902517  2 H  s          


 center of mass
 --------------
 x =   0.02983769 y =  -0.03522285 z =  -0.08148860

 moments of inertia (a.u.)
 ------------------
           2.473517747680           0.198815180164           0.351485242395
           0.198815180164           1.087042961528          -0.519901170871
           0.351485242395          -0.519901170871           1.644486764123

     Multipole analysis of the density
     ---------------------------------

     L   x y z        total         alpha         beta         nuclear
     -   - - -        -----         -----         ----         -------
     0   0 0 0     -0.000000     -5.000000     -5.000000     10.000000

     1   1 0 0      0.259506     -0.136858     -0.136858      0.533221
     1   0 1 0     -0.214450      0.207504      0.207504     -0.629458
     1   0 0 1     -0.710382      0.372939      0.372939     -1.456260

     2   2 0 0     -4.634576     -2.389245     -2.389245      0.143914
     2   1 1 0     -0.069555      0.073249      0.073249     -0.216053
     2   1 0 1     -0.312724      0.039742      0.039742     -0.392208
     2   0 2 0     -3.598963     -2.562424     -2.562424      1.525886
     2   0 1 1      0.170724     -0.198217     -0.198217      0.567158
     2   0 0 2     -3.891010     -2.480139     -2.480139      1.069267


 Parallel integral file used       4 records with       0 large values


            General Information
            -------------------
          SCF calculation type: DFT
          Wavefunction type:  closed shell.
          No. of atoms     :     3
          No. of electrons :    10
           Alpha electrons :     5
            Beta electrons :     5
          Charge           :     0
          Spin multiplicity:     1
          Use of symmetry is: off; symmetry adaption is: off
          Maximum number of iterations:  30
          AO basis - number of functions:    19
                     number of shells:    10
          Convergence on energy requested:  1.00D-06
          Convergence on density requested:  1.00D-05
          Convergence on gradient requested:  5.00D-04

              XC Information
              --------------
                        Slater Exchange Functional  1.000 local    
                      VWN V Correlation Functional  1.000 local    

             Grid Information
             ----------------
          Grid used for XC integration:  medium    
          Radial quadrature: Mura-Knowles        
          Angular quadrature: Lebedev. 
          Tag              B.-S. Rad. Rad. Pts. Rad. Cut. Ang. Pts.
          ---              ---------- --------- --------- ---------
          O                   0.60       49           5.0       434
          H                   0.35       45           5.0       434
          Grid pruning is: on 
          Number of quadrature shells:   139
          Spatial weights used:  Erf1

          Convergence Information
          -----------------------
          Convergence aids based upon iterative change in 
          total energy or number of iterations. 
          Levelshifting, if invoked, occurs when the 
          HOMO/LUMO gap drops below (HL_TOL):  1.00D-02
          DIIS, if invoked, will attempt to extrapolate 
          using up to (NFOCK): 10 stored Fock matrices.

                    Damping( 0%)  Levelshifting(0.5)       DIIS
                  --------------- ------------------- ---------------
          dE  on:    start            ASAP                start   
          dE off:    2 iters         30 iters            30 iters 


      Screening Tolerance Information
      -------------------------------
          Density screening/tol_rho:  1.00D-10
          AO Gaussian exp screening on grid/accAOfunc:  14
          CD Gaussian exp screening on grid/accCDfunc:  20
          XC Gaussian exp screening on grid/accXCfunc:  20
          Schwarz screening/accCoul:  1.00D-08



                            NWChem DFT Gradient Module
                            --------------------------



  charge          =   0.00
  wavefunction    = closed shell



                         DFT ENERGY GRADIENTS

    atom               coordinates                        gradient
                 x          y          z           x          y          z
   1 O       0.000000   0.000000   0.000000    0.000000   0.000000   0.000000
   2 H       0.237012   0.500065  -0.661346    0.000000   0.000000   0.000000
   3 H       0.296209  -1.129522  -0.794915   -0.085653   0.466649   0.227338

                 ----------------------------------------
                 |  Time  |  1-e(secs)   |  2-e(secs)   |
                 ----------------------------------------
                 |  CPU   |       0.00   |       0.01   |
                 ----------------------------------------
                 |  WALL  |       0.00   |       0.01   |
                 ----------------------------------------
 adding spring #                     1
   spring parameters (i,j,k,r0):                    1                    3   5.0000000000000000        1.3000000000000003     
   spring length and energy    :   1.4126038363617508        6.3398119816919452E-002
   spring forces               : -0.23611892478746729       0.90038376141731591       0.63365553092481208     
   spring deriv                :  -1.1260383636175053     

  Step       Energy      Delta E   Gmax     Grms     Xrms     Xmax   Walltime
  ---- ---------------- -------- -------- -------- -------- -------- --------
@    1     -74.54257396 -1.1D+00  0.43373  0.20436  0.19020  0.48597      0.5
                                                                    

 Restricting large step in mode    1 eval= 1.5D-01 step= 1.2D+00 new= 3.0D-01
 Restricting large step in mode    2 eval= 2.0D-01 step=-9.4D-01 new=-3.0D-01
 Restricting overall step due to large component. alpha=  0.79

                                 NWChem DFT Module
                                 -----------------




 Summary of "ao basis" -> "ao basis" (cartesian)
 ------------------------------------------------------------------------------
       Tag                 Description            Shells   Functions and Types
 ---------------- ------------------------------  ------  ---------------------
 O                           6-31g*                  6       15   3s2p1d
 H                           6-31g*                  2        2   2s


  Caching 1-el integrals 

            General Information
            -------------------
          SCF calculation type: DFT
          Wavefunction type:  closed shell.
          No. of atoms     :     3
          No. of electrons :    10
           Alpha electrons :     5
            Beta electrons :     5
          Charge           :     0
          Spin multiplicity:     1
          Use of symmetry is: off; symmetry adaption is: off
          Maximum number of iterations:  30
          AO basis - number of functions:    19
                     number of shells:    10
          Convergence on energy requested:  1.00D-06
          Convergence on density requested:  1.00D-05
          Convergence on gradient requested:  5.00D-04

              XC Information
              --------------
                        Slater Exchange Functional  1.000 local    
                      VWN V Correlation Functional  1.000 local    

             Grid Information
             ----------------
          Grid used for XC integration:  medium    
          Radial quadrature: Mura-Knowles        
          Angular quadrature: Lebedev. 
          Tag              B.-S. Rad. Rad. Pts. Rad. Cut. Ang. Pts.
          ---              ---------- --------- --------- ---------
          O                   0.60       49           5.0       434
          H                   0.35       45           5.0       434
          Grid pruning is: on 
          Number of quadrature shells:   139
          Spatial weights used:  Erf1

          Convergence Information
          -----------------------
          Convergence aids based upon iterative change in 
          total energy or number of iterations. 
          Levelshifting, if invoked, occurs when the 
          HOMO/LUMO gap drops below (HL_TOL):  1.00D-02
          DIIS, if invoked, will attempt to extrapolate 
          using up to (NFOCK): 10 stored Fock matrices.

                    Damping( 0%)  Levelshifting(0.5)       DIIS
                  --------------- ------------------- ---------------
[...]


                                 NWChem DFT Module
                                 -----------------



  Caching 1-el integrals 
   Time after variat. SCF:     15.6
   Time prior to 1st pass:     15.6


         Total DFT energy =      -75.727467564952
      One electron energy =     -125.992923163292
           Coulomb energy =       48.244003752805
    Exchange-Corr. energy =       -8.938431000482
 Nuclear repulsion energy =       10.959882846018

 Numeric. integr. density =        9.999999685077

     Total iterative time =      0.1s


 adding spring #                     1
   spring parameters (i,j,k,r0):                    1                    3   5.0000000000000000        1.3000000000000003     
   spring length and energy    :   1.3610868891803265        1.8658040148647290E-002
 adding spring #                     2
   spring parameters (i,j,k,r0):                    1                    2   5.0000000000000000        1.7000000000000004     
   spring length and energy    :   1.7061518707753551        1.8922757018331797E-004
 Line search: 
     step= 1.00 grad=-2.5D-04 hess= 2.3D-04 energy=    -75.708620 mode=downhill
 new step= 0.54                   predicted energy=    -75.708668

          --------
          Step   8
          --------


                         Geometry "geometry" -> "geometry"
                         ---------------------------------

 Output coordinates in a.u. (scale by  1.000000000 to convert to a.u.)

  No.       Tag          Charge          X              Y              Z
 ---- ---------------- ---------- -------------- -------------- --------------
    1 O                    8.0000     0.00000000     0.00000000     0.00000000
    2 H                    1.0000     0.97627413     0.88321928    -1.08618542
    3 H                    1.0000     0.29440992    -1.33109369    -0.03701092

      Atomic Mass 
      ----------- 

      O                 15.994910
      H                  1.007825


 Effective nuclear repulsion energy (a.u.)      10.9465624539

            Nuclear Dipole moment (a.u.) 
            ----------------------------
        X                 Y               Z
 ---------------- ---------------- ----------------
     1.2706840457    -0.4478744116    -1.1231963387


                                 NWChem DFT Module
                                 -----------------



  Caching 1-el integrals 
   Time after variat. SCF:     15.7
   Time prior to 1st pass:     15.7


         Total DFT energy =      -75.729226341784
      One electron energy =     -125.972206514843
           Coulomb energy =       48.233614590991
    Exchange-Corr. energy =       -8.937196871857
 Nuclear repulsion energy =       10.946562453926

 Numeric. integr. density =        9.999999727996

     Total iterative time =      0.1s




                         DFT ENERGY GRADIENTS

    atom               coordinates                        gradient
                 x          y          z           x          y          z
   1 O       0.000000   0.000000   0.000000    0.000000   0.000000   0.000000
   2 H       0.976274   0.883219  -1.086185   -0.045132  -0.039386   0.049951
   3 H       0.294410  -1.331094  -0.037011   -0.137851   0.618460   0.018202

 adding spring #                     1
   spring parameters (i,j,k,r0):                    1                    3   5.0000000000000000        1.3000000000000003     
   spring length and energy    :   1.3637658926720921        2.0330445341343699E-002
   spring forces               : -0.13765787185358341       0.62238231387241394        1.7305274410893454E-002
   spring deriv                : -0.63765892672091873     
 adding spring #                     2
   spring parameters (i,j,k,r0):                    1                    2   5.0000000000000000        1.7000000000000004     
   spring length and energy    :   1.7067472665929797        2.2762803238367290E-004
   spring forces               :  -3.8594945810169340E-002  -3.4916217697482550E-002   4.2940057606919387E-002
   spring deriv                :  -6.7472665929793063E-002

  Step       Energy      Delta E   Gmax     Grms     Xrms     Xmax   Walltime
  ---- ---------------- -------- -------- -------- -------- -------- --------
@    8     -75.70866827 -6.8D-05  0.00701  0.00377  0.00194  0.00473     15.8
                                                                    


                                 NWChem DFT Module
                                 -----------------



  Caching 1-el integrals 
   Time after variat. SCF:     15.8
   Time prior to 1st pass:     15.8


         Total DFT energy =      -75.729174090831
      One electron energy =     -125.968827102166
           Coulomb energy =       48.230697225315
    Exchange-Corr. energy =       -8.936955029975
 Nuclear repulsion energy =       10.945910815995

 Numeric. integr. density =        9.999999650395

     Total iterative time =      0.1s


 adding spring #                     1
   spring parameters (i,j,k,r0):                    1                    3   5.0000000000000000        1.3000000000000003     
   spring length and energy    :   1.3635321718413276        2.0181684294379717E-002
 adding spring #                     2
   spring parameters (i,j,k,r0):                    1                    2   5.0000000000000000        1.7000000000000004     
   spring length and energy    :   1.7078209573250329        3.0583686739989901E-004
 Line search: 
     step= 1.00 grad=-3.3D-05 hess= 1.5D-05 energy=    -75.708687 mode=downhill
 new step= 1.12                   predicted energy=    -75.708687

          --------
          Step   9
          --------


                         Geometry "geometry" -> "geometry"
                         ---------------------------------

 Output coordinates in a.u. (scale by  1.000000000 to convert to a.u.)

  No.       Tag          Charge          X              Y              Z
 ---- ---------------- ---------- -------------- -------------- --------------
    1 O                    8.0000     0.00000000     0.00000000     0.00000000
    2 H                    1.0000     0.97970074     0.87902877    -1.08839147
    3 H                    1.0000     0.30084835    -1.32908219    -0.04678336

      Atomic Mass 
      ----------- 

      O                 15.994910
      H                  1.007825


 Effective nuclear repulsion energy (a.u.)      10.9458055998

            Nuclear Dipole moment (a.u.) 
            ----------------------------
        X                 Y               Z
 ---------------- ---------------- ----------------
     1.2805490947    -0.4500534174    -1.1351748299


                                 NWChem DFT Module
                                 -----------------



  Caching 1-el integrals 
   Time after variat. SCF:     16.0
   Time prior to 1st pass:     16.0


         Total DFT energy =      -75.729170206972
      One electron energy =     -125.968770919621
           Coulomb energy =       48.230776604344
    Exchange-Corr. energy =       -8.936981491497
 Nuclear repulsion energy =       10.945805599802

 Numeric. integr. density =        9.999999642529

     Total iterative time =      0.1s




                         DFT ENERGY GRADIENTS

    atom               coordinates                        gradient
                 x          y          z           x          y          z
   1 O       0.000000   0.000000   0.000000    0.000000   0.000000   0.000000
   2 H       0.979701   0.879029  -1.088391   -0.044483  -0.039763   0.049392
   3 H       0.300848  -1.329082  -0.046783   -0.140202   0.618888   0.021891

 adding spring #                     1
   spring parameters (i,j,k,r0):                    1                    3   5.0000000000000000        1.3000000000000003     
   spring length and energy    :   1.3635093970301191        2.0167217555646325E-002
   spring forces               : -0.14012882767421045       0.61905850123615458        2.1790704780342358E-002
   spring deriv                : -0.63509397030118819     
 adding spring #                     2
   spring parameters (i,j,k,r0):                    1                    2   5.0000000000000000        1.7000000000000004     
   spring length and energy    :   1.7079523169134914        3.1619672146297230E-004
   spring forces               :  -4.5615388212906859E-002  -4.0928047534415431E-002   5.0676086199171626E-002
   spring deriv                :  -7.9523169134909644E-002

  Step       Energy      Delta E   Gmax     Grms     Xrms     Xmax   Walltime
  ---- ---------------- -------- -------- -------- -------- -------- --------
@    9     -75.70868679 -1.9D-05  0.00128  0.00069  0.00441  0.00977     16.1
                                                                    


                                 NWChem DFT Module
                                 -----------------



  Caching 1-el integrals 
   Time after variat. SCF:     16.1
   Time prior to 1st pass:     16.1


         Total DFT energy =      -75.729157983948
      One electron energy =     -125.970531129541
           Coulomb energy =       48.232039013931
    Exchange-Corr. energy =       -8.937140407107
 Nuclear repulsion energy =       10.946474538768

 Numeric. integr. density =        9.999999636222

     Total iterative time =      0.1s


 adding spring #                     1
   spring parameters (i,j,k,r0):                    1                    3   5.0000000000000000        1.3000000000000003     
   spring length and energy    :   1.3635117519632787        2.0168713187224994E-002
 adding spring #                     2
   spring parameters (i,j,k,r0):                    1                    2   5.0000000000000000        1.7000000000000004     
   spring length and energy    :   1.7077737070824455        3.0215260901828315E-004
 Line search: 
     step= 1.00 grad=-6.2D-07 hess= 3.0D-07 energy=    -75.708687 mode=accept  
 new step= 1.00                   predicted energy=    -75.708687

          --------
          Step  10
          --------


                         Geometry "geometry" -> "geometry"
                         ---------------------------------

 Output coordinates in a.u. (scale by  1.000000000 to convert to a.u.)

  No.       Tag          Charge          X              Y              Z
 ---- ---------------- ---------- -------------- -------------- --------------
    1 O                    8.0000     0.00000000     0.00000000     0.00000000
    2 H                    1.0000     0.97940513     0.87879252    -1.08856802
    3 H                    1.0000     0.30174810    -1.32883334    -0.04810748

      Atomic Mass 
      ----------- 

      O                 15.994910
      H                  1.007825


 Effective nuclear repulsion energy (a.u.)      10.9464745388

            Nuclear Dipole moment (a.u.) 
            ----------------------------
        X                 Y               Z
 ---------------- ---------------- ----------------
     1.2811532316    -0.4500408254    -1.1366755073


                                 NWChem DFT Module
                                 -----------------




  The DFT is already converged 

         Total DFT energy =    -75.729157983948



                         DFT ENERGY GRADIENTS

    atom               coordinates                        gradient
                 x          y          z           x          y          z
   1 O       0.000000   0.000000   0.000000    0.000000   0.000000   0.000000
   2 H       0.979405   0.878793  -1.088568   -0.044539  -0.039955   0.049502
   3 H       0.301748  -1.328833  -0.048107   -0.140530   0.618831   0.022411

 adding spring #                     1
   spring parameters (i,j,k,r0):                    1                    3   5.0000000000000000        1.3000000000000003     
   spring length and energy    :   1.3635117519632787        2.0168713187224994E-002
   spring forces               : -0.14055288286484863       0.61896447509997343        2.2408244623227543E-002
   spring deriv                : -0.63511751963278407     
 adding spring #                     2
   spring parameters (i,j,k,r0):                    1                    2   5.0000000000000000        1.7000000000000004     
   spring length and energy    :   1.7077737070824455        3.0215260901828315E-004
   spring forces               :  -4.4582069295268006E-002  -4.0002229673809384E-002   4.9551114002022084E-002
   spring deriv                :  -7.7737070824450694E-002

  Step       Energy      Delta E   Gmax     Grms     Xrms     Xmax   Walltime
  ---- ---------------- -------- -------- -------- -------- -------- --------
@   10     -75.70868712 -3.3D-07  0.00013  0.00005  0.00056  0.00132     16.2
                                     ok       ok       ok       ok  


      ----------------------
      Optimization converged
      ----------------------


  Step       Energy      Delta E   Gmax     Grms     Xrms     Xmax   Walltime
  ---- ---------------- -------- -------- -------- -------- -------- --------
@   10     -75.70868712 -3.3D-07  0.00013  0.00005  0.00056  0.00132     16.2
                                     ok       ok       ok       ok  



                         Geometry "geometry" -> "geometry"
                         ---------------------------------

 Output coordinates in a.u. (scale by  1.000000000 to convert to a.u.)

  No.       Tag          Charge          X              Y              Z
 ---- ---------------- ---------- -------------- -------------- --------------
    1 O                    8.0000     0.00000000     0.00000000     0.00000000
    2 H                    1.0000     0.97940513     0.87879252    -1.08856802
    3 H                    1.0000     0.30174810    -1.32883334    -0.04810748

      Atomic Mass 
      ----------- 

      O                 15.994910
      H                  1.007825


 Effective nuclear repulsion energy (a.u.)      10.9464745388

            Nuclear Dipole moment (a.u.) 
            ----------------------------
        X                 Y               Z
 ---------------- ---------------- ----------------
     1.2811532316    -0.4500408254    -1.1366755073

 ==============================================================================
                                internuclear distances
 ------------------------------------------------------------------------------
       center one      |      center two      | atomic units |       a.u.
 ------------------------------------------------------------------------------
    2 H                |   1 O                |     1.70777  |     1.70777
    3 H                |   1 O                |     1.36351  |     1.36351
 ------------------------------------------------------------------------------
                         number of included internuclear distances:          2
 ==============================================================================



 ==============================================================================
                                 internuclear angles
 ------------------------------------------------------------------------------
        center 1       |       center 2       |       center 3       |  degrees
 ------------------------------------------------------------------------------
    2 H                |   1 O                |   3 H                |   110.62
 ------------------------------------------------------------------------------
                            number of included internuclear angles:          1
 ==============================================================================



                         NWChem Constraints Module
                         -------------------------
 Summary
 -------
 fixed atoms                  :   1


 spring #                    :    1
 spring parameters (i,j,k,r0):    1   3 5.000   1.300
 spring length               :  1.364
 spring energy               :  0.020
 spring forces               : -0.141   0.619   0.022
   
 spring #                    :    2
 spring parameters (i,j,k,r0):    1   2 5.000   1.700
 spring length               :  1.708
 spring energy               :  0.000
 spring forces               : -0.045  -0.040   0.050
   
 Total energy with constraints        :     -75.708687
 Energy contribution from constraints :       0.020471
 Total energy without constraints     :     -75.729158
 --------------------------------------

 Task  times  cpu:        1.9s     wall:        2.4s


                                NWChem Input Module
                                -------------------


 Summary of allocated global arrays
-----------------------------------
  No active global arrays



                         GA Statistics for process    0
                         ------------------------------

       create   destroy   get      put      acc     scatter   gather  read&inc
calls: 1.32e+04 1.32e+04 1.46e+05 1.86e+04 6.22e+04    0        0     1.35e+04 
number of processes/call 1.36e+00 1.76e+00 1.27e+00 0.00e+00 0.00e+00
bytes total:             8.54e+07 1.88e+07 3.80e+07 0.00e+00 0.00e+00 1.08e+05
bytes remote:            1.73e+07 2.91e+06 7.30e+06 0.00e+00 0.00e+00 0.00e+00
Max memory consumed for GA by this process: 66440 bytes

MA_summarize_allocated_blocks: starting scan ...
MA_summarize_allocated_blocks: scan completed: 0 heap blocks, 0 stack blocks
MA usage statistics:

	allocation statistics:
					      heap	     stack
					      ----	     -----
	current number of blocks	         0	         0
	maximum number of blocks	        27	        49
	current total bytes		         0	         0
	maximum total bytes		   1749880	  22510568
	maximum total K-bytes		      1750	     22511
	maximum total M-bytes		         2	        23


                                     CITATION
                                     --------
                Please cite the following reference when publishing
                           results obtained with NWChem:

                 M. Valiev, E.J. Bylaska, N. Govind, K. Kowalski,
              T.P. Straatsma, H.J.J. van Dam, D. Wang, J. Nieplocha,
                        E. Apra, T.L. Windus, W.A. de Jong
                 "NWChem: a comprehensive and scalable open-source
                  solution for large scale molecular simulations"
                      Comput. Phys. Commun. 181, 1477 (2010)
                           doi:10.1016/j.cpc.2010.04.018

                                      AUTHORS
                                      -------
          E. Apra, E. J. Bylaska, W. A. de Jong, N. Govind, K. Kowalski,
       T. P. Straatsma, M. Valiev, H. J. J. van Dam, D. Wang, T. L. Windus,
        J. Hammond, J. Autschbach, K. Bhaskaran-Nair, J. Brabec, K. Lopata,
    S. A. Fischer, S. Krishnamoorthy, M. Jacquelin, W. Ma, M. Klemm, O. Villa,
      Y. Chen, V. Anisimov, F. Aquino, S. Hirata, M. T. Hackler, V. Konjkov,
            D. Mejia-Rodriguez, T. Risthaus, M. Malagoli, A. Marenich,
   A. Otero-de-la-Roza, J. Mullin, P. Nichols, R. Peverati, J. Pittner, Y. Zhao,
        P.-D. Fan, A. Fonari, M. J. Williamson, R. J. Harrison, J. R. Rehr,
      M. Dupuis, D. Silverstein, D. M. A. Smith, J. Nieplocha, V. Tipparaju,
    M. Krishnan, B. E. Van Kuiken, A. Vazquez-Mayagoitia, L. Jensen, M. Swart,
      Q. Wu, T. Van Voorhis, A. A. Auer, M. Nooijen, L. D. Crosby, E. Brown,
      G. Cisneros, G. I. Fann, H. Fruchtl, J. Garza, K. Hirao, R. A. Kendall,
      J. A. Nichols, K. Tsemekhman, K. Wolinski, J. Anchell, D. E. Bernholdt,
      P. Borowski, T. Clark, D. Clerc, H. Dachsel, M. J. O. Deegan, K. Dyall,
    D. Elwood, E. Glendening, M. Gutowski, A. C. Hess, J. Jaffe, B. G. Johnson,
     J. Ju, R. Kobayashi, R. Kutteh, Z. Lin, R. Littlefield, X. Long, B. Meng,
      T. Nakajima, S. Niu, L. Pollack, M. Rosing, K. Glaesemann, G. Sandrone,
      M. Stave, H. Taylor, G. Thomas, J. H. van Lenthe, A. T. Wong, Z. Zhang.

 Total times  cpu:       12.6s     wall:       16.2s
[0] ARMCI Warning: Freed 1 leaked allocations
