 argument  1 = /home/list1234/source/nwchem-6.8.1/QA/tests/He_scs-mp2_cc-vqz/He_scs-mp2_cc-vqz.nw



============================== echo of input deck ==============================
echo

start He_scs-mp2_cc-vqz

memory total 1000 mb

geometry
 He     0.0 0.0 0.0
end

basis "ao basis" spherical
  * library cc-pvqz
end

basis "cc-pVQZ-RI" spherical
#BASIS SET: (5s,4p,3d,2f)
He    S
     29.251976741            1.0000000
He    S
      6.3479959175           1.0000000
He    S
      3.0141166013           1.0000000
He    S
      0.83396087296          1.0000000
He    S
      0.47964730615          1.0000000
He    P
      8.6905135631           1.0000000
He    P
      2.5796767548           1.0000000
He    P
      1.1943303704           1.0000000
He    P
      0.71278867940          1.0000000
He    D
      7.2944834617           1.0000000
He    D
      4.3632208275           1.0000000
He    D
      1.7345900404           1.0000000
He    F
      4.3507069127           1.0000000
He    F
      2.7082979618           1.0000000
end

set "ri-mp2 basis" "cc-pVQZ-RI"

mp2
  scs
  freeze 0
  scratchdisk 4096
end
task mp2 energy
task direct_mp2 energy
task rimp2 energy

mp2
  scs; fos 1.0; fss 1.0
  freeze 0
  scratchdisk 4096
end
task mp2 energy
task direct_mp2 energy
task rimp2 energy

mp2
  scs; fos 0.0; fss 0.0
  freeze 0
  scratchdisk 4096
end
task mp2 energy
task direct_mp2 energy
task rimp2 energy

mp2
  scs; fos 1.0; fss 0.0
  freeze 0
  scratchdisk 4096
end
task mp2 energy
task direct_mp2 energy
task rimp2 energy

mp2
  scs; fos 0.0; fss 1.0
  freeze 0
  scratchdisk 4096
end
task mp2 energy
task direct_mp2 energy
task rimp2 energy

mp2
  scs; fos 1000.0; fss 1000.0
  freeze 0
  scratchdisk 4096
end
task mp2 energy
task direct_mp2 energy
task rimp2 energy

================================================================================


                                         
                                         


              Northwest Computational Chemistry Package (NWChem) 6.8
              ------------------------------------------------------


                    Environmental Molecular Sciences Laboratory
                       Pacific Northwest National Laboratory
                                Richland, WA 99352

                              Copyright (c) 1994-2017
                       Pacific Northwest National Laboratory
                            Battelle Memorial Institute

             NWChem is an open-source computational chemistry package
                        distributed under the terms of the
                      Educational Community License (ECL) 2.0
             A copy of the license is included with this distribution
                              in the LICENSE.TXT file

                                  ACKNOWLEDGMENT
                                  --------------

            This software and its documentation were developed at the
            EMSL at Pacific Northwest National Laboratory, a multiprogram
            national laboratory, operated for the U.S. Department of Energy
            by Battelle under Contract Number DE-AC05-76RL01830. Support
            for this work was provided by the Department of Energy Office
            of Biological and Environmental Research, Office of Basic
            Energy Sciences, and the Office of Advanced Scientific Computing.


           Job information
           ---------------

    hostname        = list1234-B360M-H
    program         = /home/list1234/source/nwchem-6.8.1/bin/LINUX64/nwchem
    date            = Sun Jun 30 23:26:36 2019

    compiled        = Sun_Jun_30_20:37:07_2019
    source          = /home/list1234/source/nwchem-6.8.1
    nwchem branch   = 6.8.1
    nwchem revision = v6.8-160-gc00cf755d
    ga revision     = 5.6.5
    use scalapack   = T
    input           = /home/list1234/source/nwchem-6.8.1/QA/tests/He_scs-mp2_cc-vqz/He_scs-mp2_cc-vqz.nw
    prefix          = He_scs-mp2_cc-vqz.
    data base       = ./He_scs-mp2_cc-vqz.db
    status          = startup
    nproc           =        4
    time left       =     -1s



           Memory information
           ------------------

    heap     =   32768000 doubles =    250.0 Mbytes
    stack    =   32767997 doubles =    250.0 Mbytes
    global   =   65536000 doubles =    500.0 Mbytes (distinct from heap & stack)
    total    =  131071997 doubles =   1000.0 Mbytes
    verify   = yes
    hardfail = no 


           Directory information
           ---------------------

  0 permanent = .
  0 scratch   = .




                                NWChem Input Module
                                -------------------



 Scaling coordinates for geometry "geometry" by  1.889725989
 (inverse scale =  0.529177249)



                             Geometry "geometry" -> ""
                             -------------------------

 Output coordinates in angstroms (scale by  1.889725989 to convert to a.u.)

  No.       Tag          Charge          X              Y              Z
 ---- ---------------- ---------- -------------- -------------- --------------
    1 He                   2.0000     0.00000000     0.00000000     0.00000000

      Atomic Mass 
      ----------- 

      He                 4.002600


 Effective nuclear repulsion energy (a.u.)       0.0000000000

            Nuclear Dipole moment (a.u.) 
            ----------------------------
        X                 Y               Z
 ---------------- ---------------- ----------------
     0.0000000000     0.0000000000     0.0000000000


            XYZ format geometry
            -------------------
     1
 geometry
 He                    0.00000000     0.00000000     0.00000000



 Summary of "ao basis" -> "" (spherical)
 ------------------------------------------------------------------------------
       Tag                 Description            Shells   Functions and Types
 ---------------- ------------------------------  ------  ---------------------
 *                          cc-pvqz                   on all atoms 


                      Basis "cc-pVQZ-RI" -> "" (spherical)
                      -----
  He (Helium)
  -----------
            Exponent  Coefficients 
       -------------- ---------------------------------------------------------
  1 S  2.92519767E+01  1.000000

  2 S  6.34799592E+00  1.000000

  3 S  3.01411660E+00  1.000000

  4 S  8.33960873E-01  1.000000

  5 S  4.79647306E-01  1.000000

  6 P  8.69051356E+00  1.000000

  7 P  2.57967675E+00  1.000000

  8 P  1.19433037E+00  1.000000

  9 P  7.12788679E-01  1.000000

 10 D  7.29448346E+00  1.000000

 11 D  4.36322083E+00  1.000000

 12 D  1.73459004E+00  1.000000

 13 F  4.35070691E+00  1.000000

 14 F  2.70829796E+00  1.000000



 Summary of "cc-pVQZ-RI" -> "" (spherical)
 ------------------------------------------------------------------------------
       Tag                 Description            Shells   Functions and Types
 ---------------- ------------------------------  ------  ---------------------
 He                      user specified             14       46   5s4p3d2f


                      Basis "ao basis" -> "ao basis" (spherical)
                      -----
  He (Helium)
  -----------
            Exponent  Coefficients 
       -------------- ---------------------------------------------------------
  1 S  5.28500000E+02  0.000940
  1 S  7.93100000E+01  0.007214
  1 S  1.80500000E+01  0.035975
  1 S  5.08500000E+00  0.127782

  2 S  1.60900000E+00  1.000000

  3 S  5.36300000E-01  1.000000

  4 S  1.83300000E-01  1.000000

  5 P  5.99400000E+00  1.000000

  6 P  1.74500000E+00  1.000000

  7 P  5.60000000E-01  1.000000

  8 D  4.29900000E+00  1.000000

  9 D  1.22300000E+00  1.000000

 10 F  2.68000000E+00  1.000000



 Summary of "ao basis" -> "ao basis" (spherical)
 ------------------------------------------------------------------------------
       Tag                 Description            Shells   Functions and Types
 ---------------- ------------------------------  ------  ---------------------
 He                         cc-pvqz                 10       30   4s3p2d1f


                                 NWChem SCF Module
                                 -----------------



  ao basis        = "ao basis"
  functions       =    30
  atoms           =     1
  closed shells   =     1
  open shells     =     0
  charge          =   0.00
  wavefunction    = RHF 
  input vectors   = atomic
  output vectors  = ./He_scs-mp2_cc-vqz.movecs
  use symmetry    = F
  symmetry adapt  = F


 Summary of "ao basis" -> "ao basis" (spherical)
 ------------------------------------------------------------------------------
       Tag                 Description            Shells   Functions and Types
 ---------------- ------------------------------  ------  ---------------------
 He                         cc-pvqz                 10       30   4s3p2d1f



 Forming initial guess at       0.0s


      Superposition of Atomic Density Guess
      -------------------------------------

 Sum of atomic energies:          -2.86151418

      Non-variational initial energy
      ------------------------------

 Total energy =      -2.861514
 1-e energy   =      -3.887331
 2-e energy   =       1.025816
 HOMO         =      -0.917849
 LUMO         =       0.496529


 Starting SCF solution at       0.1s



 ----------------------------------------------
         Quadratically convergent ROHF

 Convergence threshold     :          1.000E-06
 Maximum no. of iterations :           30
 Final Fock-matrix accuracy:          1.000E-08
 ----------------------------------------------


 #quartets = 1.540D+03 #integrals = 1.511D+04 #direct =  0.0% #cached =100.0%


 Integral file          = ./He_scs-mp2_cc-vqz.aoints.0
 Record size in doubles =  65536        No. of integs per rec  =  43688
 Max. records in memory =      2        Max. records in file   = 161930
 No. of bits per label  =      8        No. of bits per value  =     64


File balance: exchanges=     0  moved=     0  time=   0.0


              iter       energy          gnorm     gmax       time
             ----- ------------------- --------- --------- --------
                 1       -2.8615142272  4.96D-07  3.76D-07      0.1


       Final RHF  results 
       ------------------ 

         Total SCF energy =     -2.861514227228
      One-electron energy =     -3.887330870230
      Two-electron energy =      1.025816643002
 Nuclear repulsion energy =      0.000000000000

        Time for solution =      0.0s


             Final eigenvalues
             -----------------

              1      
    1   -0.9178
    2    0.4965
    3    1.0899
    4    1.0899
    5    1.0899
    6    2.7835
    7    3.8879
    8    3.8879
    9    3.8879
   10    3.8879
   11    3.8879

                       ROHF Final Molecular Orbital Analysis
                       -------------------------------------

 Vector    1  Occ=2.000000D+00  E=-9.178488D-01
              MO Center=  3.6D-17, -6.4D-17,  1.9D-16, r^2= 3.3D-01
   Bfn.  Coefficient  Atom+Function         Bfn.  Coefficient  Atom+Function  
  ----- ------------  ---------------      ----- ------------  ---------------
     3      0.453050  1 He s                  2      0.308472  1 He s          
     4      0.238885  1 He s                  1      0.160025  1 He s          

 Vector    2  Occ=0.000000D+00  E= 4.965287D-01
              MO Center=  2.0D-17, -1.2D-17, -5.6D-17, r^2= 1.8D+00
   Bfn.  Coefficient  Atom+Function         Bfn.  Coefficient  Atom+Function  
  ----- ------------  ---------------      ----- ------------  ---------------
     4      1.690392  1 He s                  3     -1.345015  1 He s          

 Vector    3  Occ=0.000000D+00  E= 1.089885D+00
              MO Center=  1.8D-16, -1.5D-16, -2.0D-16, r^2= 6.9D-01
   Bfn.  Coefficient  Atom+Function         Bfn.  Coefficient  Atom+Function  
  ----- ------------  ---------------      ----- ------------  ---------------
    12      1.039357  1 He py                11      0.368898  1 He px         
     9     -0.165353  1 He py         

 Vector    4  Occ=0.000000D+00  E= 1.089885D+00
              MO Center= -2.4D-16,  2.0D-16, -3.5D-16, r^2= 6.9D-01
   Bfn.  Coefficient  Atom+Function         Bfn.  Coefficient  Atom+Function  
  ----- ------------  ---------------      ----- ------------  ---------------
    13      0.866295  1 He pz                11      0.654735  1 He px         
    12     -0.197397  1 He py         

 Vector    5  Occ=0.000000D+00  E= 1.089885D+00
              MO Center=  3.1D-17, -4.7D-17, -9.2D-17, r^2= 6.9D-01
   Bfn.  Coefficient  Atom+Function         Bfn.  Coefficient  Atom+Function  
  ----- ------------  ---------------      ----- ------------  ---------------
    11      0.808299  1 He px                13     -0.682556  1 He pz         
    12     -0.314456  1 He py         

 Vector    6  Occ=0.000000D+00  E= 2.783494D+00
              MO Center=  4.0D-16,  1.4D-16,  1.1D-16, r^2= 7.4D-01
   Bfn.  Coefficient  Atom+Function         Bfn.  Coefficient  Atom+Function  
  ----- ------------  ---------------      ----- ------------  ---------------
     3      2.658864  1 He s                  2     -1.797183  1 He s          
     4     -1.115477  1 He s          

 Vector    7  Occ=0.000000D+00  E= 3.887939D+00
              MO Center= -3.7D-16,  1.3D-16,  4.5D-16, r^2= 4.2D-01
   Bfn.  Coefficient  Atom+Function         Bfn.  Coefficient  Atom+Function  
  ----- ------------  ---------------      ----- ------------  ---------------
    20      0.833016  1 He d -1              19     -0.579041  1 He d -2       
    22     -0.211931  1 He d  1              23     -0.185606  1 He d  2       

 Vector    8  Occ=0.000000D+00  E= 3.887939D+00
              MO Center= -8.2D-17, -4.0D-17, -5.4D-17, r^2= 4.2D-01
   Bfn.  Coefficient  Atom+Function         Bfn.  Coefficient  Atom+Function  
  ----- ------------  ---------------      ----- ------------  ---------------
    21      1.032999  1 He d  0       

 Vector    9  Occ=0.000000D+00  E= 3.887939D+00
              MO Center= -8.8D-17,  2.0D-16,  2.2D-16, r^2= 4.2D-01
   Bfn.  Coefficient  Atom+Function         Bfn.  Coefficient  Atom+Function  
  ----- ------------  ---------------      ----- ------------  ---------------
    22      0.849015  1 He d  1              23      0.478763  1 He d  2       
    20      0.355233  1 He d -1              21     -0.175306  1 He d  0       

 Vector   10  Occ=0.000000D+00  E= 3.887939D+00
              MO Center= -3.6D-17,  5.7D-17,  1.5D-17, r^2= 4.2D-01
   Bfn.  Coefficient  Atom+Function         Bfn.  Coefficient  Atom+Function  
  ----- ------------  ---------------      ----- ------------  ---------------
    23      0.827680  1 He d  2              22     -0.569468  1 He d  1       
    19      0.238057  1 He d -2              20      0.205417  1 He d -1       

 Vector   11  Occ=0.000000D+00  E= 3.887939D+00
              MO Center= -8.1D-17, -1.6D-16, -6.9D-17, r^2= 4.2D-01
   Bfn.  Coefficient  Atom+Function         Bfn.  Coefficient  Atom+Function  
  ----- ------------  ---------------      ----- ------------  ---------------
    19      0.843321  1 He d -2              20      0.496432  1 He d -1       
    23     -0.375010  1 He d  2       


 center of mass
 --------------
 x =   0.00000000 y =   0.00000000 z =   0.00000000

 moments of inertia (a.u.)
 ------------------
           0.000000000000           0.000000000000           0.000000000000
           0.000000000000           0.000000000000           0.000000000000
           0.000000000000           0.000000000000           0.000000000000

  Mulliken analysis of the total density
  --------------------------------------

    Atom       Charge   Shell Charges
 -----------   ------   -------------------------------------------------------
    1 He   2     2.00   0.20  0.56  0.87  0.37  0.00 -0.00  0.00 -0.00 -0.00  0.00

       Multipole analysis of the density wrt the origin
       ------------------------------------------------

     L   x y z        total         open         nuclear
     -   - - -        -----         ----         -------
     0   0 0 0     -0.000000      0.000000      2.000000

     1   1 0 0     -0.000000      0.000000      0.000000
     1   0 1 0      0.000000      0.000000      0.000000
     1   0 0 1     -0.000000      0.000000      0.000000

     2   2 0 0     -0.789074      0.000000      0.000000
     2   1 1 0      0.000000      0.000000      0.000000
     2   1 0 1      0.000000      0.000000      0.000000
     2   0 2 0     -0.789074      0.000000      0.000000
     2   0 1 1      0.000000      0.000000      0.000000
     2   0 0 2     -0.789074      0.000000      0.000000


 Parallel integral file used       4 records with       0 large values

                   NWChem MP2 Semi-direct Energy/Gradient Module
                   ---------------------------------------------


  Basis functions       =     30
  Molecular orbitals    =     30
  Frozen core           =      0
  Frozen virtuals       =      0
  Active alpha occupied =      1
  Active beta occupied  =      1
  Active alpha virtual  =     29
  Active beta virtual   =     29
  Use MO symmetry       = F
  Use skeleton AO sym   = F

  AO/Fock/Back tols     =   1.0D-09  1.0D-09  1.0D-09
  SCS-MP2               = T
  #avail    536870912.00000000     
  #avail    536870912.00000000     
  #avail    536870912.00000000     

 GA uses MA = F    GA memory limited = T

 Available: 
  local mem=  6.55D+07
 global mem=  6.55D+07
 local disk=  5.37D+08
  #avail    536870912.00000000     
  mp2_memr nvloc                     8
  nvloc new                     8
   1 passes of   1:         736083                       1908                     10049.

 Semi-direct pass number   1 of   1  for RHF alpha+beta  at        0.1s
  vrange nnbf                   465
Node 0 wrote      0.0 Mb in      0.0 s     Agg I/O rate:   554.4 Mb/s
 Done moints_semi at        0.1s
 Done maket at        0.1s
 Done multipass loop at        0.1s


          -------------------------------------------
          SCF energy                  -2.861514227228
          Correlation energy          -0.035478004329
          Singlet pairs               -0.035478004329
          Triplet pairs                0.000000000000
          Total MP2 energy            -2.896992231557
          -------------------------------------------



          ---------------------------------------------------
                    Spin Component Scaled (SCS) MP2
          Same spin pairs                      0.000000000000
          Same spin scaling factor             0.333333333333
          Opposite spin pairs                 -0.035478004329
          Opposite spin scaling fact.          1.200000000000
          SCS-MP2 correlation energy          -0.042573605195
          Total SCS-MP2 energy                -2.904087832423
          ---------------------------------------------------

 -----------------------
 Performance information
 -----------------------

 Timer overhead =  4.86D-07 seconds/call

               Nr. of calls         CPU time (s)                 Wall time (s)                GFlops
             ---------------    -------------------     ------------------------------   -------------------
Name         Min   Avg   Max    Min     Avg     Max     Min     Avg     Max   Mx/calls   Min     Max     Sum
mp2: moin     1     1     1   1.52E-2 1.56E-2 1.58E-2  1.59E-2 1.60E-2 1.60E-2 1.60E-2   0.0     0.0     0.0   
mp2: make     1     1     1   1.01E-3 1.01E-3 1.01E-3  1.01E-3 1.01E-3 1.01E-3 1.01E-3   0.0     0.0     0.0   
mp2: tota     1     1     1   4.09E-2 4.19E-2 4.25E-2  4.29E-2 4.29E-2 4.29E-2 4.29E-2   0.0     0.0     0.0   

 The average no. of pstat calls per process was 3.00D+00
 with a timing overhead of 1.46D-06s


 Task  times  cpu:        0.1s     wall:        0.1s


                                NWChem Input Module
                                -------------------


                                 NWChem SCF Module
                                 -----------------



  ao basis        = "ao basis"
  functions       =    30
  atoms           =     1
  closed shells   =     1
  open shells     =     0
  charge          =   0.00
  wavefunction    = RHF 
  input vectors   = ./He_scs-mp2_cc-vqz.movecs
  output vectors  = ./He_scs-mp2_cc-vqz.movecs
  use symmetry    = F
  symmetry adapt  = F


 Summary of "ao basis" -> "ao basis" (spherical)
 ------------------------------------------------------------------------------
       Tag                 Description            Shells   Functions and Types
 ---------------- ------------------------------  ------  ---------------------
 He                         cc-pvqz                 10       30   4s3p2d1f



  The SCF is already converged 

         Total SCF energy =     -2.861514227228

                          Direct MP2
                          ----------
          Basis functions:                       30
          Shells:                                10
          Block length:                          32
          Active occupied range:           1 -    1
          Active virtual range:            2 -   30
          MO coefficients read from:  ./He_scs-mp2_cc-vqz.movec
          Operator matrices in core:              1
          AO passes required:                     1
          Use AO Integral blocking
          Twofold algorithm used

          SCS-MP2:                                T
          Same spin scaling factor:         0.33333
          Opposite spin scaling factor:     1.20000

     Pass:    1     Index range:    1  -    1     Time:      0.01


          -----------------------------------------------
          SCF energy                      -2.861514227228
          SCS Correlation energy          -0.042573605195
          Total SCS-MP2 energy            -2.904087832423
          -----------------------------------------------


          Total MP2 time:           0.02

 Task  times  cpu:        0.0s     wall:        0.0s


                                NWChem Input Module
                                -------------------


                                 NWChem SCF Module
                                 -----------------



  ao basis        = "ao basis"
  functions       =    30
  atoms           =     1
  closed shells   =     1
  open shells     =     0
  charge          =   0.00
  wavefunction    = RHF 
  input vectors   = ./He_scs-mp2_cc-vqz.movecs
  output vectors  = ./He_scs-mp2_cc-vqz.movecs
  use symmetry    = F
  symmetry adapt  = F


 Summary of "ao basis" -> "ao basis" (spherical)
 ------------------------------------------------------------------------------
       Tag                 Description            Shells   Functions and Types
 ---------------- ------------------------------  ------  ---------------------
 He                         cc-pvqz                 10       30   4s3p2d1f



  The SCF is already converged 

         Total SCF energy =     -2.861514227228

                               NWChem RI-MP2 Module
                               --------------------



 SCF Reference Information:
            File: './He_scs-mp2_cc-vqz.movecs'
           Title: ''
    Size (AOxMO):     30 x     30
       Total Occ:               2.00
 RI-MP2 Calculation Information:
          Nr. of AO basis functions:         30
     Nr. of fitting basis functions:         46
               Nr. of MO spin cases:          1
        Nr. of MOs to be correlated:         30
     Nr. of occupied MOs correlated:          1
      Nr. of virtual MOs correlated:         29

                            SCS-MP2: T
           Same spin scaling factor:  3.333E-01
       Opposite spin scaling factor:  1.200E+00

          RI integral approximation: 'V'
    Threshold for Schwarz screening:  1.000E-09
 Smallest eigenvalue retained in fit  1.000E-08
     Base file name for MO integrals 'mo3cint'
    Type of storage for MO integrals 'EAF library'

 Transformation block size    1, requiring     1 integral passes.
 XForm_3cInts: Completed     1:    1 pass.             @Sun Jun 30 23:26:37 2019
 Energy evaluation using block sizes     1    1
 RIMP2_V_E2: Approx. ints. done (    1:    1,    1:    1) @Sun Jun 30 23:26:37 2019
 RIMP2_V_E2: Copy to B done (    1:    1,    1:    1)  @Sun Jun 30 23:26:37 2019
 RIMP2_V_E2: Denominators done (    1:    1,    1:    1) @Sun Jun 30 23:26:37 2019
 RIMP2_V_E2: Completed block (    1:    1,    1:    1) @Sun Jun 30 23:26:37 2019


          -----------------------------------------------
          SCF energy                      -2.861514227228
          SCS Correlation energy          -0.042568648577
          Total SCS-MP2 energy            -2.904082875804
          -----------------------------------------------

 -----------------------
 Performance information
 -----------------------

 Timer overhead =  2.01D-07 seconds/call

               Nr. of calls         CPU time (s)                 Wall time (s)                GFlops
             ---------------    -------------------     ------------------------------   -------------------
Name         Min   Avg   Max    Min     Avg     Max     Min     Avg     Max   Mx/calls   Min     Max     Sum
Overall       1     1     1   1.88E-2 1.92E-2 1.94E-2  1.94E-2 1.94E-2 1.94E-2 1.94E-2   0.0     0.0     0.0   
3c integr     1     1     1   2.70E-3 2.74E-3 2.76E-3  2.76E-3 2.76E-3 2.76E-3 2.76E-3   0.0     0.0     0.0   
Energy        1     1     1   1.12E-3 1.12E-3 1.12E-3  1.12E-3 1.12E-3 1.12E-3 1.12E-3   0.0     0.0     0.0   
3c integr     1     1     1   1.06E-3 1.55E-3 2.31E-3  1.06E-3 1.57E-3 2.38E-3 2.38E-3   0.0     0.0     0.0   
First 2/3     3     3     3   1.00E-5 1.15E-5 1.20E-5  1.04E-5 1.15E-5 1.32E-5 4.40E-6   0.0     0.0     0.0   
Final 1/3     1     1     1   9.30E-5 9.33E-5 9.40E-5  9.34E-5 9.35E-5 9.37E-5 9.37E-5   0.0     0.0     0.0   
Write 3c      1     1     1   2.00E-5 2.05E-5 2.10E-5  2.07E-5 2.08E-5 2.10E-5 2.10E-5   0.0     0.0     0.0   
Read 3c i     1     1     1   1.40E-5 1.60E-5 1.90E-5  1.30E-5 1.56E-5 1.86E-5 1.86E-5   0.0     0.0     0.0   
Fitting b     1     1     1   1.93E-3 1.93E-3 1.94E-3  1.93E-3 1.94E-3 1.94E-3 1.94E-3   0.0     0.0     0.0   
Schwarz i     1     1     1   2.00E-3 2.01E-3 2.02E-3  2.00E-3 2.01E-3 2.02E-3 2.02E-3   0.0     0.0     0.0   
Form 4ci      1     1     1   8.20E-5 8.25E-5 8.30E-5  8.15E-5 8.17E-5 8.21E-5 8.21E-5   0.0     0.0     0.0   
Form A &      1     1     1   1.20E-4 1.20E-4 1.20E-4  1.19E-4 1.20E-4 1.20E-4 1.20E-4   0.0     0.0     0.0   
Denominat     1     1     1   2.00E-6 2.75E-6 4.00E-6  1.86E-6 2.53E-6 4.30E-6 4.30E-6   0.0     0.0     0.0   
Pair Ener     1     1     1   1.10E-5 1.10E-5 1.10E-5  1.04E-5 1.08E-5 1.12E-5 1.12E-5   0.0     0.0     0.0   

 The average no. of pstat calls per process was 1.60D+01
 with a timing overhead of 3.22D-06s


 Task  times  cpu:        0.0s     wall:        0.0s


                                NWChem Input Module
                                -------------------


                                 NWChem SCF Module
                                 -----------------



  ao basis        = "ao basis"
  functions       =    30
  atoms           =     1
  closed shells   =     1
  open shells     =     0
  charge          =   0.00
  wavefunction    = RHF 
  input vectors   = ./He_scs-mp2_cc-vqz.movecs
  output vectors  = ./He_scs-mp2_cc-vqz.movecs
  use symmetry    = F
  symmetry adapt  = F


 Summary of "ao basis" -> "ao basis" (spherical)
 ------------------------------------------------------------------------------
       Tag                 Description            Shells   Functions and Types
 ---------------- ------------------------------  ------  ---------------------
 He                         cc-pvqz                 10       30   4s3p2d1f



  The SCF is already converged 

         Total SCF energy =     -2.861514227228

                   NWChem MP2 Semi-direct Energy/Gradient Module
                   ---------------------------------------------


  Basis functions       =     30
  Molecular orbitals    =     30
  Frozen core           =      0
  Frozen virtuals       =      0
  Active alpha occupied =      1
  Active beta occupied  =      1
  Active alpha virtual  =     29
  Active beta virtual   =     29
  Use MO symmetry       = F
  Use skeleton AO sym   = F

  AO/Fock/Back tols     =   1.0D-09  1.0D-09  1.0D-09
  SCS-MP2               = T
  #avail    536870912.00000000     
  #avail    536870912.00000000     
  #avail    536870912.00000000     
  #avail    536870912.00000000     

 GA uses MA = F    GA memory limited = T

 Available: 
  local mem=  6.55D+07
 global mem=  6.55D+07
 local disk=  5.37D+08
  mp2_memr nvloc                     8
  nvloc new                     8
   1 passes of   1:         736083                       1908                     10049.

 Semi-direct pass number   1 of   1  for RHF alpha+beta  at        0.2s
  vrange nnbf                   465
Node 0 wrote      0.0 Mb in      0.0 s     Agg I/O rate:   747.6 Mb/s
 Done moints_semi at        0.2s
 Done maket at        0.2s
 Done multipass loop at        0.2s


          -------------------------------------------
          SCF energy                  -2.861514227228
          Correlation energy          -0.035478004329
          Singlet pairs               -0.035478004329
          Triplet pairs                0.000000000000
          Total MP2 energy            -2.896992231557
          -------------------------------------------



          ---------------------------------------------------
                    Spin Component Scaled (SCS) MP2
          Same spin pairs                      0.000000000000
          Same spin scaling factor             1.000000000000
          Opposite spin pairs                 -0.035478004329
          Opposite spin scaling fact.          1.000000000000
          SCS-MP2 correlation energy          -0.035478004329
          Total SCS-MP2 energy                -2.896992231557
          ---------------------------------------------------

 -----------------------
 Performance information
 -----------------------

 Timer overhead =  2.06D-07 seconds/call

               Nr. of calls         CPU time (s)                 Wall time (s)                GFlops
             ---------------    -------------------     ------------------------------   -------------------
Name         Min   Avg   Max    Min     Avg     Max     Min     Avg     Max   Mx/calls   Min     Max     Sum
mp2: moin     1     1     1   1.46E-2 1.53E-2 1.58E-2  1.58E-2 1.58E-2 1.58E-2 1.58E-2   0.0     0.0     0.0   
mp2: make     1     1     1   8.26E-4 9.62E-4 1.01E-3  1.01E-3 1.01E-3 1.01E-3 1.01E-3   0.0     0.0     0.0   
mp2: tota     1     1     1   3.88E-2 3.96E-2 4.12E-2  4.12E-2 4.12E-2 4.12E-2 4.12E-2   0.0     0.0     0.0   

 The average no. of pstat calls per process was 3.00D+00
 with a timing overhead of 6.17D-07s


 Task  times  cpu:        0.0s     wall:        0.0s


                                NWChem Input Module
                                -------------------


                                 NWChem SCF Module
                                 -----------------



  ao basis        = "ao basis"
  functions       =    30
  atoms           =     1
  closed shells   =     1
  open shells     =     0
  charge          =   0.00
  wavefunction    = RHF 
  input vectors   = ./He_scs-mp2_cc-vqz.movecs
  output vectors  = ./He_scs-mp2_cc-vqz.movecs
  use symmetry    = F
  symmetry adapt  = F


 Summary of "ao basis" -> "ao basis" (spherical)
 ------------------------------------------------------------------------------
       Tag                 Description            Shells   Functions and Types
 ---------------- ------------------------------  ------  ---------------------
 He                         cc-pvqz                 10       30   4s3p2d1f



  The SCF is already converged 

         Total SCF energy =     -2.861514227228

                          Direct MP2
                          ----------
          Basis functions:                       30
          Shells:                                10
          Block length:                          32
          Active occupied range:           1 -    1
          Active virtual range:            2 -   30
          MO coefficients read from:  ./He_scs-mp2_cc-vqz.movec
          Operator matrices in core:              1
          AO passes required:                     1
          Use AO Integral blocking
          Twofold algorithm used

          SCS-MP2:                                T
          Same spin scaling factor:         1.00000
          Opposite spin scaling factor:     1.00000

     Pass:    1     Index range:    1  -    1     Time:      0.01


          -----------------------------------------------
          SCF energy                      -2.861514227228
          SCS Correlation energy          -0.035478004329
          Total SCS-MP2 energy            -2.896992231557
          -----------------------------------------------


          Total MP2 time:           0.02

 Task  times  cpu:        0.0s     wall:        0.0s


                                NWChem Input Module
                                -------------------


                                 NWChem SCF Module
                                 -----------------



  ao basis        = "ao basis"
  functions       =    30
  atoms           =     1
  closed shells   =     1
  open shells     =     0
  charge          =   0.00
  wavefunction    = RHF 
  input vectors   = ./He_scs-mp2_cc-vqz.movecs
  output vectors  = ./He_scs-mp2_cc-vqz.movecs
  use symmetry    = F
  symmetry adapt  = F


 Summary of "ao basis" -> "ao basis" (spherical)
 ------------------------------------------------------------------------------
       Tag                 Description            Shells   Functions and Types
 ---------------- ------------------------------  ------  ---------------------
 He                         cc-pvqz                 10       30   4s3p2d1f



  The SCF is already converged 

         Total SCF energy =     -2.861514227228

                               NWChem RI-MP2 Module
                               --------------------



 SCF Reference Information:
            File: './He_scs-mp2_cc-vqz.movecs'
           Title: ''
    Size (AOxMO):     30 x     30
       Total Occ:               2.00
 RI-MP2 Calculation Information:
          Nr. of AO basis functions:         30
     Nr. of fitting basis functions:         46
               Nr. of MO spin cases:          1
        Nr. of MOs to be correlated:         30
     Nr. of occupied MOs correlated:          1
      Nr. of virtual MOs correlated:         29

                            SCS-MP2: T
           Same spin scaling factor:  1.000E+00
       Opposite spin scaling factor:  1.000E+00

          RI integral approximation: 'V'
    Threshold for Schwarz screening:  1.000E-09
 Smallest eigenvalue retained in fit  1.000E-08
     Base file name for MO integrals 'mo3cint'
    Type of storage for MO integrals 'EAF library'

 Transformation block size    1, requiring     1 integral passes.
 XForm_3cInts: Completed     1:    1 pass.             @Sun Jun 30 23:26:37 2019
 Energy evaluation using block sizes     1    1
 RIMP2_V_E2: Approx. ints. done (    1:    1,    1:    1) @Sun Jun 30 23:26:37 2019
 RIMP2_V_E2: Copy to B done (    1:    1,    1:    1)  @Sun Jun 30 23:26:37 2019
 RIMP2_V_E2: Denominators done (    1:    1,    1:    1) @Sun Jun 30 23:26:37 2019
 RIMP2_V_E2: Completed block (    1:    1,    1:    1) @Sun Jun 30 23:26:37 2019


          -----------------------------------------------
          SCF energy                      -2.861514227228
          SCS Correlation energy          -0.035473873814
          Total SCS-MP2 energy            -2.896988101042
          -----------------------------------------------

 -----------------------
 Performance information
 -----------------------

 Timer overhead =  5.99D-07 seconds/call

               Nr. of calls         CPU time (s)                 Wall time (s)                GFlops
             ---------------    -------------------     ------------------------------   -------------------
Name         Min   Avg   Max    Min     Avg     Max     Min     Avg     Max   Mx/calls   Min     Max     Sum
Overall       1     1     1   1.47E-2 1.76E-2 1.87E-2  1.87E-2 1.87E-2 1.87E-2 1.87E-2   0.0     0.0     0.0   
3c integr     1     1     1   2.63E-3 2.65E-3 2.65E-3  2.65E-3 2.65E-3 2.65E-3 2.65E-3   0.0     0.0     0.0   
Energy        1     1     1   1.11E-3 1.11E-3 1.11E-3  1.11E-3 1.11E-3 1.11E-3 1.11E-3   0.0     0.0     0.0   
3c integr     1     1     1   1.05E-3 1.53E-3 2.27E-3  1.05E-3 1.53E-3 2.27E-3 2.27E-3   0.0     0.0     0.0   
First 2/3     3     3     3   7.00E-6 8.75E-6 1.00E-5  8.33E-6 9.19E-6 1.06E-5 3.55E-6   0.0     0.0     0.0   
Final 1/3     1     1     1   9.60E-5 9.63E-5 9.70E-5  9.60E-5 9.61E-5 9.61E-5 9.61E-5   0.0     0.0     0.0   
Write 3c      1     1     1   2.00E-5 2.02E-5 2.10E-5  1.98E-5 1.99E-5 2.03E-5 2.03E-5   0.0     0.0     0.0   
Read 3c i     1     1     1   1.30E-5 1.58E-5 1.90E-5  1.24E-5 1.53E-5 1.84E-5 1.84E-5   0.0     0.0     0.0   
Fitting b     1     1     1   1.45E-3 1.68E-3 1.76E-3  1.75E-3 1.76E-3 1.76E-3 1.76E-3   0.0     0.0     0.0   
Schwarz i     1     1     1   1.89E-3 2.03E-3 2.10E-3  2.09E-3 2.10E-3 2.11E-3 2.11E-3   0.0     0.0     0.0   
Form 4ci      1     1     1   7.90E-5 7.90E-5 7.90E-5  7.87E-5 7.88E-5 7.90E-5 7.90E-5   0.0     0.0     0.0   
Form A &      1     1     1   1.20E-4 1.20E-4 1.20E-4  1.19E-4 1.20E-4 1.20E-4 1.20E-4   0.0     0.0     0.0   
Denominat     1     1     1   1.00E-6 1.75E-6 2.00E-6  1.72E-6 1.89E-6 2.09E-6 2.09E-6   0.0     0.0     0.0   
Pair Ener     1     1     1   1.10E-5 1.10E-5 1.10E-5  1.04E-5 1.08E-5 1.10E-5 1.10E-5   0.0     0.0     0.0   

 The average no. of pstat calls per process was 1.60D+01
 with a timing overhead of 9.59D-06s


 Task  times  cpu:        0.0s     wall:        0.0s


                                NWChem Input Module
                                -------------------


                                 NWChem SCF Module
                                 -----------------



  ao basis        = "ao basis"
  functions       =    30
  atoms           =     1
  closed shells   =     1
  open shells     =     0
  charge          =   0.00
  wavefunction    = RHF 
  input vectors   = ./He_scs-mp2_cc-vqz.movecs
  output vectors  = ./He_scs-mp2_cc-vqz.movecs
  use symmetry    = F
  symmetry adapt  = F


 Summary of "ao basis" -> "ao basis" (spherical)
 ------------------------------------------------------------------------------
       Tag                 Description            Shells   Functions and Types
 ---------------- ------------------------------  ------  ---------------------
 He                         cc-pvqz                 10       30   4s3p2d1f



  The SCF is already converged 

         Total SCF energy =     -2.861514227228

                   NWChem MP2 Semi-direct Energy/Gradient Module
                   ---------------------------------------------


  Basis functions       =     30
  Molecular orbitals    =     30
  Frozen core           =      0
  Frozen virtuals       =      0
  Active alpha occupied =      1
  Active beta occupied  =      1
  Active alpha virtual  =     29
  Active beta virtual   =     29
  Use MO symmetry       = F
  Use skeleton AO sym   = F

  AO/Fock/Back tols     =   1.0D-09  1.0D-09  1.0D-09
  SCS-MP2               = T
  #avail    536870912.00000000     
  #avail    536870912.00000000     
  #avail    536870912.00000000     
  #avail    536870912.00000000     

 GA uses MA = F    GA memory limited = T

 Available: 
  local mem=  6.55D+07
 global mem=  6.55D+07
 local disk=  5.37D+08
  mp2_memr nvloc                     8
  nvloc new                     8
   1 passes of   1:         736083                       1908                     10049.

 Semi-direct pass number   1 of   1  for RHF alpha+beta  at        0.3s
  vrange nnbf                   465
Node 0 wrote      0.0 Mb in      0.0 s     Agg I/O rate:   727.4 Mb/s
 Done moints_semi at        0.3s
 Done maket at        0.3s
 Done multipass loop at        0.3s


          -------------------------------------------
          SCF energy                  -2.861514227228
          Correlation energy          -0.035478004329
          Singlet pairs               -0.035478004329
          Triplet pairs                0.000000000000
          Total MP2 energy            -2.896992231557
          -------------------------------------------



          ---------------------------------------------------
                    Spin Component Scaled (SCS) MP2
          Same spin pairs                      0.000000000000
          Same spin scaling factor             0.000000000000
          Opposite spin pairs                 -0.035478004329
          Opposite spin scaling fact.          0.000000000000
          SCS-MP2 correlation energy           0.000000000000
          Total SCS-MP2 energy                -2.861514227228
          ---------------------------------------------------

 -----------------------
 Performance information
 -----------------------

 Timer overhead =  3.26D-07 seconds/call

               Nr. of calls         CPU time (s)                 Wall time (s)                GFlops
             ---------------    -------------------     ------------------------------   -------------------
Name         Min   Avg   Max    Min     Avg     Max     Min     Avg     Max   Mx/calls   Min     Max     Sum
mp2: moin     1     1     1   1.50E-2 1.55E-2 1.56E-2  1.56E-2 1.56E-2 1.56E-2 1.56E-2   0.0     0.0     0.0   
mp2: make     1     1     1   1.02E-3 1.03E-3 1.03E-3  1.03E-3 1.03E-3 1.03E-3 1.03E-3   0.0     0.0     0.0   
mp2: tota     1     1     1   3.91E-2 4.05E-2 4.15E-2  4.16E-2 4.16E-2 4.16E-2 4.16E-2   0.0     0.0     0.0   

 The average no. of pstat calls per process was 3.00D+00
 with a timing overhead of 9.78D-07s


 Task  times  cpu:        0.0s     wall:        0.1s


                                NWChem Input Module
                                -------------------


                                 NWChem SCF Module
                                 -----------------



  ao basis        = "ao basis"
  functions       =    30
  atoms           =     1
  closed shells   =     1
  open shells     =     0
  charge          =   0.00
  wavefunction    = RHF 
  input vectors   = ./He_scs-mp2_cc-vqz.movecs
  output vectors  = ./He_scs-mp2_cc-vqz.movecs
  use symmetry    = F
  symmetry adapt  = F


 Summary of "ao basis" -> "ao basis" (spherical)
 ------------------------------------------------------------------------------
       Tag                 Description            Shells   Functions and Types
 ---------------- ------------------------------  ------  ---------------------
 He                         cc-pvqz                 10       30   4s3p2d1f



  The SCF is already converged 

         Total SCF energy =     -2.861514227228

                          Direct MP2
                          ----------
          Basis functions:                       30
          Shells:                                10
          Block length:                          32
          Active occupied range:           1 -    1
          Active virtual range:            2 -   30
          MO coefficients read from:  ./He_scs-mp2_cc-vqz.movec
          Operator matrices in core:              1
          AO passes required:                     1
          Use AO Integral blocking
          Twofold algorithm used

          SCS-MP2:                                T
          Same spin scaling factor:         0.00000
          Opposite spin scaling factor:     0.00000

     Pass:    1     Index range:    1  -    1     Time:      0.01


          -----------------------------------------------
          SCF energy                      -2.861514227228
          SCS Correlation energy           0.000000000000
          Total SCS-MP2 energy            -2.861514227228
          -----------------------------------------------


          Total MP2 time:           0.02

 Task  times  cpu:        0.0s     wall:        0.0s


                                NWChem Input Module
                                -------------------


                                 NWChem SCF Module
                                 -----------------



  ao basis        = "ao basis"
  functions       =    30
  atoms           =     1
  closed shells   =     1
  open shells     =     0
  charge          =   0.00
  wavefunction    = RHF 
  input vectors   = ./He_scs-mp2_cc-vqz.movecs
  output vectors  = ./He_scs-mp2_cc-vqz.movecs
  use symmetry    = F
  symmetry adapt  = F


 Summary of "ao basis" -> "ao basis" (spherical)
 ------------------------------------------------------------------------------
       Tag                 Description            Shells   Functions and Types
 ---------------- ------------------------------  ------  ---------------------
 He                         cc-pvqz                 10       30   4s3p2d1f



  The SCF is already converged 

         Total SCF energy =     -2.861514227228

                               NWChem RI-MP2 Module
                               --------------------



 SCF Reference Information:
            File: './He_scs-mp2_cc-vqz.movecs'
           Title: ''
    Size (AOxMO):     30 x     30
       Total Occ:               2.00
 RI-MP2 Calculation Information:
          Nr. of AO basis functions:         30
     Nr. of fitting basis functions:         46
               Nr. of MO spin cases:          1
        Nr. of MOs to be correlated:         30
     Nr. of occupied MOs correlated:          1
      Nr. of virtual MOs correlated:         29

                            SCS-MP2: T
           Same spin scaling factor:  0.000E+00
       Opposite spin scaling factor:  0.000E+00

          RI integral approximation: 'V'
    Threshold for Schwarz screening:  1.000E-09
 Smallest eigenvalue retained in fit  1.000E-08
     Base file name for MO integrals 'mo3cint'
    Type of storage for MO integrals 'EAF library'

 Transformation block size    1, requiring     1 integral passes.
 XForm_3cInts: Completed     1:    1 pass.             @Sun Jun 30 23:26:37 2019
 Energy evaluation using block sizes     1    1
 RIMP2_V_E2: Approx. ints. done (    1:    1,    1:    1) @Sun Jun 30 23:26:37 2019
 RIMP2_V_E2: Copy to B done (    1:    1,    1:    1)  @Sun Jun 30 23:26:37 2019
 RIMP2_V_E2: Denominators done (    1:    1,    1:    1) @Sun Jun 30 23:26:37 2019
 RIMP2_V_E2: Completed block (    1:    1,    1:    1) @Sun Jun 30 23:26:37 2019


          -----------------------------------------------
          SCF energy                      -2.861514227228
          SCS Correlation energy           0.000000000000
          Total SCS-MP2 energy            -2.861514227228
          -----------------------------------------------

 -----------------------
 Performance information
 -----------------------

 Timer overhead =  5.98D-07 seconds/call

               Nr. of calls         CPU time (s)                 Wall time (s)                GFlops
             ---------------    -------------------     ------------------------------   -------------------
Name         Min   Avg   Max    Min     Avg     Max     Min     Avg     Max   Mx/calls   Min     Max     Sum
Overall       1     1     1   1.81E-2 1.87E-2 1.89E-2  1.89E-2 1.89E-2 1.89E-2 1.89E-2   0.0     0.0     0.0   
3c integr     1     1     1   2.68E-3 2.68E-3 2.68E-3  2.68E-3 2.68E-3 2.68E-3 2.68E-3   0.0     0.0     0.0   
Energy        1     1     1   1.13E-3 1.30E-3 1.36E-3  1.36E-3 1.36E-3 1.36E-3 1.36E-3   0.0     0.0     0.0   
3c integr     1     1     1   1.06E-3 1.54E-3 2.27E-3  1.06E-3 1.54E-3 2.27E-3 2.27E-3   0.0     0.0     0.0   
First 2/3     3     3     3   9.00E-6 1.07E-5 1.20E-5  1.00E-5 1.12E-5 1.25E-5 4.16E-6   0.0     0.0     0.0   
Final 1/3     1     1     1   1.04E-4 1.04E-4 1.05E-4  1.04E-4 1.04E-4 1.04E-4 1.04E-4   0.0     0.0     0.0   
Write 3c      1     1     1   2.30E-5 2.30E-5 2.30E-5  2.31E-5 2.31E-5 2.32E-5 2.32E-5   0.0     0.0     0.0   
Read 3c i     1     1     1   1.40E-5 1.65E-5 1.90E-5  1.33E-5 1.60E-5 1.86E-5 1.86E-5   0.0     0.0     0.0   
Fitting b     1     1     1   1.69E-3 1.74E-3 1.75E-3  1.75E-3 1.75E-3 1.75E-3 1.75E-3   0.0     0.0     0.0   
Schwarz i     1     1     1   1.83E-3 2.01E-3 2.07E-3  2.07E-3 2.07E-3 2.08E-3 2.08E-3   0.0     0.0     0.0   
Form 4ci      1     1     1   4.20E-5 7.30E-5 8.40E-5  8.25E-5 8.33E-5 8.48E-5 8.48E-5   0.0     0.0     0.0   
Form A &      1     1     1   1.18E-4 1.19E-4 1.19E-4  1.18E-4 1.18E-4 1.18E-4 1.18E-4   0.0     0.0     0.0   
Denominat     1     1     1   2.00E-6 2.00E-6 2.00E-6  1.81E-6 2.00E-6 2.16E-6 2.16E-6   0.0     0.0     0.0   
Pair Ener     1     1     1   7.00E-6 7.75E-6 8.00E-6  7.70E-6 7.81E-6 7.98E-6 7.98E-6   0.0     0.0     0.0   

 The average no. of pstat calls per process was 1.60D+01
 with a timing overhead of 9.57D-06s


 Task  times  cpu:        0.0s     wall:        0.0s


                                NWChem Input Module
                                -------------------


                                 NWChem SCF Module
                                 -----------------



  ao basis        = "ao basis"
  functions       =    30
  atoms           =     1
  closed shells   =     1
  open shells     =     0
  charge          =   0.00
  wavefunction    = RHF 
  input vectors   = ./He_scs-mp2_cc-vqz.movecs
  output vectors  = ./He_scs-mp2_cc-vqz.movecs
  use symmetry    = F
  symmetry adapt  = F


 Summary of "ao basis" -> "ao basis" (spherical)
 ------------------------------------------------------------------------------
       Tag                 Description            Shells   Functions and Types
 ---------------- ------------------------------  ------  ---------------------
 He                         cc-pvqz                 10       30   4s3p2d1f



  The SCF is already converged 

         Total SCF energy =     -2.861514227228

                   NWChem MP2 Semi-direct Energy/Gradient Module
                   ---------------------------------------------


  Basis functions       =     30
  Molecular orbitals    =     30
  Frozen core           =      0
  Frozen virtuals       =      0
  Active alpha occupied =      1
  Active beta occupied  =      1
  Active alpha virtual  =     29
  Active beta virtual   =     29
  Use MO symmetry       = F
  Use skeleton AO sym   = F

  AO/Fock/Back tols     =   1.0D-09  1.0D-09  1.0D-09
  SCS-MP2               = T
  #avail    536870912.00000000     
  #avail    536870912.00000000     
  #avail    536870912.00000000     

 GA uses MA = F    GA memory limited = T

 Available: 
  #avail    536870912.00000000     
  local mem=  6.55D+07
 global mem=  6.55D+07
 local disk=  5.37D+08
  mp2_memr nvloc                     8
  nvloc new                     8
   1 passes of   1:         736083                       1908                     10049.

 Semi-direct pass number   1 of   1  for RHF alpha+beta  at        0.4s
  vrange nnbf                   465
Node 0 wrote      0.0 Mb in      0.0 s     Agg I/O rate:   662.5 Mb/s
 Done moints_semi at        0.4s
 Done maket at        0.4s
 Done multipass loop at        0.4s


          -------------------------------------------
          SCF energy                  -2.861514227228
          Correlation energy          -0.035478004329
          Singlet pairs               -0.035478004329
          Triplet pairs                0.000000000000
          Total MP2 energy            -2.896992231557
          -------------------------------------------



          ---------------------------------------------------
                    Spin Component Scaled (SCS) MP2
          Same spin pairs                      0.000000000000
          Same spin scaling factor             0.000000000000
          Opposite spin pairs                 -0.035478004329
          Opposite spin scaling fact.          1.000000000000
          SCS-MP2 correlation energy          -0.035478004329
          Total SCS-MP2 energy                -2.896992231557
          ---------------------------------------------------

 -----------------------
 Performance information
 -----------------------

 Timer overhead =  1.98D-07 seconds/call

               Nr. of calls         CPU time (s)                 Wall time (s)                GFlops
             ---------------    -------------------     ------------------------------   -------------------
Name         Min   Avg   Max    Min     Avg     Max     Min     Avg     Max   Mx/calls   Min     Max     Sum
mp2: moin     1     1     1   1.49E-2 1.55E-2 1.58E-2  1.58E-2 1.58E-2 1.58E-2 1.58E-2   0.0     0.0     0.0   
mp2: make     1     1     1   1.03E-3 1.19E-3 1.24E-3  1.24E-3 1.24E-3 1.24E-3 1.24E-3   0.0     0.0     0.0   
mp2: tota     1     1     1   3.95E-2 4.08E-2 4.19E-2  4.19E-2 4.19E-2 4.19E-2 4.19E-2   0.0     0.0     0.0   

 The average no. of pstat calls per process was 3.00D+00
 with a timing overhead of 5.95D-07s


 Task  times  cpu:        0.0s     wall:        0.0s


                                NWChem Input Module
                                -------------------


                                 NWChem SCF Module
                                 -----------------



  ao basis        = "ao basis"
  functions       =    30
  atoms           =     1
  closed shells   =     1
  open shells     =     0
  charge          =   0.00
  wavefunction    = RHF 
  input vectors   = ./He_scs-mp2_cc-vqz.movecs
  output vectors  = ./He_scs-mp2_cc-vqz.movecs
  use symmetry    = F
  symmetry adapt  = F


 Summary of "ao basis" -> "ao basis" (spherical)
 ------------------------------------------------------------------------------
       Tag                 Description            Shells   Functions and Types
 ---------------- ------------------------------  ------  ---------------------
 He                         cc-pvqz                 10       30   4s3p2d1f



  The SCF is already converged 

         Total SCF energy =     -2.861514227228

                          Direct MP2
                          ----------
          Basis functions:                       30
          Shells:                                10
          Block length:                          32
          Active occupied range:           1 -    1
          Active virtual range:            2 -   30
          MO coefficients read from:  ./He_scs-mp2_cc-vqz.movec
          Operator matrices in core:              1
          AO passes required:                     1
          Use AO Integral blocking
          Twofold algorithm used

          SCS-MP2:                                T
          Same spin scaling factor:         0.00000
          Opposite spin scaling factor:     1.00000

     Pass:    1     Index range:    1  -    1     Time:      0.01


          -----------------------------------------------
          SCF energy                      -2.861514227228
          SCS Correlation energy          -0.035478004329
          Total SCS-MP2 energy            -2.896992231557
          -----------------------------------------------


          Total MP2 time:           0.02

 Task  times  cpu:        0.0s     wall:        0.0s


                                NWChem Input Module
                                -------------------


                                 NWChem SCF Module
                                 -----------------



  ao basis        = "ao basis"
  functions       =    30
  atoms           =     1
  closed shells   =     1
  open shells     =     0
  charge          =   0.00
  wavefunction    = RHF 
  input vectors   = ./He_scs-mp2_cc-vqz.movecs
  output vectors  = ./He_scs-mp2_cc-vqz.movecs
  use symmetry    = F
  symmetry adapt  = F


 Summary of "ao basis" -> "ao basis" (spherical)
 ------------------------------------------------------------------------------
       Tag                 Description            Shells   Functions and Types
 ---------------- ------------------------------  ------  ---------------------
 He                         cc-pvqz                 10       30   4s3p2d1f



  The SCF is already converged 

         Total SCF energy =     -2.861514227228

                               NWChem RI-MP2 Module
                               --------------------



 SCF Reference Information:
            File: './He_scs-mp2_cc-vqz.movecs'
           Title: ''
    Size (AOxMO):     30 x     30
       Total Occ:               2.00
 RI-MP2 Calculation Information:
          Nr. of AO basis functions:         30
     Nr. of fitting basis functions:         46
               Nr. of MO spin cases:          1
        Nr. of MOs to be correlated:         30
     Nr. of occupied MOs correlated:          1
      Nr. of virtual MOs correlated:         29

                            SCS-MP2: T
           Same spin scaling factor:  0.000E+00
       Opposite spin scaling factor:  1.000E+00

          RI integral approximation: 'V'
    Threshold for Schwarz screening:  1.000E-09
 Smallest eigenvalue retained in fit  1.000E-08
     Base file name for MO integrals 'mo3cint'
    Type of storage for MO integrals 'EAF library'

 Transformation block size    1, requiring     1 integral passes.
 XForm_3cInts: Completed     1:    1 pass.             @Sun Jun 30 23:26:37 2019
 Energy evaluation using block sizes     1    1
 RIMP2_V_E2: Approx. ints. done (    1:    1,    1:    1) @Sun Jun 30 23:26:37 2019
 RIMP2_V_E2: Copy to B done (    1:    1,    1:    1)  @Sun Jun 30 23:26:37 2019
 RIMP2_V_E2: Denominators done (    1:    1,    1:    1) @Sun Jun 30 23:26:37 2019
 RIMP2_V_E2: Completed block (    1:    1,    1:    1) @Sun Jun 30 23:26:37 2019


          -----------------------------------------------
          SCF energy                      -2.861514227228
          SCS Correlation energy          -0.035473873814
          Total SCS-MP2 energy            -2.896988101042
          -----------------------------------------------

 -----------------------
 Performance information
 -----------------------

 Timer overhead =  2.00D-07 seconds/call

               Nr. of calls         CPU time (s)                 Wall time (s)                GFlops
             ---------------    -------------------     ------------------------------   -------------------
Name         Min   Avg   Max    Min     Avg     Max     Min     Avg     Max   Mx/calls   Min     Max     Sum
Overall       1     1     1   1.84E-2 1.88E-2 1.89E-2  1.90E-2 1.90E-2 1.90E-2 1.90E-2   0.0     0.0     0.0   
3c integr     1     1     1   2.71E-3 2.74E-3 2.77E-3  2.77E-3 2.77E-3 2.77E-3 2.77E-3   0.0     0.0     0.0   
Energy        1     1     1   1.12E-3 1.13E-3 1.13E-3  1.13E-3 1.13E-3 1.13E-3 1.13E-3   0.0     0.0     0.0   
3c integr     1     1     1   1.06E-3 1.55E-3 2.32E-3  1.06E-3 1.57E-3 2.38E-3 2.38E-3   0.0     0.0     0.0   
First 2/3     3     3     3   7.00E-6 9.25E-6 1.20E-5  8.24E-6 9.06E-6 1.11E-5 3.69E-6   0.0     0.0     0.0   
Final 1/3     1     1     1   9.60E-5 9.65E-5 9.70E-5  9.64E-5 9.66E-5 9.68E-5 9.68E-5   0.0     0.0     0.0   
Write 3c      1     1     1   2.00E-5 2.05E-5 2.10E-5  2.05E-5 2.08E-5 2.15E-5 2.15E-5   0.0     0.0     0.0   
Read 3c i     1     1     1   1.30E-5 1.60E-5 1.90E-5  1.26E-5 1.56E-5 1.84E-5 1.84E-5   0.0     0.0     0.0   
Fitting b     1     1     1   1.74E-3 1.74E-3 1.74E-3  1.74E-3 1.74E-3 1.74E-3 1.74E-3   0.0     0.0     0.0   
Schwarz i     1     1     1   2.00E-3 2.01E-3 2.02E-3  2.01E-3 2.01E-3 2.02E-3 2.02E-3   0.0     0.0     0.0   
Form 4ci      1     1     1   7.80E-5 7.85E-5 7.90E-5  7.80E-5 7.82E-5 7.84E-5 7.84E-5   0.0     0.0     0.0   
Form A &      1     1     1   1.22E-4 1.25E-4 1.27E-4  1.26E-4 1.26E-4 1.26E-4 1.26E-4   0.0     0.0     0.0   
Denominat     1     1     1   2.00E-6 2.00E-6 2.00E-6  1.81E-6 1.89E-6 1.97E-6 1.97E-6   0.0     0.0     0.0   
Pair Ener     1     1     1   1.00E-5 1.08E-5 1.10E-5  1.06E-5 1.11E-5 1.16E-5 1.16E-5   0.0     0.0     0.0   

 The average no. of pstat calls per process was 1.60D+01
 with a timing overhead of 3.19D-06s


 Task  times  cpu:        0.0s     wall:        0.0s


                                NWChem Input Module
                                -------------------


                                 NWChem SCF Module
                                 -----------------



  ao basis        = "ao basis"
  functions       =    30
  atoms           =     1
  closed shells   =     1
  open shells     =     0
  charge          =   0.00
  wavefunction    = RHF 
  input vectors   = ./He_scs-mp2_cc-vqz.movecs
  output vectors  = ./He_scs-mp2_cc-vqz.movecs
  use symmetry    = F
  symmetry adapt  = F


 Summary of "ao basis" -> "ao basis" (spherical)
 ------------------------------------------------------------------------------
       Tag                 Description            Shells   Functions and Types
 ---------------- ------------------------------  ------  ---------------------
 He                         cc-pvqz                 10       30   4s3p2d1f



  The SCF is already converged 

         Total SCF energy =     -2.861514227228

                   NWChem MP2 Semi-direct Energy/Gradient Module
                   ---------------------------------------------


  Basis functions       =     30
  Molecular orbitals    =     30
  Frozen core           =      0
  Frozen virtuals       =      0
  Active alpha occupied =      1
  Active beta occupied  =      1
  Active alpha virtual  =     29
  Active beta virtual   =     29
  Use MO symmetry       = F
  Use skeleton AO sym   = F

  AO/Fock/Back tols     =   1.0D-09  1.0D-09  1.0D-09
  SCS-MP2               = T
  #avail    536870912.00000000     
  #avail    536870912.00000000     
  #avail    536870912.00000000     

 GA uses MA = F    GA memory limited = T

 Available: 
  local mem=  6.55D+07
 global mem=  6.55D+07
 local disk=  5.37D+08
  #avail    536870912.00000000     
  mp2_memr nvloc                     8
  nvloc new                     8
   1 passes of   1:         736083                       1908                     10049.

 Semi-direct pass number   1 of   1  for RHF alpha+beta  at        0.5s
  vrange nnbf                   465
Node 0 wrote      0.0 Mb in      0.0 s     Agg I/O rate:   699.0 Mb/s
 Done moints_semi at        0.5s
 Done maket at        0.5s
 Done multipass loop at        0.5s


          -------------------------------------------
          SCF energy                  -2.861514227228
          Correlation energy          -0.035478004329
          Singlet pairs               -0.035478004329
          Triplet pairs                0.000000000000
          Total MP2 energy            -2.896992231557
          -------------------------------------------



          ---------------------------------------------------
                    Spin Component Scaled (SCS) MP2
          Same spin pairs                      0.000000000000
          Same spin scaling factor             1.000000000000
          Opposite spin pairs                 -0.035478004329
          Opposite spin scaling fact.          0.000000000000
          SCS-MP2 correlation energy           0.000000000000
          Total SCS-MP2 energy                -2.861514227228
          ---------------------------------------------------

 -----------------------
 Performance information
 -----------------------

 Timer overhead =  2.31D-07 seconds/call

               Nr. of calls         CPU time (s)                 Wall time (s)                GFlops
             ---------------    -------------------     ------------------------------   -------------------
Name         Min   Avg   Max    Min     Avg     Max     Min     Avg     Max   Mx/calls   Min     Max     Sum
mp2: moin     1     1     1   1.52E-2 1.56E-2 1.58E-2  1.57E-2 1.58E-2 1.58E-2 1.58E-2   0.0     0.0     0.0   
mp2: make     1     1     1   9.89E-4 9.90E-4 9.90E-4  9.89E-4 9.90E-4 9.91E-4 9.91E-4   0.0     0.0     0.0   
mp2: tota     1     1     1   3.96E-2 4.07E-2 4.10E-2  4.10E-2 4.10E-2 4.10E-2 4.10E-2   0.0     0.0     0.0   

 The average no. of pstat calls per process was 3.00D+00
 with a timing overhead of 6.92D-07s


 Task  times  cpu:        0.0s     wall:        0.0s


                                NWChem Input Module
                                -------------------


                                 NWChem SCF Module
                                 -----------------



  ao basis        = "ao basis"
  functions       =    30
  atoms           =     1
  closed shells   =     1
  open shells     =     0
  charge          =   0.00
  wavefunction    = RHF 
  input vectors   = ./He_scs-mp2_cc-vqz.movecs
  output vectors  = ./He_scs-mp2_cc-vqz.movecs
  use symmetry    = F
  symmetry adapt  = F


 Summary of "ao basis" -> "ao basis" (spherical)
 ------------------------------------------------------------------------------
       Tag                 Description            Shells   Functions and Types
 ---------------- ------------------------------  ------  ---------------------
 He                         cc-pvqz                 10       30   4s3p2d1f



  The SCF is already converged 

         Total SCF energy =     -2.861514227228

                          Direct MP2
                          ----------
          Basis functions:                       30
          Shells:                                10
          Block length:                          32
          Active occupied range:           1 -    1
          Active virtual range:            2 -   30
          MO coefficients read from:  ./He_scs-mp2_cc-vqz.movec
          Operator matrices in core:              1
          AO passes required:                     1
          Use AO Integral blocking
          Twofold algorithm used

          SCS-MP2:                                T
          Same spin scaling factor:         1.00000
          Opposite spin scaling factor:     0.00000

     Pass:    1     Index range:    1  -    1     Time:      0.01


          -----------------------------------------------
          SCF energy                      -2.861514227228
          SCS Correlation energy          -0.000000000000
          Total SCS-MP2 energy            -2.861514227228
          -----------------------------------------------


          Total MP2 time:           0.02

 Task  times  cpu:        0.0s     wall:        0.0s


                                NWChem Input Module
                                -------------------


                                 NWChem SCF Module
                                 -----------------



  ao basis        = "ao basis"
  functions       =    30
  atoms           =     1
  closed shells   =     1
  open shells     =     0
  charge          =   0.00
  wavefunction    = RHF 
  input vectors   = ./He_scs-mp2_cc-vqz.movecs
  output vectors  = ./He_scs-mp2_cc-vqz.movecs
  use symmetry    = F
  symmetry adapt  = F


 Summary of "ao basis" -> "ao basis" (spherical)
 ------------------------------------------------------------------------------
       Tag                 Description            Shells   Functions and Types
 ---------------- ------------------------------  ------  ---------------------
 He                         cc-pvqz                 10       30   4s3p2d1f



  The SCF is already converged 

         Total SCF energy =     -2.861514227228

                               NWChem RI-MP2 Module
                               --------------------



 SCF Reference Information:
            File: './He_scs-mp2_cc-vqz.movecs'
           Title: ''
    Size (AOxMO):     30 x     30
       Total Occ:               2.00
 RI-MP2 Calculation Information:
          Nr. of AO basis functions:         30
     Nr. of fitting basis functions:         46
               Nr. of MO spin cases:          1
        Nr. of MOs to be correlated:         30
     Nr. of occupied MOs correlated:          1
      Nr. of virtual MOs correlated:         29

                            SCS-MP2: T
           Same spin scaling factor:  1.000E+00
       Opposite spin scaling factor:  0.000E+00

          RI integral approximation: 'V'
    Threshold for Schwarz screening:  1.000E-09
 Smallest eigenvalue retained in fit  1.000E-08
     Base file name for MO integrals 'mo3cint'
    Type of storage for MO integrals 'EAF library'

 Transformation block size    1, requiring     1 integral passes.
 XForm_3cInts: Completed     1:    1 pass.             @Sun Jun 30 23:26:37 2019
 Energy evaluation using block sizes     1    1
 RIMP2_V_E2: Approx. ints. done (    1:    1,    1:    1) @Sun Jun 30 23:26:37 2019
 RIMP2_V_E2: Copy to B done (    1:    1,    1:    1)  @Sun Jun 30 23:26:37 2019
 RIMP2_V_E2: Denominators done (    1:    1,    1:    1) @Sun Jun 30 23:26:37 2019
 RIMP2_V_E2: Completed block (    1:    1,    1:    1) @Sun Jun 30 23:26:37 2019


          -----------------------------------------------
          SCF energy                      -2.861514227228
          SCS Correlation energy           0.000000000000
          Total SCS-MP2 energy            -2.861514227228
          -----------------------------------------------

 -----------------------
 Performance information
 -----------------------

 Timer overhead =  5.99D-07 seconds/call

               Nr. of calls         CPU time (s)                 Wall time (s)                GFlops
             ---------------    -------------------     ------------------------------   -------------------
Name         Min   Avg   Max    Min     Avg     Max     Min     Avg     Max   Mx/calls   Min     Max     Sum
Overall       1     1     1   1.80E-2 1.84E-2 1.85E-2  1.85E-2 1.85E-2 1.86E-2 1.86E-2   0.0     0.0     0.0   
3c integr     1     1     1   2.65E-3 2.65E-3 2.65E-3  2.65E-3 2.65E-3 2.65E-3 2.65E-3   0.0     0.0     0.0   
Energy        1     1     1   1.10E-3 1.11E-3 1.11E-3  1.11E-3 1.11E-3 1.11E-3 1.11E-3   0.0     0.0     0.0   
3c integr     1     1     1   1.05E-3 1.53E-3 2.27E-3  1.05E-3 1.53E-3 2.26E-3 2.26E-3   0.0     0.0     0.0   
First 2/3     3     3     3   7.00E-6 8.75E-6 1.10E-5  8.09E-6 8.88E-6 1.06E-5 3.52E-6   0.0     0.0     0.0   
Final 1/3     1     1     1   9.50E-5 9.52E-5 9.60E-5  9.52E-5 9.53E-5 9.54E-5 9.54E-5   0.0     0.0     0.0   
Write 3c      1     1     1   2.00E-5 2.02E-5 2.10E-5  2.03E-5 2.05E-5 2.07E-5 2.07E-5   0.0     0.0     0.0   
Read 3c i     1     1     1   1.40E-5 1.83E-5 2.30E-5  1.26E-5 1.85E-5 2.56E-5 2.56E-5   0.0     0.0     0.0   
Fitting b     1     1     1   1.72E-3 1.74E-3 1.76E-3  1.76E-3 1.76E-3 1.76E-3 1.76E-3   0.0     0.0     0.0   
Schwarz i     1     1     1   1.81E-3 1.97E-3 2.02E-3  2.01E-3 2.02E-3 2.03E-3 2.03E-3   0.0     0.0     0.0   
Form 4ci      1     1     1   7.90E-5 7.93E-5 8.00E-5  7.86E-5 7.88E-5 7.91E-5 7.91E-5   0.0     0.0     0.0   
Form A &      1     1     1   1.18E-4 1.18E-4 1.19E-4  1.18E-4 1.18E-4 1.18E-4 1.18E-4   0.0     0.0     0.0   
Denominat     1     1     1   2.00E-6 2.00E-6 2.00E-6  1.65E-6 1.86E-6 2.02E-6 2.02E-6   0.0     0.0     0.0   
Pair Ener     1     1     1   7.00E-6 7.50E-6 8.00E-6  7.44E-6 7.54E-6 7.61E-6 7.61E-6   0.0     0.0     0.0   

 The average no. of pstat calls per process was 1.60D+01
 with a timing overhead of 9.58D-06s


 Task  times  cpu:        0.0s     wall:        0.0s


                                NWChem Input Module
                                -------------------


                                 NWChem SCF Module
                                 -----------------



  ao basis        = "ao basis"
  functions       =    30
  atoms           =     1
  closed shells   =     1
  open shells     =     0
  charge          =   0.00
  wavefunction    = RHF 
  input vectors   = ./He_scs-mp2_cc-vqz.movecs
  output vectors  = ./He_scs-mp2_cc-vqz.movecs
  use symmetry    = F
  symmetry adapt  = F


 Summary of "ao basis" -> "ao basis" (spherical)
 ------------------------------------------------------------------------------
       Tag                 Description            Shells   Functions and Types
 ---------------- ------------------------------  ------  ---------------------
 He                         cc-pvqz                 10       30   4s3p2d1f



  The SCF is already converged 

         Total SCF energy =     -2.861514227228

                   NWChem MP2 Semi-direct Energy/Gradient Module
                   ---------------------------------------------


  Basis functions       =     30
  Molecular orbitals    =     30
  Frozen core           =      0
  Frozen virtuals       =      0
  Active alpha occupied =      1
  Active beta occupied  =      1
  Active alpha virtual  =     29
  Active beta virtual   =     29
  Use MO symmetry       = F
  Use skeleton AO sym   = F

  AO/Fock/Back tols     =   1.0D-09  1.0D-09  1.0D-09
  SCS-MP2               = T
  #avail    536870912.00000000     
  #avail    536870912.00000000     
  #avail    536870912.00000000     
  #avail    536870912.00000000     

 GA uses MA = F    GA memory limited = T

 Available: 
  local mem=  6.55D+07
 global mem=  6.55D+07
 local disk=  5.37D+08
  mp2_memr nvloc                     8
  nvloc new                     8
   1 passes of   1:         736083                       1908                     10049.

 Semi-direct pass number   1 of   1  for RHF alpha+beta  at        0.6s
  vrange nnbf                   465
Node 0 wrote      0.0 Mb in      0.0 s     Agg I/O rate:   712.8 Mb/s
 Done moints_semi at        0.6s
 Done maket at        0.6s
 Done multipass loop at        0.6s


          -------------------------------------------
          SCF energy                  -2.861514227228
          Correlation energy          -0.035478004329
          Singlet pairs               -0.035478004329
          Triplet pairs                0.000000000000
          Total MP2 energy            -2.896992231557
          -------------------------------------------



          ---------------------------------------------------
                    Spin Component Scaled (SCS) MP2
          Same spin pairs                      0.000000000000
          Same spin scaling factor          1000.000000000000
          Opposite spin pairs                 -0.035478004329
          Opposite spin scaling fact.       1000.000000000000
          SCS-MP2 correlation energy         -35.478004329217
          Total SCS-MP2 energy               -38.339518556445
          ---------------------------------------------------

 -----------------------
 Performance information
 -----------------------

 Timer overhead =  3.77D-07 seconds/call

               Nr. of calls         CPU time (s)                 Wall time (s)                GFlops
             ---------------    -------------------     ------------------------------   -------------------
Name         Min   Avg   Max    Min     Avg     Max     Min     Avg     Max   Mx/calls   Min     Max     Sum
mp2: moin     1     1     1   1.51E-2 1.55E-2 1.56E-2  1.56E-2 1.56E-2 1.56E-2 1.56E-2   0.0     0.0     0.0   
mp2: make     1     1     1   9.30E-4 9.68E-4 9.95E-4  9.95E-4 9.95E-4 9.96E-4 9.96E-4   0.0     0.0     0.0   
mp2: tota     1     1     1   3.96E-2 4.07E-2 4.12E-2  4.13E-2 4.13E-2 4.13E-2 4.13E-2   0.0     0.0     0.0   

 The average no. of pstat calls per process was 3.00D+00
 with a timing overhead of 1.13D-06s


 Task  times  cpu:        0.0s     wall:        0.1s


                                NWChem Input Module
                                -------------------


                                 NWChem SCF Module
                                 -----------------



  ao basis        = "ao basis"
  functions       =    30
  atoms           =     1
  closed shells   =     1
  open shells     =     0
  charge          =   0.00
  wavefunction    = RHF 
  input vectors   = ./He_scs-mp2_cc-vqz.movecs
  output vectors  = ./He_scs-mp2_cc-vqz.movecs
  use symmetry    = F
  symmetry adapt  = F


 Summary of "ao basis" -> "ao basis" (spherical)
 ------------------------------------------------------------------------------
       Tag                 Description            Shells   Functions and Types
 ---------------- ------------------------------  ------  ---------------------
 He                         cc-pvqz                 10       30   4s3p2d1f



  The SCF is already converged 

         Total SCF energy =     -2.861514227228

                          Direct MP2
                          ----------
          Basis functions:                       30
          Shells:                                10
          Block length:                          32
          Active occupied range:           1 -    1
          Active virtual range:            2 -   30
          MO coefficients read from:  ./He_scs-mp2_cc-vqz.movec
          Operator matrices in core:              1
          AO passes required:                     1
          Use AO Integral blocking
          Twofold algorithm used

          SCS-MP2:                                T
          Same spin scaling factor:      1000.00000
          Opposite spin scaling factor:  1000.00000

     Pass:    1     Index range:    1  -    1     Time:      0.01


          -----------------------------------------------
          SCF energy                      -2.861514227228
          SCS Correlation energy         -35.478004329217
          Total SCS-MP2 energy           -38.339518556445
          -----------------------------------------------


          Total MP2 time:           0.01

 Task  times  cpu:        0.0s     wall:        0.0s


                                NWChem Input Module
                                -------------------


                                 NWChem SCF Module
                                 -----------------



  ao basis        = "ao basis"
  functions       =    30
  atoms           =     1
  closed shells   =     1
  open shells     =     0
  charge          =   0.00
  wavefunction    = RHF 
  input vectors   = ./He_scs-mp2_cc-vqz.movecs
  output vectors  = ./He_scs-mp2_cc-vqz.movecs
  use symmetry    = F
  symmetry adapt  = F


 Summary of "ao basis" -> "ao basis" (spherical)
 ------------------------------------------------------------------------------
       Tag                 Description            Shells   Functions and Types
 ---------------- ------------------------------  ------  ---------------------
 He                         cc-pvqz                 10       30   4s3p2d1f



  The SCF is already converged 

         Total SCF energy =     -2.861514227228

                               NWChem RI-MP2 Module
                               --------------------



 SCF Reference Information:
            File: './He_scs-mp2_cc-vqz.movecs'
           Title: ''
    Size (AOxMO):     30 x     30
       Total Occ:               2.00
 RI-MP2 Calculation Information:
          Nr. of AO basis functions:         30
     Nr. of fitting basis functions:         46
               Nr. of MO spin cases:          1
        Nr. of MOs to be correlated:         30
     Nr. of occupied MOs correlated:          1
      Nr. of virtual MOs correlated:         29

                            SCS-MP2: T
           Same spin scaling factor:  1.000E+03
       Opposite spin scaling factor:  1.000E+03

          RI integral approximation: 'V'
    Threshold for Schwarz screening:  1.000E-09
 Smallest eigenvalue retained in fit  1.000E-08
     Base file name for MO integrals 'mo3cint'
    Type of storage for MO integrals 'EAF library'

 Transformation block size    1, requiring     1 integral passes.
 XForm_3cInts: Completed     1:    1 pass.             @Sun Jun 30 23:26:37 2019
 Energy evaluation using block sizes     1    1
 RIMP2_V_E2: Approx. ints. done (    1:    1,    1:    1) @Sun Jun 30 23:26:37 2019
 RIMP2_V_E2: Copy to B done (    1:    1,    1:    1)  @Sun Jun 30 23:26:37 2019
 RIMP2_V_E2: Denominators done (    1:    1,    1:    1) @Sun Jun 30 23:26:37 2019
 RIMP2_V_E2: Completed block (    1:    1,    1:    1) @Sun Jun 30 23:26:37 2019


          -----------------------------------------------
          SCF energy                      -2.861514227228
          SCS Correlation energy         -35.473873813755
          Total SCS-MP2 energy           -38.335388040983
          -----------------------------------------------

 -----------------------
 Performance information
 -----------------------

 Timer overhead =  2.77D-07 seconds/call

               Nr. of calls         CPU time (s)                 Wall time (s)                GFlops
             ---------------    -------------------     ------------------------------   -------------------
Name         Min   Avg   Max    Min     Avg     Max     Min     Avg     Max   Mx/calls   Min     Max     Sum
Overall       1     1     1   1.70E-2 1.85E-2 1.90E-2  1.90E-2 1.90E-2 1.90E-2 1.90E-2   0.0     0.0     0.0   
3c integr     1     1     1   2.68E-3 2.68E-3 2.68E-3  2.68E-3 2.68E-3 2.68E-3 2.68E-3   0.0     0.0     0.0   
Energy        1     1     1    0.0    1.06E-3 1.41E-3  1.41E-3 1.41E-3 1.41E-3 1.41E-3   0.0     0.0     0.0   
3c integr     1     1     1   1.06E-3 1.54E-3 2.27E-3  1.06E-3 1.54E-3 2.27E-3 2.27E-3   0.0     0.0     0.0   
First 2/3     3     3     3   8.00E-6 9.50E-6 1.10E-5  8.92E-6 1.01E-5 1.17E-5 3.90E-6   0.0     0.0     0.0   
Final 1/3     1     1     1   1.01E-4 1.01E-4 1.02E-4  1.02E-4 1.02E-4 1.02E-4 1.02E-4   0.0     0.0     0.0   
Write 3c      1     1     1   2.20E-5 2.25E-5 2.30E-5  2.24E-5 2.26E-5 2.29E-5 2.29E-5   0.0     0.0     0.0   
Read 3c i     1     1     1    0.0    1.18E-5 1.70E-5  1.35E-5 1.60E-5 1.88E-5 1.88E-5   0.0     0.0     0.0   
Fitting b     1     1     1   1.73E-3 1.73E-3 1.73E-3  1.73E-3 1.73E-3 1.73E-3 1.73E-3   0.0     0.0     0.0   
Schwarz i     1     1     1   1.84E-3 2.01E-3 2.07E-3  2.06E-3 2.07E-3 2.08E-3 2.08E-3   0.0     0.0     0.0   
Form 4ci      1     1     1    0.0    6.15E-5 8.20E-5  8.15E-5 8.16E-5 8.18E-5 8.18E-5   0.0     0.0     0.0   
Form A &      1     1     1    0.0    8.95E-5 1.20E-4  1.19E-4 1.19E-4 1.19E-4 1.19E-4   0.0     0.0     0.0   
Denominat     1     1     1    0.0    1.75E-6 3.00E-6  1.66E-6 1.84E-6 1.97E-6 1.97E-6   0.0     0.0     0.0   
Pair Ener     1     1     1    0.0    7.50E-6 1.00E-5  9.85E-6 1.03E-5 1.07E-5 1.07E-5   0.0     0.0     0.0   

 The average no. of pstat calls per process was 1.60D+01
 with a timing overhead of 4.43D-06s


 Task  times  cpu:        0.0s     wall:        0.0s


                                NWChem Input Module
                                -------------------


 Summary of allocated global arrays
-----------------------------------
  No active global arrays



                         GA Statistics for process    0
                         ------------------------------

       create   destroy   get      put      acc     scatter   gather  read&inc
calls:  276      276     3331     1273     1951        6        0      271     
number of processes/call 1.04e+00 1.04e+00 1.03e+00 0.00e+00 0.00e+00
bytes total:             1.21e+06 1.08e+06 3.54e+05 1.80e+03 0.00e+00 2.17e+03
bytes remote:            4.65e+05 4.23e+05 1.04e+05 0.00e+00 0.00e+00 0.00e+00
Max memory consumed for GA by this process: 113648 bytes

MA_summarize_allocated_blocks: starting scan ...
MA_summarize_allocated_blocks: scan completed: 0 heap blocks, 0 stack blocks
MA usage statistics:

	allocation statistics:
					      heap	     stack
					      ----	     -----
	current number of blocks	         0	         0
	maximum number of blocks	        23	        22
	current total bytes		         0	         0
	maximum total bytes		   1058248	  22509768
	maximum total K-bytes		      1059	     22510
	maximum total M-bytes		         2	        23


                                     CITATION
                                     --------
                Please cite the following reference when publishing
                           results obtained with NWChem:

                 M. Valiev, E.J. Bylaska, N. Govind, K. Kowalski,
              T.P. Straatsma, H.J.J. van Dam, D. Wang, J. Nieplocha,
                        E. Apra, T.L. Windus, W.A. de Jong
                 "NWChem: a comprehensive and scalable open-source
                  solution for large scale molecular simulations"
                      Comput. Phys. Commun. 181, 1477 (2010)
                           doi:10.1016/j.cpc.2010.04.018

                                      AUTHORS
                                      -------
          E. Apra, E. J. Bylaska, W. A. de Jong, N. Govind, K. Kowalski,
       T. P. Straatsma, M. Valiev, H. J. J. van Dam, D. Wang, T. L. Windus,
        J. Hammond, J. Autschbach, K. Bhaskaran-Nair, J. Brabec, K. Lopata,
    S. A. Fischer, S. Krishnamoorthy, M. Jacquelin, W. Ma, M. Klemm, O. Villa,
      Y. Chen, V. Anisimov, F. Aquino, S. Hirata, M. T. Hackler, V. Konjkov,
            D. Mejia-Rodriguez, T. Risthaus, M. Malagoli, A. Marenich,
   A. Otero-de-la-Roza, J. Mullin, P. Nichols, R. Peverati, J. Pittner, Y. Zhao,
        P.-D. Fan, A. Fonari, M. J. Williamson, R. J. Harrison, J. R. Rehr,
      M. Dupuis, D. Silverstein, D. M. A. Smith, J. Nieplocha, V. Tipparaju,
    M. Krishnan, B. E. Van Kuiken, A. Vazquez-Mayagoitia, L. Jensen, M. Swart,
      Q. Wu, T. Van Voorhis, A. A. Auer, M. Nooijen, L. D. Crosby, E. Brown,
      G. Cisneros, G. I. Fann, H. Fruchtl, J. Garza, K. Hirao, R. A. Kendall,
      J. A. Nichols, K. Tsemekhman, K. Wolinski, J. Anchell, D. E. Bernholdt,
      P. Borowski, T. Clark, D. Clerc, H. Dachsel, M. J. O. Deegan, K. Dyall,
    D. Elwood, E. Glendening, M. Gutowski, A. C. Hess, J. Jaffe, B. G. Johnson,
     J. Ju, R. Kobayashi, R. Kutteh, Z. Lin, R. Littlefield, X. Long, B. Meng,
      T. Nakajima, S. Niu, L. Pollack, M. Rosing, K. Glaesemann, G. Sandrone,
      M. Stave, H. Taylor, G. Thomas, J. H. van Lenthe, A. T. Wong, Z. Zhang.

 Total times  cpu:        0.6s     wall:        0.7s
[0] ARMCI Warning: Freed 1 leaked allocations
