 argument  1 = /home/list1234/source/nwchem-6.8.1-release/QA/tests/o2_zora_so/o2_zora_so.nw



============================== echo of input deck ==============================
echo
start o2_zora_so

geometry noautoz units angstrom
symmetry c1
 O 0 0 -0.60000000
 O 0 0  0.60000000
end

basis spherical
 * library "DZVP (DFT Orbital)"
end

dft
 grid xfine
 iterations 100
 XC b3lyp
 odft
 mult 3
end

driver
 clear
 maxiter 100
end

relativistic
  zora on
  zora:cutoff 1d-30
end

task sodft optimize
task sodft freq
================================================================================


                                         
                                         


              Northwest Computational Chemistry Package (NWChem) 6.8
              ------------------------------------------------------


                    Environmental Molecular Sciences Laboratory
                       Pacific Northwest National Laboratory
                                Richland, WA 99352

                              Copyright (c) 1994-2018
                       Pacific Northwest National Laboratory
                            Battelle Memorial Institute

             NWChem is an open-source computational chemistry package
                        distributed under the terms of the
                      Educational Community License (ECL) 2.0
             A copy of the license is included with this distribution
                              in the LICENSE.TXT file

                                  ACKNOWLEDGMENT
                                  --------------

            This software and its documentation were developed at the
            EMSL at Pacific Northwest National Laboratory, a multiprogram
            national laboratory, operated for the U.S. Department of Energy
            by Battelle under Contract Number DE-AC05-76RL01830. Support
            for this work was provided by the Department of Energy Office
            of Biological and Environmental Research, Office of Basic
            Energy Sciences, and the Office of Advanced Scientific Computing.


           Job information
           ---------------

    hostname        = list1234-B360M-H
    program         = /home/list1234/source/nwchem-6.8.1-release/bin/LINUX64/nwchem
    date            = Sun Jun 30 13:28:20 2019

    compiled        = Sun_Jun_30_11:55:59_2019
    source          = /home/list1234/source/nwchem-6.8.1-release
    nwchem branch   = Development
    nwchem revision = N/A
    ga revision     = 5.6.5
    use scalapack   = T
    input           = /home/list1234/source/nwchem-6.8.1-release/QA/tests/o2_zora_so/o2_zora_so.nw
    prefix          = o2_zora_so.
    data base       = ./o2_zora_so.db
    status          = startup
    nproc           =        4
    time left       =     -1s



           Memory information
           ------------------

    heap     =   86247162 doubles =    658.0 Mbytes
    stack    =   86247167 doubles =    658.0 Mbytes
    global   =  172494336 doubles =   1316.0 Mbytes (distinct from heap & stack)
    total    =  344988665 doubles =   2632.1 Mbytes
    verify   = yes
    hardfail = no 


           Directory information
           ---------------------

  0 permanent = .
  0 scratch   = .




                                NWChem Input Module
                                -------------------



 Scaling coordinates for geometry "geometry" by  1.889725989
 (inverse scale =  0.529177249)

 Turning off AUTOSYM since
 SYMMETRY directive was detected!



                             Geometry "geometry" -> ""
                             -------------------------

 Output coordinates in angstroms (scale by  1.889725989 to convert to a.u.)

  No.       Tag          Charge          X              Y              Z
 ---- ---------------- ---------- -------------- -------------- --------------
    1 O                    8.0000     0.00000000     0.00000000    -0.60000000
    2 O                    8.0000     0.00000000     0.00000000     0.60000000

      Atomic Mass 
      ----------- 

      O                 15.994910


 Effective nuclear repulsion energy (a.u.)      28.2227866133

            Nuclear Dipole moment (a.u.) 
            ----------------------------
        X                 Y               Z
 ---------------- ---------------- ----------------
     0.0000000000     0.0000000000     0.0000000000


            XYZ format geometry
            -------------------
     2
 geometry
 O                     0.00000000     0.00000000    -0.60000000
 O                     0.00000000     0.00000000     0.60000000

 ==============================================================================
                                internuclear distances
 ------------------------------------------------------------------------------
       center one      |      center two      | atomic units |  angstroms
 ------------------------------------------------------------------------------
    2 O                |   1 O                |     2.26767  |     1.20000
 ------------------------------------------------------------------------------
                         number of included internuclear distances:          1
 ==============================================================================





 Summary of "ao basis" -> "" (spherical)
 ------------------------------------------------------------------------------
       Tag                 Description            Shells   Functions and Types
 ---------------- ------------------------------  ------  ---------------------
 *                     DZVP (DFT Orbital)             on all atoms 



  Deleted DRIVER restart files 



                           NWChem Geometry Optimization
                           ----------------------------


 maximum gradient threshold         (gmax) =   0.000450
 rms gradient threshold             (grms) =   0.000300
 maximum cartesian step threshold   (xmax) =   0.001800
 rms cartesian step threshold       (xrms) =   0.001200
 fixed trust radius                (trust) =   0.300000
 maximum step size to saddle      (sadstp) =   0.100000
 energy precision                  (eprec) =   1.0D-07
 maximum number of steps          (nptopt) =  100
 initial hessian option           (inhess) =    0
 line search option               (linopt) =    1
 hessian update option            (modupd) =    1
 saddle point option              (modsad) =    0
 initial eigen-mode to follow     (moddir) =    0
 initial variable to follow       (vardir) =    0
 follow first negative mode     (firstneg) =    T
 apply conjugacy                    (opcg) =    F
 source of zmatrix                         =           


          -------------------
          Energy Minimization
          -------------------


 Using diagonal initial Hessian 

          --------
          Step   0
          --------


                         Geometry "geometry" -> "geometry"
                         ---------------------------------

 Output coordinates in angstroms (scale by  1.889725989 to convert to a.u.)

  No.       Tag          Charge          X              Y              Z
 ---- ---------------- ---------- -------------- -------------- --------------
    1 O                    8.0000     0.00000000     0.00000000    -0.60000000
    2 O                    8.0000     0.00000000     0.00000000     0.60000000

      Atomic Mass 
      ----------- 

      O                 15.994910


 Effective nuclear repulsion energy (a.u.)      28.2227866133

            Nuclear Dipole moment (a.u.) 
            ----------------------------
        X                 Y               Z
 ---------------- ---------------- ----------------
     0.0000000000     0.0000000000     0.0000000000


                                 NWChem DFT Module
                                 -----------------


                      Basis "ao basis" -> "ao basis" (spherical)
                      -----
  O (Oxygen)
  ----------
            Exponent  Coefficients 
       -------------- ---------------------------------------------------------
  1 S  5.22290220E+03 -0.001936
  1 S  7.82539940E+02 -0.014851
  1 S  1.77267430E+02 -0.073319
  1 S  4.95166880E+01 -0.245116
  1 S  1.56664400E+01 -0.480285
  1 S  5.17935990E+00 -0.335943

  2 S  1.06014410E+01  0.078806
  2 S  9.42317000E-01 -0.567695

  3 S  2.77474600E-01  1.000000

  4 P  3.34241260E+01  0.017560
  4 P  7.62217140E+00  0.107630
  4 P  2.23820930E+00  0.323526
  4 P  6.86730000E-01  0.483223

  5 P  1.93813500E-01  1.000000

  6 D  8.00000000E-01  1.000000



 Summary of "ao basis" -> "ao basis" (spherical)
 ------------------------------------------------------------------------------
       Tag                 Description            Shells   Functions and Types
 ---------------- ------------------------------  ------  ---------------------
 O                     DZVP (DFT Orbital)            6       14   3s2p1d




 Summary of "ao basis" -> "ao basis" (spherical)
 ------------------------------------------------------------------------------
       Tag                 Description            Shells   Functions and Types
 ---------------- ------------------------------  ------  ---------------------
 O                     DZVP (DFT Orbital)            6       14   3s2p1d


  Caching 1-el integrals 

            General Information
            -------------------
          SCF calculation type: DFT
          Wavefunction type:  spin polarized.
          No. of atoms     :     2
          No. of electrons :    16
           Alpha electrons :     9
            Beta electrons :     7
          Charge           :     0
          Spin multiplicity:     3
          Use of symmetry is: off; symmetry adaption is: off
          Maximum number of iterations: 100
          AO basis - number of functions:    28
                     number of shells:    12
          Convergence on energy requested:  1.00D-06
          Convergence on density requested:  1.00D-05
          Convergence on gradient requested:  5.00D-04

              XC Information
              --------------
                         B3LYP Method XC Potential
                     Hartree-Fock (Exact) Exchange  0.200          
                        Slater Exchange Functional  0.800 local    
                    Becke 1988 Exchange Functional  0.720 non-local
              Lee-Yang-Parr Correlation Functional  0.810          
                  VWN I RPA Correlation Functional  0.190 local    

             Grid Information
             ----------------
          Grid used for XC integration:  xfine     
          Radial quadrature: Mura-Knowles        
          Angular quadrature: Lebedev. 
          Tag              B.-S. Rad. Rad. Pts. Rad. Cut. Ang. Pts.
          ---              ---------- --------- --------- ---------
          O                   0.60      100           6.0      1454
          Grid pruning is: on 
          Number of quadrature shells:   200
          Spatial weights used:  Erf1

          Convergence Information
          -----------------------
          Convergence aids based upon iterative change in 
          total energy or number of iterations. 
          Levelshifting, if invoked, occurs when the 
          HOMO/LUMO gap drops below (HL_TOL):  1.00D-02
          DIIS, if invoked, will attempt to extrapolate 
          using up to (NFOCK): 10 stored Fock matrices.

                    Damping( 0%)  Levelshifting(0.5)       DIIS
                  --------------- ------------------- ---------------
          dE  on:    start            ASAP                start   
          dE off:    2 iters        100 iters           100 iters 


      Screening Tolerance Information
      -------------------------------
          Density screening/tol_rho:  1.00D-10
          AO Gaussian exp screening on grid/accAOfunc:  14
          CD Gaussian exp screening on grid/accCDfunc:  20
          XC Gaussian exp screening on grid/accXCfunc:  20
          Schwarz screening/accCoul:  1.00D-10

 Performing spin-orbit DFT (SO-DFT) calculations
 -----------------------------------------------

          Performing ZORA calculations
          ----------------------------


      Superposition of Atomic Density Guess
      -------------------------------------

 Sum of atomic energies:        -149.52590251

 Read atomic ZORA corrections from ./o2_zora_so.zora_so

 dft_zora_read_so: failed to open ./o2_zora_so.zora_so
 Forcing recalculation of ZORA corrections
       Generating atomic ZORA corrections
       ----------------------------------


 Grid_pts file          = ./o2_zora_so.gridpts.0
 Record size in doubles =  12289        No. of grid_pts per rec  =   3070
 Max. records in memory =     28        Max. recs in file   =    862114


 Wrote atomic ZORA corrections to ./o2_zora_so.zora_so


      Superposition of Atomic Density Guess
      -------------------------------------

 Sum of atomic energies:        -149.52590251

      Non-variational initial energy
      ------------------------------

 Total energy =    -149.627439
 1-e energy   =    -262.351113
 2-e energy   =      84.500888
 HOMO         =      -0.200062
 LUMO         =      -0.200062

   Time prior to 1st pass:      0.6

 #quartets = 3.080D+03 #integrals = 2.185D+04 #direct =  0.0% #cached =100.0%


 Integral file          = ./o2_zora_so.aoints.0
 Record size in doubles =  65536        No. of integs per rec  =  43688
 Max. records in memory =      2        Max. records in file   = 161657
 No. of bits per label  =      8        No. of bits per value  =     64


File balance: exchanges=     0  moved=     0  time=   0.0


           Memory utilization after 1st SCF pass: 
           Heap Space remaining (MW):       85.77            85770226
          Stack Space remaining (MW):       86.24            86239964

   convergence    iter        energy       DeltaE   RMS-Dens  Diis-err    time
 ---------------- ----- ----------------- --------- --------- ---------  ------
 d= 0,ls=0.0,diis     1   -150.4634219715 -1.79D+02  1.58D-02  1.95D-01     0.7
                                                     6.16D-03  1.95D-01
 d= 0,ls=0.0,diis     2   -150.4860181971 -2.26D-02  5.84D-03  9.21D-02     0.9
                                                     4.44D-03  9.21D-02
 d= 0,ls=0.0,diis     3   -150.5067289292 -2.07D-02  1.00D-03  7.64D-04     1.0
                                                     1.90D-04  7.64D-04
 d= 0,ls=0.0,diis     4   -150.5069524101 -2.23D-04  6.01D-05  3.59D-05     1.1
                                                     1.44D-04  3.59D-05
 d= 0,ls=0.0,diis     5   -150.5069619729 -9.56D-06  3.74D-05  9.15D-07     1.3
                                                     1.79D-05  9.15D-07
 d= 0,ls=0.0,diis     6   -150.5069623135 -3.41D-07  8.07D-07  1.14D-09     1.4
                                                     6.76D-07  1.14D-09
  zoraso: enough mem for repl


      Total SO-DFT energy =     -150.506962313779
      One electron energy =     -262.318779122631
           Coulomb energy =      100.592134911461
    Exchange-Corr. energy =      -17.003104715926
 Nuclear repulsion energy =       28.222786613317

       Scaling correction =        0.059668197583

 Numeric. integr. density =       16.000000009863

     Total iterative time =      0.9s



                       DFT Final Molecular Orbital Analysis
                       ------------------------------------

 Vector    1  Occ=1.000000D+00  E=-1.932111D+01
              MO Center= -7.3D-12, -7.3D-12, -3.4D-05, r^2= 3.8D-01
  Bfn.         Coefficient        Function           Bfn.         Coefficient        Function  
  ----     -------------------  ------------         ----     -------------------  ------------
     1     0.706044  -0.000000  1 O  s                 15     0.706003  -0.000000  2 O  s          

 Vector    2  Occ=1.000000D+00  E=-1.932088D+01
              MO Center= -7.5D-12, -7.5D-12,  3.4D-05, r^2= 3.8D-01
  Bfn.         Coefficient        Function           Bfn.         Coefficient        Function  
  ----     -------------------  ------------         ----     -------------------  ------------
    15     0.706054  -0.000000  2 O  s                  1    -0.706014  -0.000000  1 O  s          

 Vector    3  Occ=1.000000D+00  E=-1.928945D+01
              MO Center= -1.1D-21, -1.1D-21, -3.9D-19, r^2= 2.1D-14
  Bfn.         Coefficient        Function           Bfn.         Coefficient        Function  
  ----     -------------------  ------------         ----     -------------------  ------------
    29     0.498222   0.500595  1 O  s                 43     0.498205   0.500578  2 O  s          

 Vector    4  Occ=1.000000D+00  E=-1.928908D+01
              MO Center=  5.4D-22,  5.4D-22,  3.9D-19, r^2= 2.2D-14
  Bfn.         Coefficient        Function           Bfn.         Coefficient        Function  
  ----     -------------------  ------------         ----     -------------------  ------------
    43     0.498255   0.500601  2 O  s                 29    -0.498237  -0.500583  1 O  s          

 Vector    5  Occ=1.000000D+00  E=-1.325391D+00
              MO Center=  8.8D-10,  8.8D-10, -2.1D-09, r^2= 4.6D-01
  Bfn.         Coefficient        Function           Bfn.         Coefficient        Function  
  ----     -------------------  ------------         ----     -------------------  ------------
     2     0.370901  -0.000000  1 O  s                 16     0.370901  -0.000000  2 O  s          
    17    -0.228111   0.000000  2 O  s                  3    -0.228111  -0.000000  1 O  s          
     6    -0.197518   0.000000  1 O  pz                20     0.197518  -0.000000  2 O  pz         
     1    -0.167218  -0.000000  1 O  s                 15    -0.167218   0.000000  2 O  s          

 Vector    6  Occ=1.000000D+00  E=-1.268235D+00
              MO Center=  3.9D-17,  3.9D-17, -4.1D-16, r^2= 3.3D-08
  Bfn.         Coefficient        Function           Bfn.         Coefficient        Function  
  ----     -------------------  ------------         ----     -------------------  ------------
    30    -0.245406  -0.247647  1 O  s                 44    -0.245406  -0.247647  2 O  s          
    45     0.164107   0.165606  2 O  s                 31     0.164107   0.165606  1 O  s          
    34     0.148782   0.150140  1 O  pz                48    -0.148782  -0.150140  2 O  pz         
    29     0.114828   0.115877  1 O  s                 43     0.114828   0.115877  2 O  s          
    40     0.022161   0.022363  1 O  d  0              54     0.022161   0.022363  2 O  d  0       

 Vector    7  Occ=1.000000D+00  E=-8.424656D-01
              MO Center=  7.9D-10,  7.9D-10, -1.2D-08, r^2= 1.0D+00
  Bfn.         Coefficient        Function           Bfn.         Coefficient        Function  
  ----     -------------------  ------------         ----     -------------------  ------------
     2    -0.417081  -0.000000  1 O  s                 16     0.417081  -0.000000  2 O  s          
     3     0.409183  -0.000000  1 O  s                 17    -0.409183   0.000000  2 O  s          
     1     0.178945  -0.000000  1 O  s                 15    -0.178945   0.000000  2 O  s          
     6    -0.147983   0.000000  1 O  pz                20    -0.147983   0.000000  2 O  pz         
     9    -0.031127  -0.000000  1 O  pz                23    -0.031127   0.000000  2 O  pz         

 Vector    8  Occ=1.000000D+00  E=-7.541506D-01
              MO Center= -6.7D-16, -6.7D-16, -1.4D-14, r^2= 3.1D-07
  Bfn.         Coefficient        Function           Bfn.         Coefficient        Function  
  ----     -------------------  ------------         ----     -------------------  ------------
    31     0.290598   0.290869  1 O  s                 45    -0.290598  -0.290869  2 O  s          
    30    -0.281380  -0.281642  1 O  s                 44     0.281380   0.281642  2 O  s          
    29     0.123373   0.123488  1 O  s                 43    -0.123373  -0.123488  2 O  s          
    34    -0.112250  -0.112355  1 O  pz                48    -0.112250  -0.112355  2 O  pz         
    37    -0.033570  -0.033601  1 O  pz                51    -0.033570  -0.033601  2 O  pz         

 Vector    9  Occ=1.000000D+00  E=-5.750023D-01
              MO Center=  1.8D-09,  1.8D-09, -7.2D-09, r^2= 4.1D-01
  Bfn.         Coefficient        Function           Bfn.         Coefficient        Function  
  ----     -------------------  ------------         ----     -------------------  ------------
     4     0.271363   0.271151  1 O  px                 5     0.271151  -0.271363  1 O  py         
    18     0.271363   0.271151  2 O  px                19     0.271151  -0.271363  2 O  py         
     7     0.083353   0.083287  1 O  px                 8     0.083287  -0.083353  1 O  py         
    21     0.083353   0.083287  2 O  px                22     0.083287  -0.083353  2 O  py         

 Vector   10  Occ=1.000000D+00  E=-5.741566D-01
              MO Center=  2.0D-09,  2.0D-09, -7.2D-09, r^2= 4.1D-01
  Bfn.         Coefficient        Function           Bfn.         Coefficient        Function  
  ----     -------------------  ------------         ----     -------------------  ------------
     5    -0.270927  -0.271139  1 O  py                 4    -0.271139   0.270927  1 O  px         
    19    -0.270927  -0.271139  2 O  py                18    -0.271139   0.270927  2 O  px         
     8    -0.083529  -0.083594  1 O  py                 7    -0.083594   0.083529  1 O  px         
    22    -0.083529  -0.083594  2 O  py                21    -0.083594   0.083529  2 O  px         

 Vector   11  Occ=1.000000D+00  E=-5.571486D-01
              MO Center= -4.7D-09, -4.7D-09,  1.1D-08, r^2= 1.1D+00
  Bfn.         Coefficient        Function           Bfn.         Coefficient        Function  
  ----     -------------------  ------------         ----     -------------------  ------------
     6    -0.530094   0.000000  1 O  pz                20     0.530094  -0.000000  2 O  pz         
    17     0.263611  -0.000000  2 O  s                  3     0.263611  -0.000000  1 O  s          
     9    -0.148581   0.000000  1 O  pz                23     0.148581  -0.000000  2 O  pz         
    16    -0.124947   0.000000  2 O  s                  2    -0.124947   0.000000  1 O  s          
    15     0.063068  -0.000000  2 O  s                  1     0.063068  -0.000000  1 O  s          

 Vector   12  Occ=1.000000D+00  E=-5.164052D-01
              MO Center=  4.8D-15,  4.8D-15,  3.6D-13, r^2= 4.0D-06
  Bfn.         Coefficient        Function           Bfn.         Coefficient        Function  
  ----     -------------------  ------------         ----     -------------------  ------------
    34    -0.367448  -0.367432  1 O  pz                48     0.367448   0.367432  2 O  pz         
    45     0.199621   0.199612  2 O  s                 31     0.199621   0.199612  1 O  s          
    51     0.111560   0.111555  2 O  pz                37    -0.111560  -0.111555  1 O  pz         
    44    -0.088183  -0.088179  2 O  s                 30    -0.088183  -0.088179  1 O  s          
    43     0.047173   0.047171  2 O  s                 29     0.047173   0.047171  1 O  s          

 Vector   13  Occ=1.000000D+00  E=-4.730901D-01
              MO Center= -8.9D-15, -8.9D-15,  4.0D-14, r^2= 7.6D-07
  Bfn.         Coefficient        Function           Bfn.         Coefficient        Function  
  ----     -------------------  ------------         ----     -------------------  ------------
    32     0.359526   0.000000  1 O  px                33     0.000000   0.359526  1 O  py         
    46     0.359526   0.000000  2 O  px                47     0.000000   0.359526  2 O  py         
    35     0.141660   0.000000  1 O  px                36     0.000000   0.141660  1 O  py         
    49     0.141660   0.000000  2 O  px                50     0.000000   0.141660  2 O  py         
    55     0.027891   0.000000  2 O  d  1              53    -0.000000  -0.027891  2 O  d -1       

 Vector   14  Occ=1.000000D+00  E=-4.723484D-01
              MO Center=  3.0D-17,  3.0D-17, -4.7D-20, r^2= 8.5D-12
  Bfn.         Coefficient        Function           Bfn.         Coefficient        Function  
  ----     -------------------  ------------         ----     -------------------  ------------
    33     0.359059  -0.009456  1 O  py                32     0.009456   0.359059  1 O  px         
    47     0.359059  -0.009456  2 O  py                46     0.009456   0.359059  2 O  px         
    36     0.141958  -0.003738  1 O  py                35     0.003738   0.141958  1 O  px         
    50     0.141958  -0.003738  2 O  py                49     0.003738   0.141958  2 O  px         
    53    -0.027900   0.000735  2 O  d -1              55     0.000735   0.027900  2 O  d  1       

 Vector   15  Occ=1.000000D+00  E=-3.143025D-01
              MO Center= -3.8D-10, -3.8D-10,  7.1D-09, r^2= 4.8D-01
  Bfn.         Coefficient        Function           Bfn.         Coefficient        Function  
  ----     -------------------  ------------         ----     -------------------  ------------
    18    -0.312245  -0.311977  2 O  px                19    -0.311977   0.312245  2 O  py         
     4     0.312245   0.311977  1 O  px                 5     0.311977  -0.312245  1 O  py         
    21    -0.157090  -0.156955  2 O  px                22    -0.156955   0.157090  2 O  py         
     7     0.157090   0.156955  1 O  px                 8     0.156955  -0.157090  1 O  py         

 Vector   16  Occ=1.000000D+00  E=-3.132351D-01
              MO Center= -3.8D-10, -3.8D-10,  7.1D-09, r^2= 4.8D-01
  Bfn.         Coefficient        Function           Bfn.         Coefficient        Function  
  ----     -------------------  ------------         ----     -------------------  ------------
    19     0.311718   0.311987  2 O  py                18     0.311987  -0.311718  2 O  px         
     5    -0.311718  -0.311987  1 O  py                 4    -0.311987   0.311718  1 O  px         
    22     0.157524   0.157660  2 O  py                21     0.157660  -0.157524  2 O  px         
     8    -0.157524  -0.157660  1 O  py                 7    -0.157660   0.157524  1 O  px         

 Vector   17  Occ=0.000000D+00  E=-1.209929D-01
              MO Center=  1.2D-16,  1.2D-16, -3.4D-14, r^2= 7.4D-06
  Bfn.         Coefficient        Function           Bfn.         Coefficient        Function  
  ----     -------------------  ------------         ----     -------------------  ------------
    46     0.411866   0.000000  2 O  px                47     0.000000   0.411866  2 O  py         
    32    -0.411866  -0.000000  1 O  px                33    -0.000000  -0.411866  1 O  py         
    49     0.284893   0.000000  2 O  px                50     0.000000   0.284893  2 O  py         
    35    -0.284893  -0.000000  1 O  px                36    -0.000000  -0.284893  1 O  py         

 Vector   18  Occ=0.000000D+00  E=-1.200837D-01
              MO Center= -2.9D-19, -2.9D-19,  1.2D-20, r^2= 2.0D-13
  Bfn.         Coefficient        Function           Bfn.         Coefficient        Function  
  ----     -------------------  ------------         ----     -------------------  ------------
    47    -0.411168   0.014526  2 O  py                46    -0.014526  -0.411168  2 O  px         
    33     0.411168  -0.014526  1 O  py                32     0.014526   0.411168  1 O  px         
    50    -0.285598   0.010090  2 O  py                49    -0.010090  -0.285598  2 O  px         
    36     0.285598  -0.010090  1 O  py                35     0.010090   0.285598  1 O  px         

 Vector   19  Occ=0.000000D+00  E= 1.726467D-01
              MO Center= -4.1D-10, -4.1D-10,  3.8D-09, r^2= 2.1D+00
  Bfn.         Coefficient        Function           Bfn.         Coefficient        Function  
  ----     -------------------  ------------         ----     -------------------  ------------
    17    -1.133289   0.000000  2 O  s                  3     1.133289  -0.000000  1 O  s          
    23     0.988696  -0.000000  2 O  pz                 9     0.988696  -0.000000  1 O  pz         
    20     0.487832  -0.000000  2 O  pz                 6     0.487832   0.000000  1 O  pz         
     2    -0.229553  -0.000000  1 O  s                 16     0.229553  -0.000000  2 O  s          
     1     0.102532  -0.000000  1 O  s                 15    -0.102532   0.000000  2 O  s          

 Vector   20  Occ=0.000000D+00  E= 2.078311D-01
              MO Center= -1.6D-15, -1.5D-15, -3.7D-15, r^2= 3.0D-06
  Bfn.         Coefficient        Function           Bfn.         Coefficient        Function  
  ----     -------------------  ------------         ----     -------------------  ------------
    45     0.897210   0.890884  2 O  s                 31    -0.897210  -0.890884  1 O  s          
    51    -0.768677  -0.763257  2 O  pz                37    -0.768677  -0.763257  1 O  pz         
    48    -0.311431  -0.309235  2 O  pz                34    -0.311431  -0.309235  1 O  pz         
    30     0.156217   0.155115  1 O  s                 44    -0.156217  -0.155115  2 O  s          
    29    -0.076689  -0.076148  1 O  s                 43     0.076689   0.076148  2 O  s          

 Vector   21  Occ=0.000000D+00  E= 4.519707D-01
              MO Center= -2.0D-10, -1.7D-10, -3.5D-08, r^2= 2.6D+00
  Bfn.         Coefficient        Function           Bfn.         Coefficient        Function  
  ----     -------------------  ------------         ----     -------------------  ------------
     9     1.180065  -0.000000  1 O  pz                23     1.180065  -0.000000  2 O  pz         
    17    -1.134507   0.000000  2 O  s                  3     1.134507  -0.000000  1 O  s          
     6    -0.644477   0.000000  1 O  pz                20    -0.644477   0.000000  2 O  pz         
    26    -0.141726   0.000000  2 O  d  0              12     0.141726  -0.000000  1 O  d  0       
    16    -0.114758   0.000000  2 O  s                  2     0.114758  -0.000000  1 O  s          

 Vector   22  Occ=0.000000D+00  E= 4.748787D-01
              MO Center= -2.3D-12, -2.3D-12, -8.1D-11, r^2= 6.9D-03
  Bfn.         Coefficient        Function           Bfn.         Coefficient        Function  
  ----     -------------------  ------------         ----     -------------------  ------------
    37     0.794806   0.776802  1 O  pz                51     0.794806   0.776802  2 O  pz         
    45    -0.760936  -0.743699  2 O  s                 31     0.760936   0.743699  1 O  s          
    34    -0.479942  -0.469070  1 O  pz                48    -0.479942  -0.469070  2 O  pz         
    54    -0.104965  -0.102588  2 O  d  0              40     0.104965   0.102588  1 O  d  0       
    44    -0.097637  -0.095426  2 O  s                 30     0.097637   0.095426  1 O  s          

 Vector   23  Occ=0.000000D+00  E= 4.824142D-01
              MO Center= -3.5D-10, -3.4D-10, -1.3D-08, r^2= 1.0D+00
  Bfn.         Coefficient        Function           Bfn.         Coefficient        Function  
  ----     -------------------  ------------         ----     -------------------  ------------
     8    -0.311060   0.319419  1 O  py                 7    -0.319419  -0.311060  1 O  px         
    22    -0.311060   0.319419  2 O  py                21    -0.319419  -0.311060  2 O  px         
     5     0.276848  -0.284288  1 O  py                 4     0.284288   0.276848  1 O  px         
    19     0.276848  -0.284288  2 O  py                18     0.284287   0.276848  2 O  px         
    37    -0.063765  -0.062097  1 O  pz                51    -0.063765  -0.062097  2 O  pz         

 Vector   24  Occ=0.000000D+00  E= 4.830498D-01
              MO Center= -3.5D-10, -3.4D-10, -1.3D-08, r^2= 1.1D+00
  Bfn.         Coefficient        Function           Bfn.         Coefficient        Function  
  ----     -------------------  ------------         ----     -------------------  ------------
     7    -0.320615   0.311816  1 O  px                 8    -0.311816  -0.320615  1 O  py         
    21    -0.320615   0.311816  2 O  px                22    -0.311816  -0.320615  2 O  py         
     4     0.285583  -0.277745  1 O  px                 5     0.277745   0.285583  1 O  py         
    18     0.285583  -0.277745  2 O  px                19     0.277745   0.285583  2 O  py         
    13    -0.024432   0.023761  1 O  d  1              27     0.024432  -0.023761  2 O  d  1       

 Vector   25  Occ=0.000000D+00  E= 5.242783D-01
              MO Center= -2.0D-14, -1.5D-14, -6.5D-12, r^2= 1.7D-04
  Bfn.         Coefficient        Function           Bfn.         Coefficient        Function  
  ----     -------------------  ------------         ----     -------------------  ------------
    36     0.000000   0.440303  1 O  py                35     0.440303   0.000000  1 O  px         
    50     0.000000   0.440303  2 O  py                49     0.440303   0.000000  2 O  px         
    33    -0.000000  -0.416530  1 O  py                32    -0.416530  -0.000000  1 O  px         
    47    -0.000000  -0.416530  2 O  py                46    -0.416530  -0.000000  2 O  px         
    53     0.000000   0.039941  2 O  d -1              39    -0.000000  -0.039941  1 O  d -1       

 Vector   26  Occ=0.000000D+00  E= 5.250196D-01
              MO Center= -2.3D-18, -2.2D-18, -1.4D-19, r^2= 7.9D-12
  Bfn.         Coefficient        Function           Bfn.         Coefficient        Function  
  ----     -------------------  ------------         ----     -------------------  ------------
    35    -0.108935   0.426517  1 O  px                36     0.426517   0.108935  1 O  py         
    49    -0.108935   0.426517  2 O  px                50     0.426517   0.108935  2 O  py         
    32     0.103141  -0.403832  1 O  px                33    -0.403832  -0.103141  1 O  py         
    46     0.103141  -0.403832  2 O  px                47    -0.403832  -0.103141  2 O  py         
    55     0.009914  -0.038815  2 O  d  1              41    -0.009914   0.038815  1 O  d  1       

 Vector   27  Occ=0.000000D+00  E= 5.442182D-01
              MO Center= -1.4D-10, -1.3D-10,  3.0D-08, r^2= 2.8D+00
  Bfn.         Coefficient        Function           Bfn.         Coefficient        Function  
  ----     -------------------  ------------         ----     -------------------  ------------
    23     0.935797   0.000000  2 O  pz                 9    -0.935797  -0.000000  1 O  pz         
    20    -0.446678  -0.000000  2 O  pz                 6     0.446678   0.000000  1 O  pz         
     3     0.313516   0.000000  1 O  s                 17     0.313516   0.000000  2 O  s          
    12     0.066010   0.000000  1 O  d  0              26     0.066010   0.000000  2 O  d  0       

 Vector   28  Occ=0.000000D+00  E= 5.520484D-01
              MO Center=  5.0D-14,  5.0D-14,  5.1D-13, r^2= 1.5D-04
  Bfn.         Coefficient        Function           Bfn.         Coefficient        Function  
  ----     -------------------  ------------         ----     -------------------  ------------
    51    -0.661567  -0.660376  2 O  pz                37     0.661567   0.660376  1 O  pz         
    48     0.320157   0.319581  2 O  pz                34    -0.320157  -0.319581  1 O  pz         
    31    -0.205686  -0.205316  1 O  s                 45    -0.205686  -0.205316  2 O  s          
    40    -0.046475  -0.046392  1 O  d  0              54    -0.046475  -0.046392  2 O  d  0       

 Vector   29  Occ=0.000000D+00  E= 5.864249D-01
              MO Center=  2.2D-10,  2.2D-10,  1.3D-08, r^2= 1.3D+00
  Bfn.         Coefficient        Function           Bfn.         Coefficient        Function  
  ----     -------------------  ------------         ----     -------------------  ------------
    22     0.610588  -0.610840  2 O  py                 8    -0.610588   0.610840  1 O  py         
    21     0.610840   0.610588  2 O  px                 7    -0.610840  -0.610588  1 O  px         
    19    -0.267880   0.267991  2 O  py                18    -0.267991  -0.267880  2 O  px         
     5     0.267880  -0.267991  1 O  py                 4     0.267991   0.267880  1 O  px         

 Vector   30  Occ=0.000000D+00  E= 5.870349D-01
              MO Center=  2.2D-10,  2.2D-10,  1.3D-08, r^2= 1.3D+00
  Bfn.         Coefficient        Function           Bfn.         Coefficient        Function  
  ----     -------------------  ------------         ----     -------------------  ------------
    21     0.610742  -0.610484  2 O  px                 7    -0.610742   0.610484  1 O  px         
    22     0.610484   0.610742  2 O  py                 8    -0.610484  -0.610742  1 O  py         
    18    -0.268298   0.268185  2 O  px                19    -0.268185  -0.268298  2 O  py         
     4     0.268298  -0.268185  1 O  px                 5     0.268185   0.268298  1 O  py         

 Vector   31  Occ=0.000000D+00  E= 6.326217D-01
              MO Center= -2.9D-15, -2.9D-15,  6.7D-13, r^2= 5.3D-05
  Bfn.         Coefficient        Function           Bfn.         Coefficient        Function  
  ----     -------------------  ------------         ----     -------------------  ------------
    50    -0.000000  -0.846553  2 O  py                49    -0.846553  -0.000000  2 O  px         
    36     0.000000   0.846553  1 O  py                35     0.846553   0.000000  1 O  px         
    47     0.000000   0.410128  2 O  py                46     0.410128   0.000000  2 O  px         
    33    -0.000000  -0.410128  1 O  py                32    -0.410128  -0.000000  1 O  px         

 Vector   32  Occ=0.000000D+00  E= 6.333303D-01
              MO Center=  1.6D-19,  1.6D-19,  4.1D-20, r^2= 6.5D-13
  Bfn.         Coefficient        Function           Bfn.         Coefficient        Function  
  ----     -------------------  ------------         ----     -------------------  ------------
    49    -0.134523   0.835523  2 O  px                50     0.835523   0.134523  2 O  py         
    35     0.134523  -0.835523  1 O  px                36    -0.835523  -0.134523  1 O  py         
    46     0.065262  -0.405342  2 O  px                47    -0.405342  -0.065262  2 O  py         
    32    -0.065262   0.405342  1 O  px                33     0.405342   0.065262  1 O  py         

 Vector   33  Occ=0.000000D+00  E= 8.844167D-01
              MO Center=  8.5D-10,  8.5D-10, -2.9D-10, r^2= 1.4D+00
  Bfn.         Coefficient        Function           Bfn.         Coefficient        Function  
  ----     -------------------  ------------         ----     -------------------  ------------
     2     1.026400   0.000000  1 O  s                 16     1.026400  -0.000000  2 O  s          
     3     0.911455  -0.000000  1 O  s                 17     0.911455   0.000000  2 O  s          
    12    -0.149034   0.000000  1 O  d  0              26    -0.149034   0.000000  2 O  d  0       
    15    -0.098764   0.000000  2 O  s                  1    -0.098764  -0.000000  1 O  s          
    20    -0.093896  -0.000000  2 O  pz                 6     0.093896  -0.000000  1 O  pz         

 Vector   34  Occ=0.000000D+00  E= 9.155133D-01
              MO Center=  2.1D-17,  2.1D-17,  6.9D-16, r^2= 8.5D-08
  Bfn.         Coefficient        Function           Bfn.         Coefficient        Function  
  ----     -------------------  ------------         ----     -------------------  ------------
    30     0.728237   0.723715  1 O  s                 44     0.728237   0.723715  2 O  s          
    31     0.646404   0.642390  1 O  s                 45     0.646404   0.642390  2 O  s          
    40    -0.108611  -0.107936  1 O  d  0              54    -0.108611  -0.107936  2 O  d  0       
    48    -0.075597  -0.075128  2 O  pz                34     0.075597   0.075128  1 O  pz         
    43    -0.071278  -0.070835  2 O  s                 29    -0.071278  -0.070835  1 O  s          

 Vector   35  Occ=0.000000D+00  E= 1.484830D+00
              MO Center=  3.6D-11,  3.6D-11, -8.5D-10, r^2= 4.7D-01
  Bfn.         Coefficient        Function           Bfn.         Coefficient        Function  
  ----     -------------------  ------------         ----     -------------------  ------------
    11     0.301305  -0.304086  1 O  d -1              13    -0.304086  -0.301304  1 O  d  1       
    25    -0.301305   0.304086  2 O  d -1              27     0.304086   0.301304  2 O  d  1       
    19    -0.086199   0.086995  2 O  py                18    -0.086995  -0.086199  2 O  px         
     5    -0.086199   0.086995  1 O  py                 4    -0.086995  -0.086199  1 O  px         

 Vector   36  Occ=0.000000D+00  E= 1.484948D+00
              MO Center=  3.6D-11,  3.6D-11, -8.5D-10, r^2= 4.7D-01
  Bfn.         Coefficient        Function           Bfn.         Coefficient        Function  
  ----     -------------------  ------------         ----     -------------------  ------------
    13    -0.304084   0.301293  1 O  d  1              11     0.301292   0.304084  1 O  d -1       
    27     0.304084  -0.301293  2 O  d  1              25    -0.301292  -0.304084  2 O  d -1       
    18    -0.087084   0.086285  2 O  px                19    -0.086284  -0.087084  2 O  py         
     4    -0.087084   0.086285  1 O  px                 5    -0.086284  -0.087084  1 O  py         

 Vector   37  Occ=0.000000D+00  E= 1.499118D+00
              MO Center= -4.4D-11, -4.3D-11, -3.3D-09, r^2= 4.7D-01
  Bfn.         Coefficient        Function           Bfn.         Coefficient        Function  
  ----     -------------------  ------------         ----     -------------------  ------------
    14     0.000518   0.470812  1 O  d  2              28     0.000518   0.470812  2 O  d  2       
    10     0.470807  -0.000518  1 O  d -2              24     0.470807  -0.000518  2 O  d -2       

 Vector   38  Occ=0.000000D+00  E= 1.499221D+00
              MO Center= -4.3D-11, -4.3D-11, -3.3D-09, r^2= 4.7D-01
  Bfn.         Coefficient        Function           Bfn.         Coefficient        Function  
  ----     -------------------  ------------         ----     -------------------  ------------
    10     0.470812   0.000518  1 O  d -2              24     0.470812   0.000518  2 O  d -2       
    14     0.000518  -0.470807  1 O  d  2              28     0.000518  -0.470807  2 O  d  2       

 Vector   39  Occ=0.000000D+00  E= 1.518710D+00
              MO Center=  3.5D-17,  3.5D-17,  8.4D-16, r^2= 9.2D-07
  Bfn.         Coefficient        Function           Bfn.         Coefficient        Function  
  ----     -------------------  ------------         ----     -------------------  ------------
    39     0.000000   0.427221  1 O  d -1              41    -0.427221  -0.000000  1 O  d  1       
    53    -0.000000  -0.427221  2 O  d -1              55     0.427221   0.000000  2 O  d  1       
    47    -0.000000  -0.133711  2 O  py                46    -0.133711  -0.000000  2 O  px         
    33    -0.000000  -0.133711  1 O  py                32    -0.133711  -0.000000  1 O  px         

 Vector   40  Occ=0.000000D+00  E= 1.518843D+00
              MO Center= -1.9D-18, -1.9D-18,  1.7D-15, r^2= 9.9D-09
  Bfn.         Coefficient        Function           Bfn.         Coefficient        Function  
  ----     -------------------  ------------         ----     -------------------  ------------
    41    -0.000221   0.427209  1 O  d  1              39    -0.427209  -0.000221  1 O  d -1       
    55     0.000221  -0.427209  2 O  d  1              53     0.427209   0.000221  2 O  d -1       
    46    -0.000069   0.133849  2 O  px                47     0.133849   0.000069  2 O  py         
    32    -0.000069   0.133849  1 O  px                33     0.133849   0.000069  1 O  py         

 Vector   41  Occ=0.000000D+00  E= 1.554172D+00
              MO Center= -7.8D-19, -7.9D-19,  4.5D-16, r^2= 4.8D-09
  Bfn.         Coefficient        Function           Bfn.         Coefficient        Function  
  ----     -------------------  ------------         ----     -------------------  ------------
    38    -0.334281  -0.331538  1 O  d -2              52    -0.334281  -0.331538  2 O  d -2       
    42    -0.331538   0.334281  1 O  d  2              56    -0.331538   0.334281  2 O  d  2       

 Vector   42  Occ=0.000000D+00  E= 1.554276D+00
              MO Center=  1.1D-24,  1.1D-24, -2.7D-23, r^2= 1.0D-21
  Bfn.         Coefficient        Function           Bfn.         Coefficient        Function  
  ----     -------------------  ------------         ----     -------------------  ------------
    42    -0.332411   0.333413  1 O  d  2              56    -0.332411   0.333413  2 O  d  2       
    38     0.333413   0.332411  1 O  d -2              52     0.333413   0.332411  2 O  d -2       

 Vector   43  Occ=0.000000D+00  E= 1.595427D+00
              MO Center=  9.1D-11,  9.2D-11,  3.6D-09, r^2= 1.8D+00
  Bfn.         Coefficient        Function           Bfn.         Coefficient        Function  
  ----     -------------------  ------------         ----     -------------------  ------------
    17    -3.249170  -0.000000  2 O  s                  3     3.249170   0.000000  1 O  s          
    16    -1.383712  -0.000000  2 O  s                  2     1.383712   0.000000  1 O  s          
     9     1.257671   0.000000  1 O  pz                23     1.257671   0.000000  2 O  pz         
    20     0.109058   0.000000  2 O  pz                 6     0.109058   0.000000  1 O  pz         
    26     0.076360  -0.000000  2 O  d  0              12    -0.076360   0.000000  1 O  d  0       

 Vector   44  Occ=0.000000D+00  E= 1.637797D+00
              MO Center=  5.2D-18,  5.2D-18, -1.7D-17, r^2= 3.6D-08
  Bfn.         Coefficient        Function           Bfn.         Coefficient        Function  
  ----     -------------------  ------------         ----     -------------------  ------------
    45     2.292448   2.281349  2 O  s                 31    -2.292448  -2.281349  1 O  s          
    44     0.984159   0.979394  2 O  s                 30    -0.984159  -0.979394  1 O  s          
    37    -0.882493  -0.878220  1 O  pz                51    -0.882493  -0.878220  2 O  pz         
    48    -0.076652  -0.076281  2 O  pz                34    -0.076652  -0.076281  1 O  pz         
    54    -0.053113  -0.052856  2 O  d  0              40     0.053113   0.052856  1 O  d  0       

 Vector   45  Occ=0.000000D+00  E= 1.892024D+00
              MO Center= -2.6D-12, -2.5D-12,  3.3D-09, r^2= 5.1D-01
  Bfn.         Coefficient        Function           Bfn.         Coefficient        Function  
  ----     -------------------  ------------         ----     -------------------  ------------
    28     0.000416   0.535395  2 O  d  2              14    -0.000416  -0.535395  1 O  d  2       
    24     0.535392  -0.000416  2 O  d -2              10    -0.535392   0.000416  1 O  d -2       

 Vector   46  Occ=0.000000D+00  E= 1.892140D+00
              MO Center= -2.6D-12, -2.5D-12,  3.3D-09, r^2= 5.1D-01
  Bfn.         Coefficient        Function           Bfn.         Coefficient        Function  
  ----     -------------------  ------------         ----     -------------------  ------------
    24    -0.535395  -0.000416  2 O  d -2              10     0.535395   0.000416  1 O  d -2       
    28    -0.000416   0.535392  2 O  d  2              14     0.000416  -0.535392  1 O  d  2       

 Vector   47  Occ=0.000000D+00  E= 1.963150D+00
              MO Center=  2.5D-19,  2.5D-19, -1.3D-16, r^2= 1.5D-08
  Bfn.         Coefficient        Function           Bfn.         Coefficient        Function  
  ----     -------------------  ------------         ----     -------------------  ------------
    56     0.378486  -0.378676  2 O  d  2              42    -0.378486   0.378676  1 O  d  2       
    52     0.378675   0.378486  2 O  d -2              38    -0.378675  -0.378486  1 O  d -2       

 Vector   48  Occ=0.000000D+00  E= 1.963267D+00
              MO Center= -9.8D-27, -9.8D-27,  5.2D-25, r^2= 8.5D-22
  Bfn.         Coefficient        Function           Bfn.         Coefficient        Function  
  ----     -------------------  ------------         ----     -------------------  ------------
    52     0.380157   0.376998  2 O  d -2              38    -0.380157  -0.376998  1 O  d -2       
    56    -0.376998   0.380156  2 O  d  2              42     0.376998  -0.380156  1 O  d  2       

 Vector   49  Occ=0.000000D+00  E= 2.350351D+00
              MO Center=  4.4D-11,  4.4D-11, -2.2D-08, r^2= 1.1D+00
  Bfn.         Coefficient        Function           Bfn.         Coefficient        Function  
  ----     -------------------  ------------         ----     -------------------  ------------
    12    -0.734573   0.000000  1 O  d  0              26    -0.734572   0.000000  2 O  d  0       
     2    -0.608755   0.000000  1 O  s                 16    -0.608755   0.000000  2 O  s          
     9    -0.420964   0.000000  1 O  pz                23     0.420964  -0.000000  2 O  pz         
    20    -0.344555   0.000000  2 O  pz                 6     0.344555  -0.000000  1 O  pz         
     3    -0.241751   0.000000  1 O  s                 17    -0.241751  -0.000000  2 O  s          

 Vector   50  Occ=0.000000D+00  E= 2.388789D+00
              MO Center= -6.8D-17, -6.9D-17,  1.7D-17, r^2= 1.1D-07
  Bfn.         Coefficient        Function           Bfn.         Coefficient        Function  
  ----     -------------------  ------------         ----     -------------------  ------------
    40     0.518474   0.519009  1 O  d  0              54     0.518474   0.519009  2 O  d  0       
    30     0.439436   0.439889  1 O  s                 44     0.439436   0.439889  2 O  s          
    37     0.294623   0.294927  1 O  pz                51    -0.294623  -0.294927  2 O  pz         
    48     0.241076   0.241325  2 O  pz                34    -0.241076  -0.241325  1 O  pz         
    31     0.173101   0.173279  1 O  s                 45     0.173101   0.173279  2 O  s          

 Vector   51  Occ=0.000000D+00  E= 2.434477D+00
              MO Center= -2.2D-10, -2.2D-10,  2.3D-08, r^2= 1.6D+00
  Bfn.         Coefficient        Function           Bfn.         Coefficient        Function  
  ----     -------------------  ------------         ----     -------------------  ------------
    17    -2.291975  -0.000000  2 O  s                  3     2.291975   0.000000  1 O  s          
    26    -1.072801  -0.000000  2 O  d  0              12     1.072801   0.000000  1 O  d  0       
    23     0.979291   0.000000  2 O  pz                 9     0.979291   0.000000  1 O  pz         
     6     0.748030   0.000000  1 O  pz                20     0.748030   0.000000  2 O  pz         
    16    -0.247115  -0.000000  2 O  s                  2     0.247115   0.000000  1 O  s          

 Vector   52  Occ=0.000000D+00  E= 2.460045D+00
              MO Center=  1.9D-17,  2.1D-17,  2.8D-15, r^2= 7.8D-08
  Bfn.         Coefficient        Function           Bfn.         Coefficient        Function  
  ----     -------------------  ------------         ----     -------------------  ------------
    45     1.553497   1.663994  2 O  s                 31    -1.553497  -1.663994  1 O  s          
    54     0.731932   0.783992  2 O  d  0              40    -0.731932  -0.783992  1 O  d  0       
    51    -0.662711  -0.709848  2 O  pz                37    -0.662711  -0.709848  1 O  pz         
    34    -0.512400  -0.548846  1 O  pz                48    -0.512400  -0.548846  2 O  pz         
    44     0.169974   0.182064  2 O  s                 30    -0.169974  -0.182064  1 O  s          

 Vector   53  Occ=0.000000D+00  E= 2.485020D+00
              MO Center=  1.2D-10,  1.2D-10,  1.1D-09, r^2= 6.3D-01
  Bfn.         Coefficient        Function           Bfn.         Coefficient        Function  
  ----     -------------------  ------------         ----     -------------------  ------------
    25    -0.503397   0.504084  2 O  d -1              11    -0.503397   0.504084  1 O  d -1       
    27     0.504084   0.503397  2 O  d  1              13     0.504084   0.503397  1 O  d  1       
     8    -0.209956   0.210242  1 O  py                22     0.209956  -0.210242  2 O  py         
     7    -0.210242  -0.209956  1 O  px                21     0.210242   0.209956  2 O  px         
     5    -0.061733   0.061817  1 O  py                19     0.061733  -0.061817  2 O  py         

 Vector   54  Occ=0.000000D+00  E= 2.485123D+00
              MO Center=  1.2D-10,  1.2D-10,  1.1D-09, r^2= 6.3D-01
  Bfn.         Coefficient        Function           Bfn.         Coefficient        Function  
  ----     -------------------  ------------         ----     -------------------  ------------
    27    -0.504083   0.503397  2 O  d  1              13    -0.504083   0.503397  1 O  d  1       
    25     0.503397   0.504083  2 O  d -1              11     0.503397   0.504083  1 O  d -1       
     7     0.210206  -0.209920  1 O  px                21    -0.210206   0.209920  2 O  px         
     8     0.209920   0.210206  1 O  py                22    -0.209920  -0.210206  2 O  py         
     4     0.061858  -0.061774  1 O  px                18    -0.061858   0.061774  2 O  px         

 Vector   55  Occ=0.000000D+00  E= 2.527709D+00
              MO Center=  8.5D-18,  8.3D-18,  1.7D-15, r^2= 7.2D-08
  Bfn.         Coefficient        Function           Bfn.         Coefficient        Function  
  ----     -------------------  ------------         ----     -------------------  ------------
    53     0.000000   0.712323  2 O  d -1              39     0.000000   0.712323  1 O  d -1       
    55    -0.712323  -0.000000  2 O  d  1              41    -0.712323  -0.000000  1 O  d  1       
    36     0.000000   0.292897  1 O  py                50    -0.000000  -0.292897  2 O  py         
    35     0.292897   0.000000  1 O  px                49    -0.292897  -0.000000  2 O  px         
    33     0.000000   0.090618  1 O  py                32     0.090618   0.000000  1 O  px         

 Vector   56  Occ=0.000000D+00  E= 2.527813D+00
              MO Center=  3.7D-19,  3.6D-19,  8.9D-18, r^2= 1.4D-09
  Bfn.         Coefficient        Function           Bfn.         Coefficient        Function  
  ----     -------------------  ------------         ----     -------------------  ------------
    55     0.001490  -0.712320  2 O  d  1              41     0.001490  -0.712320  1 O  d  1       
    53     0.712320   0.001489  2 O  d -1              39     0.712320   0.001489  1 O  d -1       
    35    -0.000613   0.292844  1 O  px                49     0.000613  -0.292844  2 O  px         
    36     0.292844   0.000612  1 O  py                50    -0.292844  -0.000612  2 O  py         
    32    -0.000190   0.090678  1 O  px                33     0.090678   0.000190  1 O  py         


   alpha - beta orbital overlaps 
   ----------------------------- 


   alpha      1      2      3      4      5      6      7      8      9     10
    beta      1      2      3      4      5      6      4      5      6      1
 overlap   1.060  0.311  0.296  0.275  0.275  0.341  0.085  0.085  0.085  0.000


   alpha     11     12     13     14     15     16     17     18     19     20
    beta     19      6     18      4     15     16     17     18     19     20
 overlap   0.016  0.023  0.016  0.000  1.060  0.311  0.296  0.275  0.275  0.341


   alpha     21     22     23     24     25     26     27     28
    beta     18     19     20     15      5     20      4     19
 overlap   0.085  0.085  0.085  0.000  0.016  0.023  0.016  0.000

     --------------------------
     Expectation value of S2:  
     --------------------------
      <S2> =      2.0083 (Exact =     2.0000)


     Multipole analysis of the density
     ---------------------------------

     L   x y z        total         alpha         beta         nuclear
     -   - - -        -----         -----         ----         -------
     0   0 0 0     -0.000000     -8.999996     -7.000004     16.000000

     1   1 0 0     -0.000000      0.000000     -0.000000      0.000000
     1   0 1 0     -0.000000      0.000000     -0.000000      0.000000
     1   0 0 1      0.000000      0.000000      0.000000      0.000000

     2   2 0 0     -7.455452     -4.310438     -3.145014      0.000000
     2   1 1 0     -0.000000     -0.000000     -0.000000      0.000000
     2   1 0 1      0.000000      0.000000      0.000000      0.000000
     2   0 2 0     -7.455452     -4.310438     -3.145014      0.000000
     2   0 1 1      0.000000      0.000000      0.000000      0.000000
     2   0 0 2     -7.824548    -16.110996    -12.282882     20.569330


 Parallel integral file used       4 records with       0 large values


            General Information
            -------------------
          SCF calculation type: DFT
          Wavefunction type:  spin polarized.
          No. of atoms     :     2
          No. of electrons :    16
           Alpha electrons :     9
            Beta electrons :     7
          Charge           :     0
          Spin multiplicity:     3
          Use of symmetry is: off; symmetry adaption is: off
          Maximum number of iterations: 100
          AO basis - number of functions:    28
                     number of shells:    12
          Convergence on energy requested:  1.00D-06
          Convergence on density requested:  1.00D-05
          Convergence on gradient requested:  5.00D-04

              XC Information
              --------------
                         B3LYP Method XC Potential
                     Hartree-Fock (Exact) Exchange  0.200          
                        Slater Exchange Functional  0.800 local    
                    Becke 1988 Exchange Functional  0.720 non-local
              Lee-Yang-Parr Correlation Functional  0.810          
                  VWN I RPA Correlation Functional  0.190 local    

             Grid Information
             ----------------
          Grid used for XC integration:  xfine     
          Radial quadrature: Mura-Knowles        
          Angular quadrature: Lebedev. 
          Tag              B.-S. Rad. Rad. Pts. Rad. Cut. Ang. Pts.
          ---              ---------- --------- --------- ---------
          O                   0.60      100           6.0      1454
          Grid pruning is: on 
          Number of quadrature shells:   200
          Spatial weights used:  Erf1

          Convergence Information
          -----------------------
          Convergence aids based upon iterative change in 
          total energy or number of iterations. 
          Levelshifting, if invoked, occurs when the 
          HOMO/LUMO gap drops below (HL_TOL):  1.00D-02
          DIIS, if invoked, will attempt to extrapolate 
          using up to (NFOCK): 10 stored Fock matrices.

                    Damping( 0%)  Levelshifting(0.5)       DIIS
                  --------------- ------------------- ---------------
          dE  on:    start            ASAP                start   
          dE off:    2 iters        100 iters           100 iters 


      Screening Tolerance Information
      -------------------------------
          Density screening/tol_rho:  1.00D-10
          AO Gaussian exp screening on grid/accAOfunc:  14
          CD Gaussian exp screening on grid/accCDfunc:  20
          XC Gaussian exp screening on grid/accXCfunc:  20
          Schwarz screening/accCoul:  1.00D-10



                            NWChem DFT Gradient Module
                            --------------------------



  charge          =   0.00
  wavefunction    = open shell


 Read molecular orbitals from ./o2_zora_so.movecs


 Read molecular orbitals from ./o2_zora_so.movecs


 Read molecular orbitals from ./o2_zora_so.movecs



                         sodft ENERGY GRADIENTS

    atom               coordinates                        gradient
                 x          y          z           x          y          z
   1 O       0.000000   0.000000  -1.133836    0.000000   0.000000   0.035823
   2 O       0.000000   0.000000   1.133836   -0.000000  -0.000000  -0.035823

                 ----------------------------------------
                 |  Time  |  1-e(secs)   |  2-e(secs)   |
                 ----------------------------------------
                 |  CPU   |       0.00   |       0.02   |
                 ----------------------------------------
                 |  WALL  |       0.00   |       0.02   |
                 ----------------------------------------

@ Step       Energy      Delta E   Gmax     Grms     Xrms     Xmax   Walltime
@ ---- ---------------- -------- -------- -------- -------- -------- --------
@    0    -150.50696231  0.0D+00  0.03582  0.02068  0.00000  0.00000      1.7
                                                                    


                                 NWChem DFT Module
                                 -----------------




 Summary of "ao basis" -> "ao basis" (spherical)
 ------------------------------------------------------------------------------
       Tag                 Description            Shells   Functions and Types
 ---------------- ------------------------------  ------  ---------------------
 O                     DZVP (DFT Orbital)            6       14   3s2p1d


                                  Spin-Orbit DFT
                                  --------------


  Caching 1-el integrals 

            General Information
            -------------------
          SCF calculation type: DFT
          Wavefunction type:  spin polarized.
          No. of atoms     :     2
          No. of electrons :    16
           Alpha electrons :     9
            Beta electrons :     7
          Charge           :     0
          Spin multiplicity:     3
          Use of symmetry is: off; symmetry adaption is: off
          Maximum number of iterations: 100
          AO basis - number of functions:    28
                     number of shells:    12
          Convergence on energy requested:  1.00D-06
          Convergence on density requested:  1.00D-05
          Convergence on gradient requested:  5.00D-04

              XC Information
              --------------
                         B3LYP Method XC Potential
                     Hartree-Fock (Exact) Exchange  0.200          
                        Slater Exchange Functional  0.800 local    
                    Becke 1988 Exchange Functional  0.720 non-local
              Lee-Yang-Parr Correlation Functional  0.810          
                  VWN I RPA Correlation Functional  0.190 local    

             Grid Information
             ----------------
          Grid used for XC integration:  xfine     
          Radial quadrature: Mura-Knowles        
          Angular quadrature: Lebedev. 
          Tag              B.-S. Rad. Rad. Pts. Rad. Cut. Ang. Pts.
          ---              ---------- --------- --------- ---------
          O                   0.60      100           6.0      1454
          Grid pruning is: on 
          Number of quadrature shells:   200
          Spatial weights used:  Erf1

          Convergence Information
          -----------------------
          Convergence aids based upon iterative change in 
          total energy or number of iterations. 
          Levelshifting, if invoked, occurs when the 
          HOMO/LUMO gap drops below (HL_TOL):  1.00D-02
          DIIS, if invoked, will attempt to extrapolate 
          using up to (NFOCK): 10 stored Fock matrices.

                    Damping( 0%)  Levelshifting(0.5)       DIIS
                  --------------- ------------------- ---------------
          dE  on:    start            ASAP                start   
          dE off:    2 iters        100 iters           100 iters 


      Screening Tolerance Information
      -------------------------------
          Density screening/tol_rho:  1.00D-10
          AO Gaussian exp screening on grid/accAOfunc:  14
          CD Gaussian exp screening on grid/accCDfunc:  20
          XC Gaussian exp screening on grid/accXCfunc:  20
          Schwarz screening/accCoul:  1.00D-10

 Performing spin-orbit DFT (SO-DFT) calculations
 -----------------------------------------------

          Performing ZORA calculations
          ----------------------------


      Superposition of Atomic Density Guess
      -------------------------------------

 Sum of atomic energies:        -149.52590251

 Read atomic ZORA corrections from ./o2_zora_so.zora_so

 Forcing recalculation of ZORA corrections
       Generating atomic ZORA corrections
       ----------------------------------


 Grid_pts file          = ./o2_zora_so.gridpts.0
 Record size in doubles =  12289        No. of grid_pts per rec  =   3070
 Max. records in memory =     28        Max. recs in file   =    862114


 Wrote atomic ZORA corrections to ./o2_zora_so.zora_so


 Read molecular orbitals from ./o2_zora_so.movecs

   Time prior to 1st pass:      2.1

 #quartets = 3.080D+03 #integrals = 2.185D+04 #direct =  0.0% #cached =100.0%


 Integral file          = ./o2_zora_so.aoints.0
 Record size in doubles =  65536        No. of integs per rec  =  43688
 Max. records in memory =      2        Max. records in file   = 161657
 No. of bits per label  =      8        No. of bits per value  =     64


File balance: exchanges=     0  moved=     0  time=   0.0


           Memory utilization after 1st SCF pass: 
           Heap Space remaining (MW):       85.77            85770226
          Stack Space remaining (MW):       86.24            86239964

   convergence    iter        energy       DeltaE   RMS-Dens  Diis-err    time
 ---------------- ----- ----------------- --------- --------- ---------  ------
 d= 0,ls=0.0,diis     1   -150.5055737344 -1.78D+02  1.51D-03  3.76D-03     2.2
                                                     1.38D-03  3.76D-03
 d= 0,ls=0.0,diis     2   -150.5069593639 -1.39D-03  5.39D-04  1.73D-04     2.3
                                                     2.65D-04  1.73D-04
 d= 0,ls=0.0,diis     3   -150.5069839166 -2.46D-05  1.67D-04  8.64D-05     2.5
                                                     1.36D-04  8.64D-05
 d= 0,ls=0.0,diis     4   -150.5070037546 -1.98D-05  1.04D-05  1.61D-07     2.6
                                                     5.74D-06  1.61D-07
 d= 0,ls=0.0,diis     5   -150.5070038016 -4.71D-08  2.56D-06  1.22D-08     2.7
                                                     1.87D-06  1.22D-08
  zoraso: enough mem for repl


      Total SO-DFT energy =     -150.507003805095
      One electron energy =     -260.408223893128
           Coulomb energy =       99.636458678449
    Exchange-Corr. energy =      -16.962323343729
 Nuclear repulsion energy =       27.227084753312

       Scaling correction =        0.059676736806

 Numeric. integr. density =       16.000000010995

     Total iterative time =      0.8s



                       DFT Final Molecular Orbital Analysis
                       ------------------------------------

 Vector    1  Occ=1.000000D+00  E=-1.932575D+01
              MO Center= -7.6D-12, -7.6D-12,  3.6D-03, r^2= 4.0D-01
  Bfn.         Coefficient        Function           Bfn.         Coefficient        Function  
  ----     -------------------  ------------         ----     -------------------  ------------
    15     0.708113  -0.000000  2 O  s                  1     0.703970   0.000000  1 O  s          

 Vector    2  Occ=1.000000D+00  E=-1.932557D+01
              MO Center= -7.5D-12, -7.5D-12, -3.6D-03, r^2= 4.0D-01
  Bfn.         Coefficient        Function           Bfn.         Coefficient        Function  
  ----     -------------------  ------------         ----     -------------------  ------------
     1    -0.708106   0.000000  1 O  s                 15     0.703963  -0.000000  2 O  s          

 Vector    3  Occ=1.000000D+00  E=-1.929413D+01
              MO Center= -1.0D-21, -1.0D-21,  4.6D-17, r^2= 2.6D-14
  Bfn.         Coefficient        Function           Bfn.         Coefficient        Function  
  ----     -------------------  ------------         ----     -------------------  ------------
    43     0.505649   0.494809  2 O  s                 29     0.503951   0.493147  1 O  s          

 Vector    4  Occ=1.000000D+00  E=-1.929383D+01
              MO Center=  8.2D-22,  8.0D-22, -4.6D-17, r^2= 2.5D-14
  Bfn.         Coefficient        Function           Bfn.         Coefficient        Function  
  ----     -------------------  ------------         ----     -------------------  ------------
    29    -0.506298  -0.494148  1 O  s                 43     0.504598   0.492488  2 O  s          

 Vector    5  Occ=1.000000D+00  E=-1.291795D+00
              MO Center=  9.3D-10,  9.3D-10,  4.5D-07, r^2= 5.0D-01
  Bfn.         Coefficient        Function           Bfn.         Coefficient        Function  
  ----     -------------------  ------------         ----     -------------------  ------------
    16     0.373207  -0.000000  2 O  s                  2     0.373207  -0.000000  1 O  s          
    17    -0.239671   0.000000  2 O  s                  3    -0.239670   0.000000  1 O  s          
    20     0.185007   0.000000  2 O  pz                 6    -0.185007  -0.000000  1 O  pz         
    15    -0.167214   0.000000  2 O  s                  1    -0.167214   0.000000  1 O  s          

 Vector    6  Occ=1.000000D+00  E=-1.232744D+00
              MO Center=  4.0D-17,  4.6D-17,  3.2D-14, r^2= 3.4D-08
  Bfn.         Coefficient        Function           Bfn.         Coefficient        Function  
  ----     -------------------  ------------         ----     -------------------  ------------
    44    -0.230651  -0.264139  2 O  s                 30    -0.230651  -0.264139  1 O  s          
    45     0.161402   0.184836  2 O  s                 31     0.161402   0.184836  1 O  s          
    48    -0.130826  -0.149820  2 O  pz                34     0.130826   0.149820  1 O  pz         
    43     0.107211   0.122777  2 O  s                 29     0.107211   0.122777  1 O  s          
    54     0.019724   0.022588  2 O  d  0              40     0.019724   0.022588  1 O  d  0       

 Vector    7  Occ=1.000000D+00  E=-8.567018D-01
              MO Center=  8.3D-10,  8.2D-10,  4.3D-07, r^2= 1.1D+00
  Bfn.         Coefficient        Function           Bfn.         Coefficient        Function  
  ----     -------------------  ------------         ----     -------------------  ------------
     2    -0.421393   0.000000  1 O  s                 16     0.421393  -0.000000  2 O  s          
     3     0.407002   0.000000  1 O  s                 17    -0.407002  -0.000000  2 O  s          
     1     0.180452   0.000000  1 O  s                 15    -0.180452  -0.000000  2 O  s          
    20    -0.133998   0.000000  2 O  pz                 6    -0.133997   0.000000  1 O  pz         
    23    -0.027768  -0.000000  2 O  pz                 9    -0.027767  -0.000000  1 O  pz         

 Vector    8  Occ=1.000000D+00  E=-7.679651D-01
              MO Center= -5.0D-16, -5.0D-16,  8.3D-13, r^2= 2.0D-07
  Bfn.         Coefficient        Function           Bfn.         Coefficient        Function  
  ----     -------------------  ------------         ----     -------------------  ------------
    45    -0.290782  -0.291378  2 O  s                 31     0.290782   0.291378  1 O  s          
    44     0.284047   0.284629  2 O  s                 30    -0.284047  -0.284629  1 O  s          
    29     0.124493   0.124748  1 O  s                 43    -0.124493  -0.124748  2 O  s          
    48    -0.102554  -0.102764  2 O  pz                34    -0.102553  -0.102763  1 O  pz         
    51    -0.030397  -0.030459  2 O  pz                37    -0.030397  -0.030459  1 O  pz         

 Vector    9  Occ=1.000000D+00  E=-5.613515D-01
              MO Center=  3.3D-09,  3.3D-09,  6.7D-07, r^2= 4.3D-01
  Bfn.         Coefficient        Function           Bfn.         Coefficient        Function  
  ----     -------------------  ------------         ----     -------------------  ------------
    18     0.274540   0.268557  2 O  px                19     0.268557  -0.274540  2 O  py         
     4     0.274539   0.268557  1 O  px                 5     0.268557  -0.274539  1 O  py         
    21     0.087066   0.085168  2 O  px                22     0.085168  -0.087066  2 O  py         
     7     0.087065   0.085168  1 O  px                 8     0.085168  -0.087065  1 O  py         

 Vector   10  Occ=1.000000D+00  E=-5.605067D-01
              MO Center=  3.7D-09,  3.6D-09,  6.7D-07, r^2= 4.3D-01
  Bfn.         Coefficient        Function           Bfn.         Coefficient        Function  
  ----     -------------------  ------------         ----     -------------------  ------------
    19    -0.268333  -0.274304  2 O  py                18    -0.274304   0.268333  2 O  px         
     5    -0.268332  -0.274303  1 O  py                 4    -0.274303   0.268332  1 O  px         
    22    -0.085415  -0.087315  2 O  py                21    -0.087315   0.085415  2 O  px         
     8    -0.085414  -0.087315  1 O  py                 7    -0.087315   0.085414  1 O  px         

 Vector   11  Occ=1.000000D+00  E=-5.516168D-01
              MO Center= -8.0D-09, -7.9D-09, -6.0D-07, r^2= 1.1D+00
  Bfn.         Coefficient        Function           Bfn.         Coefficient        Function  
  ----     -------------------  ------------         ----     -------------------  ------------
    20     0.532508   0.000000  2 O  pz                 6    -0.532508  -0.000000  1 O  pz         
     3     0.251311   0.000000  1 O  s                 17     0.251310   0.000000  2 O  s          
    23     0.153333   0.000000  2 O  pz                 9    -0.153333  -0.000000  1 O  pz         
     2    -0.121946   0.000000  1 O  s                 16    -0.121945   0.000000  2 O  s          
     1     0.061314   0.000000  1 O  s                 15     0.061313   0.000000  2 O  s          

 Vector   12  Occ=1.000000D+00  E=-5.123476D-01
              MO Center=  1.9D-15,  1.9D-15, -4.6D-11, r^2= 5.1D-06
  Bfn.         Coefficient        Function           Bfn.         Coefficient        Function  
  ----     -------------------  ------------         ----     -------------------  ------------
    48     0.366598   0.371679  2 O  pz                34    -0.366598  -0.371678  1 O  pz         
    31     0.189534   0.192161  1 O  s                 45     0.189534   0.192160  2 O  s          
    37    -0.114234  -0.115817  1 O  pz                51     0.114234   0.115817  2 O  pz         
    30    -0.086273  -0.087469  1 O  s                 44    -0.086273  -0.087468  2 O  s          
    29     0.045689   0.046322  1 O  s                 43     0.045689   0.046322  2 O  s          

 Vector   13  Occ=1.000000D+00  E=-4.583429D-01
              MO Center= -7.4D-15, -7.2D-15, -7.4D-12, r^2= 9.7D-07
  Bfn.         Coefficient        Function           Bfn.         Coefficient        Function  
  ----     -------------------  ------------         ----     -------------------  ------------
    46     0.358946   0.000000  2 O  px                47     0.000000   0.358946  2 O  py         
    32     0.358945   0.000000  1 O  px                33     0.000000   0.358945  1 O  py         
    49     0.146744   0.000000  2 O  px                50     0.000000   0.146744  2 O  py         
    35     0.146744   0.000000  1 O  px                36     0.000000   0.146744  1 O  py         
    41    -0.026296  -0.000000  1 O  d  1              39     0.000000   0.026296  1 O  d -1       

 Vector   14  Occ=1.000000D+00  E=-4.576053D-01
              MO Center=  2.9D-17,  2.8D-17,  6.4D-18, r^2= 8.4D-12
  Bfn.         Coefficient        Function           Bfn.         Coefficient        Function  
  ----     -------------------  ------------         ----     -------------------  ------------
    47     0.300214  -0.196115  2 O  py                46     0.196115   0.300214  2 O  px         
    33     0.300213  -0.196114  1 O  py                32     0.196114   0.300213  1 O  px         
    50     0.123152  -0.080449  2 O  py                49     0.080449   0.123152  2 O  px         
    36     0.123151  -0.080449  1 O  py                35     0.080449   0.123151  1 O  px         
    39     0.022028  -0.014390  1 O  d -1              41    -0.014390  -0.022028  1 O  d  1       

 Vector   15  Occ=1.000000D+00  E=-3.285107D-01
              MO Center= -4.0D-10, -3.9D-10, -6.7D-07, r^2= 4.9D-01
  Bfn.         Coefficient        Function           Bfn.         Coefficient        Function  
  ----     -------------------  ------------         ----     -------------------  ------------
     4     0.317581   0.303837  1 O  px                 5     0.303837  -0.317581  1 O  py         
    18    -0.317581  -0.303837  2 O  px                19    -0.303837   0.317581  2 O  py         
     7     0.153778   0.147123  1 O  px                 8     0.147123  -0.153778  1 O  py         
    21    -0.153778  -0.147123  2 O  px                22    -0.147123   0.153778  2 O  py         

 Vector   16  Occ=1.000000D+00  E=-3.274498D-01
              MO Center= -4.0D-10, -3.9D-10, -6.6D-07, r^2= 4.9D-01
  Bfn.         Coefficient        Function           Bfn.         Coefficient        Function  
  ----     -------------------  ------------         ----     -------------------  ------------
     5    -0.303543  -0.317372  1 O  py                 4    -0.317372   0.303543  1 O  px         
    19     0.303542   0.317371  2 O  py                18     0.317371  -0.303542  2 O  px         
     8    -0.147635  -0.154361  1 O  py                 7    -0.154361   0.147635  1 O  px         
    22     0.147634   0.154360  2 O  py                21     0.154360  -0.147634  2 O  px         

 Vector   17  Occ=0.000000D+00  E=-1.357811D-01
              MO Center=  3.0D-17,  6.5D-17,  6.5D-12, r^2= 8.4D-06
  Bfn.         Coefficient        Function           Bfn.         Coefficient        Function  
  ----     -------------------  ------------         ----     -------------------  ------------
    32    -0.410770  -0.000000  1 O  px                33    -0.000000  -0.410770  1 O  py         
    46     0.410770   0.000000  2 O  px                47     0.000000   0.410770  2 O  py         
    35    -0.272860  -0.000000  1 O  px                36    -0.000000  -0.272860  1 O  py         
    49     0.272860   0.000000  2 O  px                50     0.000000   0.272860  2 O  py         

 Vector   18  Occ=0.000000D+00  E=-1.348731D-01
              MO Center= -6.6D-19, -7.2D-19, -1.4D-18, r^2= 8.3D-13
  Bfn.         Coefficient        Function           Bfn.         Coefficient        Function  
  ----     -------------------  ------------         ----     -------------------  ------------
    33     0.330646  -0.243008  1 O  py                32     0.243008   0.330646  1 O  px         
    47    -0.330646   0.243008  2 O  py                46    -0.243008  -0.330646  2 O  px         
    36     0.220550  -0.162093  1 O  py                35     0.162093   0.220550  1 O  px         
    50    -0.220549   0.162093  2 O  py                49    -0.162093  -0.220549  2 O  px         

 Vector   19  Occ=0.000000D+00  E= 1.268948D-01
              MO Center= -3.2D-10, -3.5D-10, -2.4D-07, r^2= 1.7D+00
  Bfn.         Coefficient        Function           Bfn.         Coefficient        Function  
  ----     -------------------  ------------         ----     -------------------  ------------
     3     0.920163   0.000000  1 O  s                 17    -0.920163  -0.000000  2 O  s          
[...]

     Total iterative time =      0.4s



   alpha - beta orbital overlaps 
   ----------------------------- 


   alpha      1      2      3      4      5      6      7      8      9     10
    beta      1      2      3      4      5      6      4      5      6      5
 overlap   1.060  0.313  0.295  0.275  0.275  0.338  0.086  0.086  0.086  0.000


   alpha     11     12     13     14     15     16     17     18     19     20
    beta      5      6      4      4     15     16     17     18     19     20
 overlap   0.015  0.022  0.015  0.000  1.060  0.313  0.295  0.275  0.275  0.338


   alpha     21     22     23     24     25     26     27     28
    beta     18     19     20      5      5     20      4      4
 overlap   0.086  0.086  0.086  0.000  0.015  0.022  0.015  0.000

     --------------------------
     Expectation value of S2:  
     --------------------------
      <S2> =      2.0086 (Exact =     2.0000)



                         sodft ENERGY GRADIENTS

    atom               coordinates                        gradient
                 x          y          z           x          y          z
   1 O       0.000000   0.000000  -1.154482    0.000008  -0.000000   0.000277
   2 O      -0.001000  -0.000000   1.154482   -0.000008   0.000000  -0.000277

 atom:   2 xyz: 2(+) wall time:      11.7      date:  Sun Jun 30 13:28:32 2019


                                 NWChem DFT Module
                                 -----------------



                                  Spin-Orbit DFT
                                  --------------


  Caching 1-el integrals 
 Performing spin-orbit DFT (SO-DFT) calculations
 -----------------------------------------------

          Performing ZORA calculations
          ----------------------------


 Read atomic ZORA corrections from ./o2_zora_so.zora_so

   Time prior to 1st pass:     11.1
  zoraso: enough mem for repl


      Total SO-DFT energy =     -150.507667069984
      One electron energy =     -261.352207473384
           Coulomb energy =      100.108787285447
    Exchange-Corr. energy =      -16.982298482891
 Nuclear repulsion energy =       27.718051600844

       Scaling correction =        0.059672292862

 Numeric. integr. density =       16.000000009116

     Total iterative time =      0.4s



   alpha - beta orbital overlaps 
   ----------------------------- 


   alpha      1      2      3      4      5      6      7      8      9     10
    beta      1      2      3      4      5      6      4      5      6      4
 overlap   1.060  0.313  0.295  0.275  0.275  0.338  0.086  0.086  0.086  0.000


   alpha     11     12     13     14     15     16     17     18     19     20
    beta      5      6      4      5     15     16     17     18     19     20
 overlap   0.015  0.022  0.015  0.000  1.060  0.313  0.295  0.275  0.275  0.338


   alpha     21     22     23     24     25     26     27     28
    beta     18     19     20      4      5     20      4      5
 overlap   0.086  0.086  0.086  0.000  0.015  0.022  0.015  0.000

     --------------------------
     Expectation value of S2:  
     --------------------------
      <S2> =      2.0086 (Exact =     2.0000)



                         sodft ENERGY GRADIENTS

    atom               coordinates                        gradient
                 x          y          z           x          y          z
   1 O       0.000000   0.000000  -1.154482    0.000001  -0.000009   0.000278
   2 O      -0.000000   0.001000   1.154482   -0.000001   0.000009  -0.000278

 atom:   2 xyz: 2(-) wall time:      12.3      date:  Sun Jun 30 13:28:32 2019


                                 NWChem DFT Module
                                 -----------------



                                  Spin-Orbit DFT
                                  --------------


  Caching 1-el integrals 
 Performing spin-orbit DFT (SO-DFT) calculations
 -----------------------------------------------

          Performing ZORA calculations
          ----------------------------


 Read atomic ZORA corrections from ./o2_zora_so.zora_so

   Time prior to 1st pass:     11.8
  zoraso: enough mem for repl


      Total SO-DFT energy =     -150.507667067545
      One electron energy =     -261.352207477434
           Coulomb energy =      100.108787289823
    Exchange-Corr. energy =      -16.982298480778
 Nuclear repulsion energy =       27.718051600844

       Scaling correction =        0.059672292853

 Numeric. integr. density =       15.999999994644

     Total iterative time =      0.4s



   alpha - beta orbital overlaps 
   ----------------------------- 


   alpha      1      2      3      4      5      6      7      8      9     10
    beta      1      2      3      4      5      6      4      5      6      4
 overlap   1.060  0.313  0.295  0.275  0.275  0.338  0.086  0.086  0.086  0.000


   alpha     11     12     13     14     15     16     17     18     19     20
    beta      5      6      4      5     15     16     17     18     19     20
 overlap   0.015  0.022  0.015  0.000  1.060  0.313  0.295  0.275  0.275  0.338


   alpha     21     22     23     24     25     26     27     28
    beta     18     19     20      4      5     20      4      5
 overlap   0.086  0.086  0.086  0.000  0.015  0.022  0.015  0.000

     --------------------------
     Expectation value of S2:  
     --------------------------
      <S2> =      2.0086 (Exact =     2.0000)



                         sodft ENERGY GRADIENTS

    atom               coordinates                        gradient
                 x          y          z           x          y          z
   1 O       0.000000   0.000000  -1.154482   -0.000001   0.000009   0.000278
   2 O      -0.000000  -0.001000   1.154482    0.000001  -0.000009  -0.000278

 atom:   2 xyz: 3(+) wall time:      13.0      date:  Sun Jun 30 13:28:33 2019


                                 NWChem DFT Module
                                 -----------------



                                  Spin-Orbit DFT
                                  --------------


  Caching 1-el integrals 
 Performing spin-orbit DFT (SO-DFT) calculations
 -----------------------------------------------

          Performing ZORA calculations
          ----------------------------


 Read atomic ZORA corrections from ./o2_zora_so.zora_so

   Time prior to 1st pass:     12.4
  zoraso: enough mem for repl


      Total SO-DFT energy =     -150.507666965038
      One electron energy =     -261.329723141347
           Coulomb energy =      100.097880527116
    Exchange-Corr. energy =      -16.981879208540
 Nuclear repulsion energy =       27.706054857734

       Scaling correction =        0.059672709920

 Numeric. integr. density =       16.000000009107

     Total iterative time =      0.4s



   alpha - beta orbital overlaps 
   ----------------------------- 


   alpha      1      2      3      4      5      6      7      8      9     10
    beta      1      2      3      4      5      6      4      5      6      1
 overlap   1.060  0.313  0.295  0.275  0.275  0.337  0.086  0.086  0.086  0.000


   alpha     11     12     13     14     15     16     17     18     19     20
    beta      5      6      4      3     15     16     17     18     19     20
 overlap   0.015  0.022  0.015  0.000  1.060  0.313  0.295  0.275  0.275  0.337


   alpha     21     22     23     24     25     26     27     28
    beta     18     19     20     15      5     20      4     17
 overlap   0.086  0.086  0.086  0.000  0.015  0.022  0.015  0.000

     --------------------------
     Expectation value of S2:  
     --------------------------
      <S2> =      2.0086 (Exact =     2.0000)



                         sodft ENERGY GRADIENTS

    atom               coordinates                        gradient
                 x          y          z           x          y          z
   1 O       0.000000   0.000000  -1.154482    0.000000   0.000000  -0.000506
   2 O      -0.000000  -0.000000   1.155482   -0.000000  -0.000000   0.000506

 atom:   2 xyz: 3(-) wall time:      13.7      date:  Sun Jun 30 13:28:34 2019


                                 NWChem DFT Module
                                 -----------------



                                  Spin-Orbit DFT
                                  --------------


  Caching 1-el integrals 
 Performing spin-orbit DFT (SO-DFT) calculations
 -----------------------------------------------

          Performing ZORA calculations
          ----------------------------


 Read atomic ZORA corrections from ./o2_zora_so.zora_so

   Time prior to 1st pass:     13.0
  zoraso: enough mem for repl


      Total SO-DFT energy =     -150.507666371477
      One electron energy =     -261.374758925541
           Coulomb energy =      100.119752651460
    Exchange-Corr. energy =      -16.982724038654
 Nuclear repulsion energy =       27.730063941258

       Scaling correction =        0.059671894733

 Numeric. integr. density =       15.999999993238

     Total iterative time =      0.4s



   alpha - beta orbital overlaps 
   ----------------------------- 


   alpha      1      2      3      4      5      6      7      8      9     10
    beta      1      2      3      4      5      6      4      5      6      1
 overlap   1.060  0.313  0.295  0.275  0.275  0.338  0.086  0.086  0.086  0.000


   alpha     11     12     13     14     15     16     17     18     19     20
    beta      5      6      4      3     15     16     17     18     19     20
 overlap   0.015  0.022  0.015  0.000  1.060  0.313  0.295  0.275  0.275  0.338


   alpha     21     22     23     24     25     26     27     28
    beta     18     19     20     15      5     20      4     17
 overlap   0.086  0.086  0.086  0.000  0.015  0.022  0.015  0.000

     --------------------------
     Expectation value of S2:  
     --------------------------
      <S2> =      2.0086 (Exact =     2.0000)



                         sodft ENERGY GRADIENTS

    atom               coordinates                        gradient
                 x          y          z           x          y          z
   1 O       0.000000   0.000000  -1.154482    0.000000   0.000000   0.001065
   2 O      -0.000000  -0.000000   1.153482   -0.000000  -0.000000  -0.001065

  
  finite difference hessian delta =    1.0000000000000000E-003

              1        2        3        4        5        6      
    1    0.0079  -0.0005  -0.0000  -0.0079   0.0006  -0.0000
    2   -0.0005   0.0093  -0.0000   0.0004  -0.0093   0.0000
    3   -0.0000  -0.0000   0.7854  -0.0000   0.0000  -0.7854
    4   -0.0079   0.0004  -0.0000   0.0079  -0.0005   0.0000
    5    0.0006  -0.0093   0.0000  -0.0005   0.0093  -0.0000
    6   -0.0000   0.0000  -0.7854   0.0000  -0.0000   0.7854
  
  triangle hessian written to ./o2_zora_so.hess

 Deleting state for sodft with suffix hess
        ./o2_zora_so.movecs



  Vibrational analysis via the FX method 

  See chapter 2 in "Molecular Vibrations" by Wilson, Decius and Cross

  Vib: Default input used 

  Nuclear Hessian passed symmetry test 



 ---------------------------- Atom information ----------------------------
     atom    #        X              Y              Z            mass
 --------------------------------------------------------------------------
    O        1  4.7374798D-28  4.7356764D-28 -1.1544822D+00  1.5994910D+01
    O        2 -4.7374798D-28 -4.7356764D-28  1.1544822D+00  1.5994910D+01
 --------------------------------------------------------------------------




          ----------------------------------------------------
          MASS-WEIGHTED NUCLEAR HESSIAN (Hartree/Bohr/Bohr/Kamu)
          ----------------------------------------------------


               1            2            3            4            5            6
   ----- ----- ----- ----- -----
    1    4.93118D-01
    2   -3.20772D-02  5.79882D-01
    3   -1.68626D-05 -2.75064D-05  4.91038D+01
    4   -4.93166D-01  2.75136D-02 -1.59995D-06  4.93166D-01
    5    3.66411D-02 -5.79931D-01  1.97827D-05 -3.20773D-02  5.79931D-01
    6   -5.90631D-08  6.38853D-08 -4.91038D+01  8.29561D-07 -9.92294D-06  4.91038D+01



          -------------------------------------------------
          NORMAL MODE EIGENVECTORS IN CARTESIAN COORDINATES
          -------------------------------------------------
                 (Frequencies expressed in cm-1)

                    1           2           3           4           5           6
 
 Frequency         -1.12       -1.08        0.30      159.70      176.66     1610.93
 
           1    -0.02219    -0.17212    -0.03404    -0.16765     0.05599     0.00000
           2    -0.17158     0.02848    -0.03152    -0.05613    -0.16770     0.00000
           3    -0.03617    -0.02908     0.17060     0.00000     0.00000    -0.17680
           4    -0.02377    -0.17176    -0.03432     0.16819    -0.05469     0.00000
           5    -0.17148     0.02985    -0.03127     0.05455     0.16814    -0.00000
           6    -0.03617    -0.02908     0.17060     0.00000     0.00000     0.17680


        Vibrational analysis via the FX method 
  --- with translations and rotations projected out ---
  --- via the Eckart algorithm                      ---
 Dependent rotation vector no.                    3
  found in ECKART; assuming linear geometry
 Projected Nuclear Hessian trans-rot subspace norm:1.1078D-45
                         (should be close to zero!) 

          --------------------------------------------------------
          MASS-WEIGHTED PROJECTED HESSIAN (Hartree/Bohr/Bohr/Kamu)
          --------------------------------------------------------


               1            2            3            4            5            6
   ----- ----- ----- ----- -----
    1    0.00000D+00
    2    0.00000D+00  0.00000D+00
    3   -3.30978D-21 -3.30978D-21  4.91038D+01
    4    0.00000D+00  0.00000D+00 -4.65437D-22  0.00000D+00
    5    0.00000D+00  0.00000D+00  3.30978D-21  0.00000D+00  0.00000D+00
    6    2.06861D-21  3.08999D-21 -4.91038D+01  5.17152D-22 -1.65489D-21  4.91038D+01

 center of mass
 --------------
 x =  -0.00000000 y =  -0.00000000 z =   0.00000000

 moments of inertia (a.u.)
 ------------------
          42.636964088709          -0.000000000000           0.000000000000
          -0.000000000000          42.636964088709           0.000000000000
           0.000000000000           0.000000000000           0.000000000000

 Rotational Constants
 --------------------
 A=   0.000000 cm-1  (  0.000000 K)
 B=   1.411925 cm-1  (  2.031399 K)
 C=   1.411925 cm-1  (  2.031399 K)


 Temperature                      =   298.15K
 frequency scaling parameter      =   1.0000


 Linear Molecule                   

 Zero-Point correction to Energy  =    2.302 kcal/mol  (  0.003668 au)
 Thermal correction to Energy     =    3.784 kcal/mol  (  0.006031 au)
 Thermal correction to Enthalpy   =    4.377 kcal/mol  (  0.006974 au)

 Total Entropy                    =   48.208 cal/mol-K
   - Translational                =   36.304 cal/mol-K (mol. weight =  31.9898)
   - Rotational                   =   11.896 cal/mol-K (symmetry #  =        1)
   - Vibrational                  =    0.007 cal/mol-K

 Cv (constant volume heat capacity) =    5.016 cal/mol-K
   - Translational                  =    2.979 cal/mol-K
   - Rotational                     =    1.986 cal/mol-K
   - Vibrational                    =    0.051 cal/mol-K



          -------------------------------------------------
          NORMAL MODE EIGENVECTORS IN CARTESIAN COORDINATES
          -------------------------------------------------
             (Projected Frequencies expressed in cm-1)

                    1           2           3           4           5           6
 
 P.Frequency        0.00        0.00        0.00        0.00        0.00     1610.93
 
           1     0.25004     0.00000     0.00000     0.00000     0.00000     0.00000
           2     0.00000     0.25004     0.00000     0.00000     0.00000     0.00000
           3     0.00000     0.00000     0.00000     0.00000     0.17680    -0.17680
           4     0.00000     0.00000    -0.25004     0.00000     0.00000     0.00000
           5     0.00000     0.00000     0.00000    -0.25004     0.00000     0.00000
           6     0.00000     0.00000     0.00000     0.00000     0.17680     0.17680
 vib:animation  F

 Task  times  cpu:        7.6s     wall:        8.1s


                                NWChem Input Module
                                -------------------


 Summary of allocated global arrays
-----------------------------------
  No active global arrays



                         GA Statistics for process    0
                         ------------------------------

       create   destroy   get      put      acc     scatter   gather  read&inc
calls: 1.05e+04 1.05e+04 8.08e+04 2.76e+04 9645       15        0     3666     
number of processes/call 1.32e+00 1.77e+00 1.08e+00 4.00e+00 0.00e+00
bytes total:             6.76e+07 3.86e+07 2.18e+07 1.92e+03 0.00e+00 2.93e+04
bytes remote:            2.85e+07 1.98e+07 1.72e+06 1.44e+03 0.00e+00 0.00e+00
Max memory consumed for GA by this process: 497056 bytes

MA_summarize_allocated_blocks: starting scan ...
MA_summarize_allocated_blocks: scan completed: 0 heap blocks, 0 stack blocks
MA usage statistics:

	allocation statistics:
					      heap	     stack
					      ----	     -----
	current number of blocks	         0	         0
	maximum number of blocks	        24	        62
	current total bytes		         0	         0
	maximum total bytes		   3814808	  29533592
	maximum total K-bytes		      3815	     29534
	maximum total M-bytes		         4	        30


                                     CITATION
                                     --------
                Please cite the following reference when publishing
                           results obtained with NWChem:

                 M. Valiev, E.J. Bylaska, N. Govind, K. Kowalski,
              T.P. Straatsma, H.J.J. van Dam, D. Wang, J. Nieplocha,
                        E. Apra, T.L. Windus, W.A. de Jong
                 "NWChem: a comprehensive and scalable open-source
                  solution for large scale molecular simulations"
                      Comput. Phys. Commun. 181, 1477 (2010)
                           doi:10.1016/j.cpc.2010.04.018

                                      AUTHORS
                                      -------
          E. Apra, E. J. Bylaska, W. A. de Jong, N. Govind, K. Kowalski,
       T. P. Straatsma, M. Valiev, H. J. J. van Dam, D. Wang, T. L. Windus,
        J. Hammond, J. Autschbach, K. Bhaskaran-Nair, J. Brabec, K. Lopata,
    S. A. Fischer, S. Krishnamoorthy, M. Jacquelin, W. Ma, M. Klemm, O. Villa,
      Y. Chen, V. Anisimov, F. Aquino, S. Hirata, M. T. Hackler, V. Konjkov,
            D. Mejia-Rodriguez, T. Risthaus, M. Malagoli, A. Marenich,
   A. Otero-de-la-Roza, J. Mullin, P. Nichols, R. Peverati, J. Pittner, Y. Zhao,
        P.-D. Fan, A. Fonari, M. J. Williamson, R. J. Harrison, J. R. Rehr,
      M. Dupuis, D. Silverstein, D. M. A. Smith, J. Nieplocha, V. Tipparaju,
    M. Krishnan, B. E. Van Kuiken, A. Vazquez-Mayagoitia, L. Jensen, M. Swart,
      Q. Wu, T. Van Voorhis, A. A. Auer, M. Nooijen, L. D. Crosby, E. Brown,
      G. Cisneros, G. I. Fann, H. Fruchtl, J. Garza, K. Hirao, R. A. Kendall,
      J. A. Nichols, K. Tsemekhman, K. Wolinski, J. Anchell, D. E. Bernholdt,
      P. Borowski, T. Clark, D. Clerc, H. Dachsel, M. J. O. Deegan, K. Dyall,
    D. Elwood, E. Glendening, M. Gutowski, A. C. Hess, J. Jaffe, B. G. Johnson,
     J. Ju, R. Kobayashi, R. Kutteh, Z. Lin, R. Littlefield, X. Long, B. Meng,
      T. Nakajima, S. Niu, L. Pollack, M. Rosing, K. Glaesemann, G. Sandrone,
      M. Stave, H. Taylor, G. Thomas, J. H. van Lenthe, A. T. Wong, Z. Zhang.

 Total times  cpu:       13.6s     wall:       14.4s
[0] ARMCI Warning: Freed 1 leaked allocations
