 argument  1 = /home/list1234/source/nwchem-6.8.1/QA/tests/h3tr1/h3tr1.nw



============================== echo of input deck ==============================
echo
start h3

basis
 h library 3-21G
end

scf
   uhf
   doublet
   thresh 1.0e-6
end

dirdyvtst autosym 0.001
  theory scf
*GENERAL
  TITLE
    Test run: H+H2 reaction, Euler integration, no restart

  ATOMS
    1  H
    2  H
    3  H
  END

*REACT1
   GEOM
     1   0.0   0.0   0.0
     2   0.0   0.0   1.3886144
   END

   SPECIES LINRP

*REACT2

   GEOM
    3    0.0   0.0    190.3612132
   END

   SPECIES  ATOMIC

*PROD2

  GEOM
   1  0.0   0.0 190.3612132
  END

  SPECIES  ATOMIC

*PROD1
  GEOM
   2    0.0   0.0   1.3886144
   3    0.0   0.0   0.0
  END

  SPECIES  LINRP

*START
  GEOM
   1    0.0   0.0  -1.76531973
   2    0.0   0.0   0.0
   3    0.0   0.0   1.76531973
  END

  SPECIES  LINTS

*PATH
   SSTEP  0.01
   SSAVE  0.05
   SLP    0.5
   SLM   -0.5
   SCALEMASS    0.6718993

   INTEGRA EULER

   PRINTFREQ
end

task dirdyvtst
================================================================================


                                         
                                         


              Northwest Computational Chemistry Package (NWChem) 6.8
              ------------------------------------------------------


                    Environmental Molecular Sciences Laboratory
                       Pacific Northwest National Laboratory
                                Richland, WA 99352

                              Copyright (c) 1994-2017
                       Pacific Northwest National Laboratory
                            Battelle Memorial Institute

             NWChem is an open-source computational chemistry package
                        distributed under the terms of the
                      Educational Community License (ECL) 2.0
             A copy of the license is included with this distribution
                              in the LICENSE.TXT file

                                  ACKNOWLEDGMENT
                                  --------------

            This software and its documentation were developed at the
            EMSL at Pacific Northwest National Laboratory, a multiprogram
            national laboratory, operated for the U.S. Department of Energy
            by Battelle under Contract Number DE-AC05-76RL01830. Support
            for this work was provided by the Department of Energy Office
            of Biological and Environmental Research, Office of Basic
            Energy Sciences, and the Office of Advanced Scientific Computing.


           Job information
           ---------------

    hostname        = list1234-B360M-H
    program         = /home/list1234/source/nwchem-6.8.1/bin/LINUX64/nwchem
    date            = Sun Jun 30 23:55:06 2019

    compiled        = Sun_Jun_30_20:37:07_2019
    source          = /home/list1234/source/nwchem-6.8.1
    nwchem branch   = 6.8.1
    nwchem revision = v6.8-160-gc00cf755d
    ga revision     = 5.6.5
    use scalapack   = T
    input           = /home/list1234/source/nwchem-6.8.1/QA/tests/h3tr1/h3tr1.nw
    prefix          = h3.
    data base       = ./h3.db
    status          = startup
    nproc           =        4
    time left       =     -1s



           Memory information
           ------------------

    heap     =   86247164 doubles =    658.0 Mbytes
    stack    =   86247169 doubles =    658.0 Mbytes
    global   =  172494336 doubles =   1316.0 Mbytes (distinct from heap & stack)
    total    =  344988669 doubles =   2632.1 Mbytes
    verify   = yes
    hardfail = no 


           Directory information
           ---------------------

  0 permanent = .
  0 scratch   = .




                                NWChem Input Module
                                -------------------


                      Basis "ao basis" -> "" (cartesian)
                      -----
  h (Hydrogen)
  ------------
            Exponent  Coefficients 
       -------------- ---------------------------------------------------------
  1 S  5.44717800E+00  0.156285
  1 S  8.24547000E-01  0.904691

  2 S  1.83192000E-01  1.000000



 Summary of "ao basis" -> "" (cartesian)
 ------------------------------------------------------------------------------
       Tag                 Description            Shells   Functions and Types
 ---------------- ------------------------------  ------  ---------------------
 h                           3-21G                   2        2   2s




 DIRDYVTST - DiRect DYnamics for Variational Transition State Theory with the NWChem  electronic structure code

     This code prepares the file30 input for POLYRATE from electronic structure calculations of gradients
     hessians at the reactant, product, and saddle point geometries, and along the minimum energy path.
     Cartesian geometries for the reactants, products, and saddle points need to be input to this code;
     optimization for these geometries is not performed in the code.  Points along the minimum energy path
     are calculated here.

 Options, lgs=
   1 1 0 0 0 1 0 0 0 0 0 0 0 0 0 0 0 0 0 0 0 0 0 0 0 0 0 0 0 0 1 0 0 0 0 0 0 0 0

           Note that only lgs 1,2,6,8,27,31,38,39 are used.

     lgs( 1)= 1, saddle point; MEP started along unbound eigenvector
     lgs( 2)= 1, print frequencies and eigenvectors at save points along MEP
     lgs( 6)= 1,  2, reactants,  2, products
     lgs( 8)= 0, no restart
     lgs(27)= 0, use original direction of unbound eigenvector at saddle point
     lgs(31)= 1, MEP calculation uses euler integrator
     lgs(38)= 0, No electronic structure files saved
     lgs(39)= 0, No single point calculation  performed


 Title:
     Test run: H+H2 reaction, Euler integration, no restart                      


 Number of atoms =     3


 Masses
                                  amu             a.u.            kg
     Mass of atom  1           1.007825      1837.108749   1.673231E-27
     Mass of atom  2           1.007825      1837.108749   1.673231E-27
     Mass of atom  3           1.007825      1837.108749   1.673231E-27
     Forward reduced mass      0.671899      1224.768271   1.115514E-27


 Reactants

     Input geometry (cartesian coordinates in au)
      atom            x             y             z
        1          0.00000       0.00000       0.00000
        2          0.00000       0.00000       1.38861
        3          0.00000       0.00000     190.36121

     Species 1 consists of atom(s):    1  2
          icode=    3

     Species 2 consists of atom(s):    3
          icode=    1


 Products

     Input geometry (cartesian coordinates in au)
      atom            x             y             z
        1          0.00000       0.00000     190.36121
        2          0.00000       0.00000       1.38861
        3          0.00000       0.00000       0.00000

     Species 3 consists of atom(s):    2  3
          icode=    3

     Species 4 consists of atom(s):    1
          icode=    1


 Saddle point or starting geometry on MEP

     Input geometry (cartesian coordinates in au)
      atom            x             y             z
        1          0.00000       0.00000      -1.76532
        2          0.00000       0.00000       0.00000
        3          0.00000       0.00000       1.76532
          icode=    3

 Mass scaled coordinates, rotated so principle axes are aligned

     Reactants
      atom            x             y             z
        1          0.00000       0.00000     -78.28061
        2          0.00000       0.00000     -76.57993
        3          0.00000       0.00000     154.86054

     Products
      atom            x             y             z
        1          0.00000       0.00000    -154.86054
        2          0.00000       0.00000      76.57993
        3          0.00000       0.00000      78.28061

     Saddle point or starting geometry on MEP
      atom            x             y             z
        1          0.00000       0.00000      -2.16204
        2          0.00000       0.00000       0.00000
        3          0.00000       0.00000       2.16204


 Parameters for MEP calculation

     Step size, dels=  0.010000
     Interval for saving Hessian data, delsv =  0.050000
     Interval for computing Hessian data, delhss =  0.050000
     Path also stopped if s .gt.  0.500000 or s .lt. -0.500000


 ********** Reactants

 Geometry in mass-scaled cartesians (bohrs):

                 x               y               z
   1        0.000000E+00    0.000000E+00   -7.828061E+01
   2        0.000000E+00    0.000000E+00   -7.657993E+01
   3        0.000000E+00    0.000000E+00    1.548605E+02
 Symmetry group is C4V
 restr:                     0
 SCF residual:    1.2121617390716077E-008

 Derivative Dipole

  
  
 X vector of derivative dipole (au) [debye/angstrom]
 d_dipole_x/<atom=   1,x> =    -0.0000     [   -0.0000]
 d_dipole_x/<atom=   1,y> =     0.0000     [    0.0000]
 d_dipole_x/<atom=   1,z> =     0.0000     [    0.0000]
 d_dipole_x/<atom=   2,x> =     0.0000     [    0.0000]
 d_dipole_x/<atom=   2,y> =     0.0000     [    0.0000]
 d_dipole_x/<atom=   2,z> =     0.0000     [    0.0000]
 d_dipole_x/<atom=   3,x> =    -0.0000     [   -0.0000]
 d_dipole_x/<atom=   3,y> =     0.0000     [    0.0000]
 d_dipole_x/<atom=   3,z> =     0.0000     [    0.0000]
  
 Y vector of derivative dipole (au) [debye/angstrom]
 d_dipole_y/<atom=   1,x> =     0.0000     [    0.0000]
 d_dipole_y/<atom=   1,y> =    -0.0000     [   -0.0000]
 d_dipole_y/<atom=   1,z> =     0.0000     [    0.0000]
 d_dipole_y/<atom=   2,x> =     0.0000     [    0.0000]
 d_dipole_y/<atom=   2,y> =     0.0000     [    0.0000]
 d_dipole_y/<atom=   2,z> =     0.0000     [    0.0000]
 d_dipole_y/<atom=   3,x> =     0.0000     [    0.0000]
 d_dipole_y/<atom=   3,y> =    -0.0000     [   -0.0000]
 d_dipole_y/<atom=   3,z> =     0.0000     [    0.0000]
  
 Z vector of derivative dipole (au) [debye/angstrom]
 d_dipole_z/<atom=   1,x> =     0.0000     [    0.0000]
 d_dipole_z/<atom=   1,y> =     0.0000     [    0.0000]
 d_dipole_z/<atom=   1,z> =    -0.0000     [   -0.0000]
 d_dipole_z/<atom=   2,x> =     0.0000     [    0.0000]
 d_dipole_z/<atom=   2,y> =     0.0000     [    0.0000]
 d_dipole_z/<atom=   2,z> =     0.0000     [    0.0000]
 d_dipole_z/<atom=   3,x> =     0.0000     [    0.0000]
 d_dipole_z/<atom=   3,y> =     0.0000     [    0.0000]
 d_dipole_z/<atom=   3,z> =     0.0000     [    0.0000]
  
  

 Potential energy=  -1.6191584449E+00 Hartree= -1.01604E+03 kcal/mol

 Derivatives in mass-scaled cartesians (au):
   1        0.000000E+00    0.000000E+00   -4.572111E-08
   2        0.000000E+00    0.000000E+00    4.572111E-08
   3        0.000000E+00    0.000000E+00   -8.916760E-17

 Reactant species    1

 Eigenvalues and eigenvectors of hessian

                       m=       1            2            3            4            5            6
  Eigenvalues (au)=           0.551477     0.000000     0.000000     0.000000     0.000000    -0.000000
  Frequencies (cm^-1)=     4657.160549     1.454672     1.454672     0.000187     0.000187    -0.000006
  Eigenvectors=
                        1     0.000000     0.000000    -0.707107    -0.000000     0.707107     0.000000
                        2     0.000000     0.707107     0.000000     0.707107     0.000000     0.000000
                        3    -0.707107     0.000000     0.000000    -0.000000     0.000000     0.707107
                        4     0.000000     0.000000     0.707107     0.000000     0.707107     0.000000
                        5     0.000000    -0.707107     0.000000     0.707107     0.000000    -0.000000
                        6     0.707107     0.000000     0.000000     0.000000     0.000000     0.707107
  

 Reactant species    2 is an atom


 ********** Products

 Geometry in mass-scaled cartesians (bohrs):

                 x               y               z
   1        0.000000E+00    0.000000E+00   -1.548605E+02
   2        0.000000E+00    0.000000E+00    7.657993E+01
   3        0.000000E+00    0.000000E+00    7.828061E+01
 Symmetry group is C4V
 restr:                     2
 Restarting rhs from: ./h3.cphf_rhs                                                                                                                                                                                                                                                   
 SCF residual:    1.2121617865542397E-008
 Restarting solution from: ./h3.cphf_sol                                                                                                                                                                                                                                                  

 Derivative Dipole

  
  
 X vector of derivative dipole (au) [debye/angstrom]
 d_dipole_x/<atom=   1,x> =    -0.0000     [   -0.0000]
 d_dipole_x/<atom=   1,y> =     0.0000     [    0.0000]
 d_dipole_x/<atom=   1,z> =     0.0000     [    0.0000]
 d_dipole_x/<atom=   2,x> =    -0.0000     [   -0.0000]
 d_dipole_x/<atom=   2,y> =     0.0000     [    0.0000]
 d_dipole_x/<atom=   2,z> =     0.0000     [    0.0000]
 d_dipole_x/<atom=   3,x> =     0.0000     [    0.0000]
 d_dipole_x/<atom=   3,y> =     0.0000     [    0.0000]
 d_dipole_x/<atom=   3,z> =     0.0000     [    0.0000]
  
 Y vector of derivative dipole (au) [debye/angstrom]
 d_dipole_y/<atom=   1,x> =     0.0000     [    0.0000]
 d_dipole_y/<atom=   1,y> =    -0.0000     [   -0.0000]
 d_dipole_y/<atom=   1,z> =     0.0000     [    0.0000]
 d_dipole_y/<atom=   2,x> =     0.0000     [    0.0000]
 d_dipole_y/<atom=   2,y> =    -0.0000     [   -0.0000]
 d_dipole_y/<atom=   2,z> =     0.0000     [    0.0000]
 d_dipole_y/<atom=   3,x> =     0.0000     [    0.0000]
 d_dipole_y/<atom=   3,y> =     0.0000     [    0.0000]
 d_dipole_y/<atom=   3,z> =     0.0000     [    0.0000]
  
 Z vector of derivative dipole (au) [debye/angstrom]
 d_dipole_z/<atom=   1,x> =     0.0000     [    0.0000]
 d_dipole_z/<atom=   1,y> =     0.0000     [    0.0000]
 d_dipole_z/<atom=   1,z> =     0.0000     [    0.0000]
 d_dipole_z/<atom=   2,x> =     0.0000     [    0.0000]
 d_dipole_z/<atom=   2,y> =     0.0000     [    0.0000]
 d_dipole_z/<atom=   2,z> =    -0.0000     [   -0.0000]
 d_dipole_z/<atom=   3,x> =     0.0000     [    0.0000]
 d_dipole_z/<atom=   3,y> =     0.0000     [    0.0000]
 d_dipole_z/<atom=   3,z> =     0.0000     [    0.0000]
  
  

 Potential energy=  -1.6191584449E+00 Hartree= -1.01604E+03 kcal/mol

 Derivatives in mass-scaled cartesians (au):
   1        0.000000E+00    0.000000E+00    7.440593E-17
   2        0.000000E+00    0.000000E+00   -4.572096E-08
   3        0.000000E+00    0.000000E+00    4.572096E-08

 Product species     1

 Eigenvalues and eigenvectors of hessian

                       m=       1            2            3            4            5            6
  Eigenvalues (au)=           0.656690     0.000000     0.000000     0.000000     0.000000    -0.036219
  Frequencies (cm^-1)=     5082.034326     1.454670     1.454670     0.000168     0.000162 -1193.504294
  Eigenvectors=
                        1     0.000000    -0.707107     0.000000     0.000000    -0.707107     0.000000
                        2     0.000000     0.000000    -0.707107     0.707107     0.000000     0.000000
                        3     0.670980     0.000000    -0.000000    -0.000000     0.000000    -0.741475
                        4     0.000000     0.707107    -0.000000     0.000000    -0.707107     0.000000
                        5    -0.000000     0.000000     0.707107     0.707107     0.000000    -0.000000
                        6    -0.741475     0.000000    -0.000000    -0.000000     0.000000    -0.670980
  

 Product species     2 is an atom


 ********** Saddle point or starting point

 Geometry in mass-scaled cartesians (bohrs):

                 x               y               z
   1        0.000000E+00    0.000000E+00   -2.162041E+00
   2        0.000000E+00    0.000000E+00    0.000000E+00
   3        0.000000E+00    0.000000E+00    2.162041E+00
 Symmetry group is D4H
 restr:                     2
 Restarting rhs from: ./h3.cphf_rhs                                                                                                                                                                                                                                                   
 SCF residual:    8.7218180572716937E-007
 Restarting solution from: ./h3.cphf_sol                                                                                                                                                                                                                                                  

 Derivative Dipole

  
  
 X vector of derivative dipole (au) [debye/angstrom]
 d_dipole_x/<atom=   1,x> =     0.0390     [    0.1872]
 d_dipole_x/<atom=   1,y> =     0.0000     [    0.0000]
 d_dipole_x/<atom=   1,z> =     0.0000     [    0.0000]
 d_dipole_x/<atom=   2,x> =    -0.0779     [   -0.3744]
 d_dipole_x/<atom=   2,y> =     0.0000     [    0.0000]
 d_dipole_x/<atom=   2,z> =     0.0000     [    0.0000]
 d_dipole_x/<atom=   3,x> =     0.0390     [    0.1872]
 d_dipole_x/<atom=   3,y> =     0.0000     [    0.0000]
 d_dipole_x/<atom=   3,z> =     0.0000     [    0.0000]
  
 Y vector of derivative dipole (au) [debye/angstrom]
 d_dipole_y/<atom=   1,x> =     0.0000     [    0.0000]
 d_dipole_y/<atom=   1,y> =     0.0390     [    0.1872]
 d_dipole_y/<atom=   1,z> =     0.0000     [    0.0000]
 d_dipole_y/<atom=   2,x> =     0.0000     [    0.0000]
 d_dipole_y/<atom=   2,y> =    -0.0779     [   -0.3744]
 d_dipole_y/<atom=   2,z> =     0.0000     [    0.0000]
 d_dipole_y/<atom=   3,x> =     0.0000     [    0.0000]
 d_dipole_y/<atom=   3,y> =     0.0390     [    0.1872]
 d_dipole_y/<atom=   3,z> =     0.0000     [    0.0000]
  
 Z vector of derivative dipole (au) [debye/angstrom]
 d_dipole_z/<atom=   1,x> =     0.0000     [    0.0000]
 d_dipole_z/<atom=   1,y> =     0.0000     [    0.0000]
 d_dipole_z/<atom=   1,z> =    -0.0609     [   -0.2927]
 d_dipole_z/<atom=   2,x> =     0.0000     [    0.0000]
 d_dipole_z/<atom=   2,y> =     0.0000     [    0.0000]
 d_dipole_z/<atom=   2,z> =     0.1219     [    0.5855]
 d_dipole_z/<atom=   3,x> =     0.0000     [    0.0000]
 d_dipole_z/<atom=   3,y> =     0.0000     [    0.0000]
 d_dipole_z/<atom=   3,z> =    -0.0609     [   -0.2927]
  
  

 Potential energy=  -1.5920744789E+00 Hartree= -9.99042E+02 kcal/mol

 Derivatives in mass-scaled cartesians (au):
   1        0.000000E+00    0.000000E+00   -2.370965E-08
   2        0.000000E+00    0.000000E+00    0.000000E+00
   3        0.000000E+00    0.000000E+00    2.370965E-08

 Eigenvalues and eigenvectors of hessian

                       m=       1            2            3            4            5            6
  Eigenvalues (au)=           0.172266     0.060227     0.031975     0.031975     0.000000     0.000000
  Frequencies (cm^-1)=     2602.901506  1539.049003  1121.408586  1121.408586     0.656861     0.656861
  Eigenvectors=
                        1     0.000000     0.000000     0.239589    -0.330551     0.406802    -0.578370
                        2    -0.000000     0.000000     0.330551     0.239589    -0.578370    -0.406802
                        3    -0.223564     0.785294    -0.000000     0.000000     0.000000     0.000000
                        4    -0.000000    -0.000000    -0.479178     0.661102    -0.000000    -0.000000
                        5     0.000000    -0.000000    -0.661102    -0.479178    -0.000000    -0.000000
                        6    -0.568302    -0.586259     0.000000    -0.000000     0.000000     0.000000
                        7     0.000000     0.000000     0.239589    -0.330551    -0.406802     0.578370
                        8     0.000000     0.000000     0.330551     0.239589     0.578370     0.406802
                        9     0.791866    -0.199035     0.000000    -0.000000     0.000000     0.000000
  

                       m=       7            8            9
  Eigenvalues (au)=          -0.000000    -0.000000    -0.000000
  Frequencies (cm^-1)=       -0.003966    -0.003966    -0.006477
  Eigenvectors=
                        1     0.354878    -0.455407    -0.000001
                        2    -0.455407    -0.354878    -0.000002
                        3    -0.000001    -0.000002     0.577350
                        4     0.354878    -0.455407    -0.000001
                        5    -0.455407    -0.354878    -0.000002
                        6    -0.000001    -0.000002     0.577350
                        7     0.354878    -0.455407    -0.000001
                        8    -0.455407    -0.354878    -0.000002
                        9    -0.000001    -0.000002     0.577350
  


 Set up to take first step off saddle point

 Vector for initial step off saddle point=
                                    -0.0000  -0.0000   0.5774  -0.0000  -0.0000   0.5774  -0.0000  -0.0000   0.5774


 ********** Calculate points along reaction path

      dels=          1.00000E-02
      delsv=         5.00000E-02
      delhss=        5.00000E-02
      dir=           1.00000E+00
      slm=          -5.00000E-01
      slp=           5.00000E-01

 Path followed using Euler integrator

 Take step from saddle point in reactant direction

  All quantities in atomic units, x is vector of mass-weighted coordinates,
  dx is the normalized mass-weighted gradient vector, and |dV/x| is the magnitude of the gradient
         s       V,|dV/dx|
        0.00000  2.70840E-02    x=   0.0000   0.0000  -2.1620   0.0000   0.0000   0.0000   0.0000   0.0000   2.1620
                 0.00000E+00   dx=  -0.0000  -0.0000   0.5774  -0.0000  -0.0000   0.5774  -0.0000  -0.0000   0.5774
 Symmetry group is D4H
       -0.01000  2.70840E-02    x=   0.0000   0.0000  -2.1678   0.0000   0.0000  -0.0058   0.0000   0.0000   2.1563
                 3.35305E-08   dx=   0.0000   0.0000  -0.7071   0.0000   0.0000   0.0000   0.0000   0.0000   0.7071
 Symmetry group is D4H
       -0.02000  2.70894E-02    x=  -0.0000  -0.0000  -2.1550  -0.0000  -0.0000  -0.0000   0.0000   0.0000   2.1550
                 1.08359E-03   dx=   0.0000   0.0000   0.7071   0.0000   0.0000   0.0000   0.0000   0.0000  -0.7071
 Symmetry group is D4H
       -0.03000  2.70840E-02    x=  -0.0000  -0.0000  -2.1620  -0.0000  -0.0000  -0.0000   0.0000   0.0000   2.1620
                 3.35305E-08   dx=   0.0000   0.0000  -0.7071   0.0000   0.0000   0.0000   0.0000   0.0000   0.7071
 Symmetry group is D4H
       -0.04000  2.70894E-02    x=  -0.0000  -0.0000  -2.1550  -0.0000  -0.0000  -0.0000   0.0000   0.0000   2.1550
                 1.08359E-03   dx=   0.0000   0.0000   0.7071   0.0000   0.0000   0.0000   0.0000   0.0000  -0.7071
 Symmetry group is D4H
 restr:                     2
 Restarting rhs from: ./h3.cphf_rhs                                                                                                                                                                                                                                                   
 SCF residual:    8.7218180521898433E-007
 Restarting solution from: ./h3.cphf_sol                                                                                                                                                                                                                                                  

 Derivative Dipole

  
  
 X vector of derivative dipole (au) [debye/angstrom]
 d_dipole_x/<atom=   1,x> =     0.0390     [    0.1872]
 d_dipole_x/<atom=   1,y> =     0.0000     [    0.0000]
 d_dipole_x/<atom=   1,z> =    -0.0000     [   -0.0000]
 d_dipole_x/<atom=   2,x> =    -0.0779     [   -0.3744]
 d_dipole_x/<atom=   2,y> =     0.0000     [    0.0000]
 d_dipole_x/<atom=   2,z> =     0.0000     [    0.0000]
 d_dipole_x/<atom=   3,x> =     0.0390     [    0.1872]
 d_dipole_x/<atom=   3,y> =     0.0000     [    0.0000]
 d_dipole_x/<atom=   3,z> =     0.0000     [    0.0000]
  
 Y vector of derivative dipole (au) [debye/angstrom]
 d_dipole_y/<atom=   1,x> =     0.0000     [    0.0000]
 d_dipole_y/<atom=   1,y> =     0.0390     [    0.1872]
 d_dipole_y/<atom=   1,z> =     0.0000     [    0.0000]
 d_dipole_y/<atom=   2,x> =     0.0000     [    0.0000]
 d_dipole_y/<atom=   2,y> =    -0.0779     [   -0.3744]
 d_dipole_y/<atom=   2,z> =     0.0000     [    0.0000]
 d_dipole_y/<atom=   3,x> =     0.0000     [    0.0000]
 d_dipole_y/<atom=   3,y> =     0.0390     [    0.1872]
 d_dipole_y/<atom=   3,z> =     0.0000     [    0.0000]
  
 Z vector of derivative dipole (au) [debye/angstrom]
 d_dipole_z/<atom=   1,x> =    -0.0000     [   -0.0000]
 d_dipole_z/<atom=   1,y> =     0.0000     [    0.0000]
 d_dipole_z/<atom=   1,z> =    -0.0609     [   -0.2927]
 d_dipole_z/<atom=   2,x> =    -0.0000     [   -0.0000]
 d_dipole_z/<atom=   2,y> =     0.0000     [    0.0000]
 d_dipole_z/<atom=   2,z> =     0.1219     [    0.5855]
 d_dipole_z/<atom=   3,x> =     0.0000     [    0.0000]
 d_dipole_z/<atom=   3,y> =     0.0000     [    0.0000]
 d_dipole_z/<atom=   3,z> =    -0.0609     [   -0.2927]
  
  
       -0.05000  2.70840E-02    x=  -0.0000  -0.0000  -2.1620  -0.0000  -0.0000  -0.0000   0.0000   0.0000   2.1620
                 3.35304E-08   dx=   0.0000   0.0000  -0.7071   0.0000   0.0000  -0.0000   0.0000   0.0000   0.7071

 Eigenvalues and eigenvectors of hessian

                       m=       1            2            3            4            5            6
  Eigenvalues (au)=           0.114505     0.031975     0.031975     0.000000     0.000000     0.000000
  Frequencies (cm^-1)=     2122.114306  1121.408586  1121.408586     0.013882     0.013882     0.000016
  Eigenvectors=
                        1     0.000000     0.000000     0.408248    -0.087796     0.570635     0.124265
                        2    -0.000000    -0.408248     0.000000    -0.570634    -0.087796     0.654380
                        3    -0.408248     0.000000    -0.000000    -0.000001    -0.000000    -0.237376
                        4    -0.000000    -0.000000    -0.816497    -0.087796     0.570636     0.000000
                        5     0.000000     0.816497    -0.000000    -0.570636    -0.087796     0.000002
                        6     0.816497    -0.000000    -0.000000     0.000000     0.000000     0.000000
                        7     0.000000     0.000000     0.408248    -0.087796     0.570637    -0.124264
                        8     0.000000    -0.408248     0.000000    -0.570638    -0.087796    -0.654376
                        9    -0.408248     0.000000     0.000000     0.000001     0.000000     0.237377
  

                       m=       7            8            9
  Eigenvalues (au)=          -0.000000    -0.000000    -0.000000
  Frequencies (cm^-1)=       -0.000010    -0.000019    -0.023595
  Eigenvectors=
                        1    -0.695178    -0.035881     0.000000
                        2     0.104232     0.246830    -0.000000
                        3    -0.076582     0.661655     0.577351
                        4    -0.000001    -0.000000    -0.000000
                        5     0.000000     0.000000     0.000000
                        6     0.000000    -0.000000     0.577350
                        7     0.695176     0.035881    -0.000000
                        8    -0.104232    -0.246830     0.000000
                        9     0.076582    -0.661655     0.577350
  
 Symmetry group is D4H
[0] ARMCI Error: 0:The gradient is unstable:
       -0.06000  2.70894E-02    x=  -0.0000  -0.0000  -2.1550  -0.0000  -0.0000   0.0000   0.0000   0.0000   2.1550
                 1.08359E-03   dx=   0.0000   0.0000   0.7071   0.0000   0.0000   0.0000   0.0000   0.0000  -0.7071


 ********** The direction of the gradient vector has changed by more than 90 degrees for the last 5 steps.
            Either the step size should be decreased, or another integrator should be tried.
 ------------------------------------------------------------------------
 The gradient is unstable                 555
 ------------------------------------------------------------------------
 ------------------------------------------------------------------------
  current input line : 
    79: task dirdyvtst
 ------------------------------------------------------------------------
 ------------------------------------------------------------------------
 There is an error in the input file
 ------------------------------------------------------------------------
 For more information see the NWChem manual at http://www.nwchem-sw.org/index.php/NWChem_Documentation


 For further details see manual section:                                                                                                                                                                                                                                                                
--------------------------------------------------------------------------
MPI_ABORT was invoked on rank 0 in communicator MPI COMMUNICATOR 3 DUP FROM 0
with errorcode 555.

NOTE: invoking MPI_ABORT causes Open MPI to kill all MPI processes.
You may or may not see output from other processes, depending on
exactly when Open MPI kills them.
--------------------------------------------------------------------------
