 argument  1 = /home/list1234/source/nwchem-6.8.1-release/QA/tests/mcscf_ozone/mcscf_ozone.nw



============================== echo of input deck ==============================
echo

start mcscf_ozone

geometry units au noprint  # 3-21g RHF singlet optimized geometry
  symmetry c2v
  O       0.000000   0.000000  -0.769844
  O       0.000000   1.961067   0.384922
end

basis noprint
  O library 6-31g*
end

title "case s8: Ozone --- ROHF triplet SCF energy with symmetry"
scf; print low; triplet; end
task scf

title "cas mc1: Ozone --- MCSCF triplet 6e in 6 analytic gradients with symmetry"
mcscf; active 6; actelec 6; state 3B2 ; end
task mcscf gradient

title "cas mc2: Ozone --- MCSCF triplet 6e in 6 numerical gradients with symmetry"
mcscf; print none; end
task mcscf gradient numerical
================================================================================


                                         
                                         


              Northwest Computational Chemistry Package (NWChem) 6.8
              ------------------------------------------------------


                    Environmental Molecular Sciences Laboratory
                       Pacific Northwest National Laboratory
                                Richland, WA 99352

                              Copyright (c) 1994-2018
                       Pacific Northwest National Laboratory
                            Battelle Memorial Institute

             NWChem is an open-source computational chemistry package
                        distributed under the terms of the
                      Educational Community License (ECL) 2.0
             A copy of the license is included with this distribution
                              in the LICENSE.TXT file

                                  ACKNOWLEDGMENT
                                  --------------

            This software and its documentation were developed at the
            EMSL at Pacific Northwest National Laboratory, a multiprogram
            national laboratory, operated for the U.S. Department of Energy
            by Battelle under Contract Number DE-AC05-76RL01830. Support
            for this work was provided by the Department of Energy Office
            of Biological and Environmental Research, Office of Basic
            Energy Sciences, and the Office of Advanced Scientific Computing.


           Job information
           ---------------

    hostname        = list1234-B360M-H
    program         = /home/list1234/source/nwchem-6.8.1-release/bin/LINUX64/nwchem
    date            = Sun Jun 30 14:01:45 2019

    compiled        = Sun_Jun_30_11:55:59_2019
    source          = /home/list1234/source/nwchem-6.8.1-release
    nwchem branch   = Development
    nwchem revision = N/A
    ga revision     = 5.6.5
    use scalapack   = T
    input           = /home/list1234/source/nwchem-6.8.1-release/QA/tests/mcscf_ozone/mcscf_ozone.nw
    prefix          = mcscf_ozone.
    data base       = ./mcscf_ozone.db
    status          = startup
    nproc           =        4
    time left       =     -1s



           Memory information
           ------------------

    heap     =   86247162 doubles =    658.0 Mbytes
    stack    =   86247167 doubles =    658.0 Mbytes
    global   =  172494336 doubles =   1316.0 Mbytes (distinct from heap & stack)
    total    =  344988665 doubles =   2632.1 Mbytes
    verify   = yes
    hardfail = no 


           Directory information
           ---------------------

  0 permanent = .
  0 scratch   = .




                                NWChem Input Module
                                -------------------


 Turning off AUTOSYM since
 SYMMETRY directive was detected!

  no constraints, skipping    0.0000000000000000     
  no constraints, skipping    0.0000000000000000     
             case s8: Ozone --- ROHF triplet SCF energy with symmetry
             --------------------------------------------------------
                                 NWChem SCF Module
                                 -----------------


             case s8: Ozone --- ROHF triplet SCF energy with symmetry



  ao basis        = "ao basis"
  functions       =    45
  atoms           =     3
  closed shells   =    11
  open shells     =     2
  charge          =   0.00
  wavefunction    = ROHF
  input vectors   = atomic
  output vectors  = ./mcscf_ozone.movecs
  use symmetry    = T
  symmetry adapt  = T


 Forming initial guess at       0.0s


 Starting SCF solution at       0.1s



       Final ROHF results 
       ------------------ 

         Total SCF energy =   -224.209154765892
      One-electron energy =   -452.176349942507
      Two-electron energy =    155.405603929677
 Nuclear repulsion energy =     72.561591246938

        Time for solution =      0.2s



 Task  times  cpu:        0.2s     wall:        0.2s


                                NWChem Input Module
                                -------------------


     cas mc1: Ozone --- MCSCF triplet 6e in 6 analytic gradients with symmetry
     -------------------------------------------------------------------------

                            NWChem Direct MCSCF Module
                            --------------------------


     cas mc1: Ozone --- MCSCF triplet 6e in 6 analytic gradients with symmetry


     -----------------------------------
       Basis functions:             45
       Inactive shells:              9
       Active shells:                6
       Active electrons:             6
       Symmetry:                    b2      
       Multiplicity:                 3
       Orbital rotations:          504
     -----------------------------------

     -----------------------------------
       E2 extrapolation:             F
       Conjugacy:                    T
       Micro CI relax:               T
       Canonical orbitals:           T
       Maximum iterations:          20
       Converge threshold:    1.00E-04
       Conjugacy resets:            20
       Initial levelshift:        0.10
     -----------------------------------

 Loading old vectors from job with title :

case s8: Ozone --- ROHF triplet SCF energy with symmetry


   input molecular orbitals = ./mcscf_ozone.movecs
  output molecular orbtials = ./mcscf_ozone.movecs

       No. of determinants:           225


  Starting Orbital Energies
   -20.890496   -20.696403   -20.696323    -1.811259    -1.471695    -1.048048
    -0.840106    -0.835005    -0.795799    -0.312899     0.402231    -0.549373
    -0.214784    -0.511000     0.505802     0.806889     0.941143     0.959502
     1.025259     1.057535     1.108605     1.165399     1.167154     1.189373
     1.248372     1.477381     1.499862     1.660049     1.682459     1.700058
     2.056511     2.067205     2.115139     2.143244     2.409227     2.696196
     2.787218     2.921176     2.933293     2.975805     3.182138     3.307620
     3.639364     3.848648     4.083817

  Orbital Symmetry Irreps
a1   b2   a1   a1   b2   a1   b1   a1   b2   a1   a1   a2   b1   b2   b2  
a1   b2   a1   b1   a1   b2   a1   a2   b1   b2   b2   a1   a2   b1   a1  
b2   a2   b1   a1   b2   a1   b1   a1   b2   a2   b2   a1   a1   b2   a1  
  !! warning: moints 2x:                    13  MO vectors were symmetry contaminated

 #quartets = 8.917D+03 #integrals = 1.668D+05 #direct =  0.0% #cached =100.0%


 Integral file          = ./mcscf_ozone.aoints.0
 Record size in doubles =  65536        No. of integs per rec  =  43688
 Max. records in memory =      3        Max. records in file   = 161634
 No. of bits per label  =      8        No. of bits per value  =     64


File balance: exchanges=     0  moved=     0  time=   0.0




          %%%%% MacroIteration   1 %%%%%


          Number of sigma calls:       15
                       o<<<<< (aa):             0.00
                       o<<<<< (bb):             0.01
                       o<<<<< (ab):             0.00
                       o<<<<< (total)           0.01
                       o<<<<< (aa) ff           0.00
                       o<<<<< (aa) gop          0.00
                       o<<<<< (aa) dot          0.00
                       o<<<<< (ab) str          0.00
                       o<<<<< (ab) gath         0.00
                       o<<<<< (ab) dotab        0.00
                       o<<<<< (ab) scat         0.00
                       o<<<<< (ab) sync         0.00
                       o<<<<< Density           0.00
                       o<<<<< Density one       0.00
                       o<<<<< Density two       0.00
                       o<<<<< Density ab        0.00
                       o<<<<< Spin adapt        0.00
                       o<<<<< Symm adapt        0.00

                       o<<<<< (ab) max sync:      0.00

           >>>| Valence CI:            -10.029324212543
           >>>| MCSCF energy:         -224.240534245540
           >>>| Gradient norm:          0.540080474D+00

                              ----- Line search ------

        step       energy         lsg     num-lsg   num-lsh   lsrat    time
      ------- ---------------- --------- --------- --------- ------- --------
       0.0000    -224.24053425 -9.36D-02  0.00D+00  0.00D+00 0.0D+00      0.5
  !! warning: moints 2x:                    10  MO vectors were symmetry contaminated

          Number of sigma calls:       15
                       o<<<<< (aa):             0.00
                       o<<<<< (bb):             0.00
                       o<<<<< (ab):             0.00
                       o<<<<< (total)           0.01
                       o<<<<< (aa) ff           0.00
                       o<<<<< (aa) gop          0.00
                       o<<<<< (aa) dot          0.00
                       o<<<<< (ab) str          0.00
                       o<<<<< (ab) gath         0.00
                       o<<<<< (ab) dotab        0.00
                       o<<<<< (ab) scat         0.00
                       o<<<<< (ab) sync         0.00
                       o<<<<< Density           0.00
                       o<<<<< Density one       0.00
                       o<<<<< Density two       0.00
                       o<<<<< Density ab        0.00
                       o<<<<< Spin adapt        0.00
                       o<<<<< Symm adapt        0.00

                       o<<<<< (ab) max sync:      0.00
       1.0000    -224.28684660  9.81D-03  5.37D-03  1.03D-01 1.0D-01      0.5
  !! warning: moints 2x:                    12  MO vectors were symmetry contaminated

          Number of sigma calls:       13
                       o<<<<< (aa):             0.00
                       o<<<<< (bb):             0.00
                       o<<<<< (ab):             0.00
                       o<<<<< (total)           0.01
                       o<<<<< (aa) ff           0.00
                       o<<<<< (aa) gop          0.00
                       o<<<<< (aa) dot          0.00
                       o<<<<< (ab) str          0.00
                       o<<<<< (ab) gath         0.00
                       o<<<<< (ab) dotab        0.00
                       o<<<<< (ab) scat         0.00
                       o<<<<< (ab) sync         0.00
                       o<<<<< Density           0.00
                       o<<<<< Density one       0.00
                       o<<<<< Density two       0.00
                       o<<<<< Density ab        0.00
                       o<<<<< Spin adapt        0.00
                       o<<<<< Symm adapt        0.00

                       o<<<<< (ab) max sync:      0.00
       0.9051    -224.28718760 -2.53D-03 -2.58D-03  1.30D-01 2.7D-02      0.5
--------------------------------------------------------------------------
MPI_ABORT was invoked on rank 0 in communicator MPI COMMUNICATOR 3 DUP FROM 0
with errorcode 0.

NOTE: invoking MPI_ABORT causes Open MPI to kill all MPI processes.
You may or may not see output from other processes, depending on
exactly when Open MPI kills them.
--------------------------------------------------------------------------
[0] ARMCI Error: 0:ga_diag_std_seq: dsyev failed:
