 argument  1 = /home/list1234/source/nwchem-6.8.1-release/QA/tests/mcscf_ch2/mcscf_ch2.nw



============================== echo of input deck ==============================
echo
start ch2

title "CASSCF for CH2 1A1 - 3B1 splitting at the 3B1 geometry"

geometry units au
  C    0   0     0
  H    0  1.87  -0.82
  symmetry c2v
end

basis
  C library 6-31g**
  H library 6-31g**
end

task scf

mcscf
  active  6
  actelec 6
  state   3B1
end

task mcscf optimize

mcscf
  state  1A1
end

task mcscf

================================================================================


                                         
                                         


              Northwest Computational Chemistry Package (NWChem) 6.8
              ------------------------------------------------------


                    Environmental Molecular Sciences Laboratory
                       Pacific Northwest National Laboratory
                                Richland, WA 99352

                              Copyright (c) 1994-2018
                       Pacific Northwest National Laboratory
                            Battelle Memorial Institute

             NWChem is an open-source computational chemistry package
                        distributed under the terms of the
                      Educational Community License (ECL) 2.0
             A copy of the license is included with this distribution
                              in the LICENSE.TXT file

                                  ACKNOWLEDGMENT
                                  --------------

            This software and its documentation were developed at the
            EMSL at Pacific Northwest National Laboratory, a multiprogram
            national laboratory, operated for the U.S. Department of Energy
            by Battelle under Contract Number DE-AC05-76RL01830. Support
            for this work was provided by the Department of Energy Office
            of Biological and Environmental Research, Office of Basic
            Energy Sciences, and the Office of Advanced Scientific Computing.


           Job information
           ---------------

    hostname        = list1234-B360M-H
    program         = /home/list1234/source/nwchem-6.8.1-release/bin/LINUX64/nwchem
    date            = Sun Jun 30 14:01:44 2019

    compiled        = Sun_Jun_30_11:55:59_2019
    source          = /home/list1234/source/nwchem-6.8.1-release
    nwchem branch   = Development
    nwchem revision = N/A
    ga revision     = 5.6.5
    use scalapack   = T
    input           = /home/list1234/source/nwchem-6.8.1-release/QA/tests/mcscf_ch2/mcscf_ch2.nw
    prefix          = ch2.
    data base       = ./ch2.db
    status          = startup
    nproc           =        4
    time left       =     -1s



           Memory information
           ------------------

    heap     =   86247162 doubles =    658.0 Mbytes
    stack    =   86247167 doubles =    658.0 Mbytes
    global   =  172494336 doubles =   1316.0 Mbytes (distinct from heap & stack)
    total    =  344988665 doubles =   2632.1 Mbytes
    verify   = yes
    hardfail = no 


           Directory information
           ---------------------

  0 permanent = .
  0 scratch   = .




                                NWChem Input Module
                                -------------------


              CASSCF for CH2 1A1 - 3B1 splitting at the 3B1 geometry
              ------------------------------------------------------
 Turning off AUTOSYM since
 SYMMETRY directive was detected!


          ------
          auto-z
          ------
  no constraints, skipping    0.0000000000000000     
  no constraints, skipping    0.0000000000000000     


                             Geometry "geometry" -> ""
                             -------------------------

 Output coordinates in a.u. (scale by  1.000000000 to convert to a.u.)

  No.       Tag          Charge          X              Y              Z
 ---- ---------------- ---------- -------------- -------------- --------------
    1 C                    6.0000     0.00000000     0.00000000     0.20500000
    2 H                    1.0000     0.00000000     1.87000000    -0.61500000
    3 H                    1.0000     0.00000000    -1.87000000    -0.61500000

      Atomic Mass 
      ----------- 

      C                 12.000000
      H                  1.007825


 Effective nuclear repulsion energy (a.u.)       6.1442982489

            Nuclear Dipole moment (a.u.) 
            ----------------------------
        X                 Y               Z
 ---------------- ---------------- ----------------
     0.0000000000     0.0000000000     0.0000000000

      Symmetry information
      --------------------

 Group name             C2v       
 Group number             16
 Group order               4
 No. of unique centers     2

      Symmetry unique atoms

     1    2



                                Z-matrix (autoz)
                                -------- 

 Units are Angstrom for bonds and degrees for angles

      Type          Name      I     J     K     L     M      Value
      ----------- --------  ----- ----- ----- ----- ----- ----------
    1 Stretch                  1     2                       1.08052
    2 Stretch                  1     3                       1.08052
    3 Bend                     2     1     3               132.64484


            XYZ format geometry
            -------------------
     3
 geometry
 C                     0.00000000     0.00000000     0.10848134
 H                     0.00000000     0.98956146    -0.32544401
 H                     0.00000000    -0.98956146    -0.32544401

 ==============================================================================
                                internuclear distances
 ------------------------------------------------------------------------------
       center one      |      center two      | atomic units |       a.u.
 ------------------------------------------------------------------------------
    2 H                |   1 C                |     2.04189  |     2.04189
    3 H                |   1 C                |     2.04189  |     2.04189
 ------------------------------------------------------------------------------
                         number of included internuclear distances:          2
 ==============================================================================



 ==============================================================================
                                 internuclear angles
 ------------------------------------------------------------------------------
        center 1       |       center 2       |       center 3       |  degrees
 ------------------------------------------------------------------------------
    2 H                |   1 C                |   3 H                |   132.64
 ------------------------------------------------------------------------------
                            number of included internuclear angles:          1
 ==============================================================================



                      Basis "ao basis" -> "" (cartesian)
                      -----
  C (Carbon)
  ----------
            Exponent  Coefficients 
       -------------- ---------------------------------------------------------
  1 S  3.04752490E+03  0.001835
  1 S  4.57369510E+02  0.014037
  1 S  1.03948690E+02  0.068843
  1 S  2.92101550E+01  0.232184
  1 S  9.28666300E+00  0.467941
  1 S  3.16392700E+00  0.362312

  2 S  7.86827240E+00 -0.119332
  2 S  1.88128850E+00 -0.160854
  2 S  5.44249300E-01  1.143456

  3 P  7.86827240E+00  0.068999
  3 P  1.88128850E+00  0.316424
  3 P  5.44249300E-01  0.744308

  4 S  1.68714400E-01  1.000000

  5 P  1.68714400E-01  1.000000

  6 D  8.00000000E-01  1.000000

  H (Hydrogen)
  ------------
            Exponent  Coefficients 
       -------------- ---------------------------------------------------------
  1 S  1.87311370E+01  0.033495
  1 S  2.82539370E+00  0.234727
  1 S  6.40121700E-01  0.813757

  2 S  1.61277800E-01  1.000000

  3 P  1.10000000E+00  1.000000



 Summary of "ao basis" -> "" (cartesian)
 ------------------------------------------------------------------------------
       Tag                 Description            Shells   Functions and Types
 ---------------- ------------------------------  ------  ---------------------
 C                          6-31g**                  6       15   3s2p1d
 H                          6-31g**                  3        5   2s1p


                                 NWChem SCF Module
                                 -----------------


              CASSCF for CH2 1A1 - 3B1 splitting at the 3B1 geometry



  ao basis        = "ao basis"
  functions       =    25
  atoms           =     3
  closed shells   =     4
  open shells     =     0
  charge          =   0.00
  wavefunction    = RHF 
  input vectors   = atomic
  output vectors  = ./ch2.movecs
  use symmetry    = T
  symmetry adapt  = T


 Summary of "ao basis" -> "ao basis" (cartesian)
 ------------------------------------------------------------------------------
       Tag                 Description            Shells   Functions and Types
 ---------------- ------------------------------  ------  ---------------------
 C                          6-31g**                  6       15   3s2p1d
 H                          6-31g**                  3        5   2s1p


      Symmetry analysis of basis
      --------------------------

        a1         12
        a2          2
        b1          4
        b2          7


 Forming initial guess at       0.0s


      Superposition of Atomic Density Guess
      -------------------------------------

 Sum of atomic energies:         -38.65671923

      Non-variational initial energy
      ------------------------------

 Total energy =     -38.727900
 1-e energy   =     -63.248890
 2-e energy   =      18.376692
 HOMO         =      -0.180141
 LUMO         =      -0.124185


      Symmetry analysis of molecular orbitals - initial
      -------------------------------------------------

  Numbering of irreducible representations: 

     1 a1          2 a2          3 b1          4 b2      

  Orbital symmetries:

     1 a1          2 a1          3 b2          4 a1          5 b1      
     6 a1          7 b2          8 a1          9 b1         10 b2      
    11 a1         12 a1         13 b2         14 a2      


 Starting SCF solution at       0.1s



 ----------------------------------------------
         Quadratically convergent ROHF

 Convergence threshold     :          1.000E-04
 Maximum no. of iterations :           30
 Final Fock-matrix accuracy:          1.000E-07
 ----------------------------------------------


 #quartets = 1.953D+03 #integrals = 1.805D+04 #direct =  0.0% #cached =100.0%


 Integral file          = ./ch2.aoints.0
 Record size in doubles =  65536        No. of integs per rec  =  43688
 Max. records in memory =      2        Max. records in file   = 161636
 No. of bits per label  =      8        No. of bits per value  =     64


File balance: exchanges=     0  moved=     0  time=   0.0


              iter       energy          gnorm     gmax       time
             ----- ------------------- --------- --------- --------
                 1      -38.8460880160  3.53D-01  1.86D-01      0.2
                 2      -38.8564362777  8.19D-02  5.26D-02      0.2
                 3      -38.8571529468  5.12D-03  3.63D-03      0.2
                 4      -38.8571600531  9.47D-06  4.49D-06      0.2


       Final RHF  results 
       ------------------ 

         Total SCF energy =    -38.857160053059
      One-electron energy =    -63.826728671987
      Two-electron energy =     18.825270370042
 Nuclear repulsion energy =      6.144298248886

        Time for solution =      0.1s



       Symmetry analysis of molecular orbitals - final
       -----------------------------------------------

  Numbering of irreducible representations: 

     1 a1          2 a2          3 b1          4 b2      

  Orbital symmetries:

     1 a1          2 a1          3 b2          4 a1          5 b1      
     6 a1          7 b2          8 a1          9 b2         10 b1      
    11 a1         12 a1         13 b2         14 a2      

             Final eigenvalues
             -----------------

              1      
    1  -11.2654
    2   -0.8724
    3   -0.6102
    4   -0.3401
    5    0.0793
    6    0.2565
    7    0.3360
    8    0.7515
    9    0.7908
   10    0.8161
   11    0.8371
   12    1.1319
   13    1.1867
   14    1.6900

                       ROHF Final Molecular Orbital Analysis
                       -------------------------------------

 Vector    2  Occ=2.000000D+00  E=-8.724245D-01  Symmetry=a1
              MO Center=  5.5D-17, -2.3D-16, -1.4D-01, r^2= 9.2D-01
   Bfn.  Coefficient  Atom+Function         Bfn.  Coefficient  Atom+Function  
  ----- ------------  ---------------      ----- ------------  ---------------
     2      0.392849  1 C  s                  6      0.364542  1 C  s          
     1     -0.195246  1 C  s                 16      0.186943  2 H  s          
    21      0.186943  3 H  s          

 Vector    3  Occ=2.000000D+00  E=-6.102072D-01  Symmetry=b2
              MO Center= -2.5D-20,  1.1D-16, -1.3D-01, r^2= 1.2D+00
   Bfn.  Coefficient  Atom+Function         Bfn.  Coefficient  Atom+Function  
  ----- ------------  ---------------      ----- ------------  ---------------
     4      0.443763  1 C  py                16      0.252273  2 H  s          
    21     -0.252273  3 H  s                 17      0.209539  2 H  s          
    22     -0.209539  3 H  s                  8      0.150281  1 C  py         

 Vector    4  Occ=2.000000D+00  E=-3.400570D-01  Symmetry=a1
              MO Center= -1.6D-17,  3.2D-17,  3.4D-01, r^2= 1.1D+00
   Bfn.  Coefficient  Atom+Function         Bfn.  Coefficient  Atom+Function  
  ----- ------------  ---------------      ----- ------------  ---------------
     5      0.527619  1 C  pz                 9      0.458479  1 C  pz         
     6      0.352434  1 C  s                  2      0.151403  1 C  s          

 Vector    5  Occ=0.000000D+00  E= 7.927197D-02  Symmetry=b1
              MO Center=  6.3D-16,  6.6D-17,  9.3D-02, r^2= 1.4D+00
   Bfn.  Coefficient  Atom+Function         Bfn.  Coefficient  Atom+Function  
  ----- ------------  ---------------      ----- ------------  ---------------
     7      0.688059  1 C  px                 3      0.424778  1 C  px         

 Vector    6  Occ=0.000000D+00  E= 2.565378D-01  Symmetry=a1
              MO Center= -1.5D-18, -1.2D-17, -3.4D-01, r^2= 3.2D+00
   Bfn.  Coefficient  Atom+Function         Bfn.  Coefficient  Atom+Function  
  ----- ------------  ---------------      ----- ------------  ---------------
     6      1.939403  1 C  s                 17     -1.409559  2 H  s          
    22     -1.409559  3 H  s                  9     -0.624618  1 C  pz         
     5     -0.175346  1 C  pz         

 Vector    7  Occ=0.000000D+00  E= 3.360085D-01  Symmetry=b2
              MO Center=  1.5D-31, -6.4D-16, -4.6D-01, r^2= 3.3D+00
   Bfn.  Coefficient  Atom+Function         Bfn.  Coefficient  Atom+Function  
  ----- ------------  ---------------      ----- ------------  ---------------
    17      1.845094  2 H  s                 22     -1.845094  3 H  s          
     8     -1.640487  1 C  py                 4     -0.366229  1 C  py         

 Vector    8  Occ=0.000000D+00  E= 7.515220D-01  Symmetry=a1
              MO Center= -8.9D-16, -7.4D-17, -4.7D-01, r^2= 1.6D+00
   Bfn.  Coefficient  Atom+Function         Bfn.  Coefficient  Atom+Function  
  ----- ------------  ---------------      ----- ------------  ---------------
     6      1.158372  1 C  s                  9     -1.077085  1 C  pz         
     5      0.729899  1 C  pz                 2     -0.458234  1 C  s          
    16     -0.448058  2 H  s                 21     -0.448058  3 H  s          

 Vector    9  Occ=0.000000D+00  E= 7.907569D-01  Symmetry=b2
              MO Center= -2.0D-32,  2.7D-16,  4.6D-01, r^2= 1.9D+00
   Bfn.  Coefficient  Atom+Function         Bfn.  Coefficient  Atom+Function  
  ----- ------------  ---------------      ----- ------------  ---------------
     8      2.077857  1 C  py                17     -0.750473  2 H  s          
    22      0.750473  3 H  s                  4     -0.702365  1 C  py         
    16     -0.414828  2 H  s                 21      0.414828  3 H  s          
    14      0.151919  1 C  dyz        

 Vector   10  Occ=0.000000D+00  E= 8.161127D-01  Symmetry=b1
              MO Center= -2.2D-15, -6.6D-17,  1.1D-01, r^2= 1.5D+00
   Bfn.  Coefficient  Atom+Function         Bfn.  Coefficient  Atom+Function  
  ----- ------------  ---------------      ----- ------------  ---------------
     3      1.135094  1 C  px                 7     -1.008874  1 C  px         

 Vector   11  Occ=0.000000D+00  E= 8.371378D-01  Symmetry=a1
              MO Center=  2.3D-15, -8.9D-17,  5.5D-01, r^2= 1.5D+00
   Bfn.  Coefficient  Atom+Function         Bfn.  Coefficient  Atom+Function  
  ----- ------------  ---------------      ----- ------------  ---------------
     6      1.357659  1 C  s                  2     -0.838311  1 C  s          
     5     -0.717669  1 C  pz                 9      0.518677  1 C  pz         
    16     -0.372780  2 H  s                 21     -0.372780  3 H  s          
    13     -0.239685  1 C  dyy        

 Vector   12  Occ=0.000000D+00  E= 1.131910D+00  Symmetry=a1
              MO Center=  1.2D-16,  2.6D-16, -2.6D-01, r^2= 2.2D+00
   Bfn.  Coefficient  Atom+Function         Bfn.  Coefficient  Atom+Function  
  ----- ------------  ---------------      ----- ------------  ---------------
     6      2.899800  1 C  s                  2     -1.433046  1 C  s          
    17     -1.386868  2 H  s                 22     -1.386868  3 H  s          
     9     -0.582461  1 C  pz                16      0.547463  2 H  s          
    21      0.547463  3 H  s                  5      0.292821  1 C  pz         
    10     -0.183005  1 C  dxx        

 Vector   13  Occ=0.000000D+00  E= 1.186686D+00  Symmetry=b2
              MO Center= -2.8D-31, -3.0D-16, -2.4D-01, r^2= 1.9D+00
   Bfn.  Coefficient  Atom+Function         Bfn.  Coefficient  Atom+Function  
  ----- ------------  ---------------      ----- ------------  ---------------
    17      1.319272  2 H  s                 22     -1.319272  3 H  s          
     8     -1.196287  1 C  py                 4      0.806101  1 C  py         
    16     -0.720404  2 H  s                 21      0.720404  3 H  s          
    14      0.426684  1 C  dyz        

 Vector   14  Occ=0.000000D+00  E= 1.690036D+00  Symmetry=a2
              MO Center=  7.4D-18, -6.2D-16, -6.3D-02, r^2= 8.7D-01
   Bfn.  Coefficient  Atom+Function         Bfn.  Coefficient  Atom+Function  
  ----- ------------  ---------------      ----- ------------  ---------------
    11      1.214927  1 C  dxy               18      0.348102  2 H  px         
    23     -0.348102  3 H  px         


 center of mass
 --------------
 x =   0.00000000 y =   0.00000000 z =   0.08707233

 moments of inertia (a.u.)
 ------------------
           8.208934794283           0.000000000000           0.000000000000
           0.000000000000           1.160408309283           0.000000000000
           0.000000000000           0.000000000000           7.048526485000

  Mulliken analysis of the total density
  --------------------------------------

    Atom       Charge   Shell Charges
 -----------   ------   -------------------------------------------------------
    1 C    6     6.27   2.00  0.75  1.65  0.83  1.05  0.00
    2 H    1     0.86   0.53  0.32  0.02
    3 H    1     0.86   0.53  0.32  0.02

       Multipole analysis of the density wrt the origin
       ------------------------------------------------

     L   x y z        total         open         nuclear
     -   - - -        -----         ----         -------
     0   0 0 0     -0.000000      0.000000      8.000000

     1   1 0 0     -0.000000      0.000000      0.000000
     1   0 1 0     -0.000000      0.000000      0.000000
     1   0 0 1     -0.706262      0.000000      0.000000

     2   2 0 0     -4.484302      0.000000      0.000000
     2   1 1 0      0.000000      0.000000      0.000000
     2   1 0 1      0.000000      0.000000      0.000000
     2   0 2 0     -4.388039      0.000000      6.993800
     2   0 1 1     -0.000000      0.000000      0.000000
     2   0 0 2     -7.289200      0.000000      1.008600


 Parallel integral file used       4 records with       0 large values


 Task  times  cpu:        0.1s     wall:        0.1s


                                NWChem Input Module
                                -------------------




                           NWChem Geometry Optimization
                           ----------------------------




              CASSCF for CH2 1A1 - 3B1 splitting at the 3B1 geometry


  no constraints, skipping    0.0000000000000000     
 maximum gradient threshold         (gmax) =   0.000450
 rms gradient threshold             (grms) =   0.000300
 maximum cartesian step threshold   (xmax) =   0.001800
 rms cartesian step threshold       (xrms) =   0.001200
 fixed trust radius                (trust) =   0.300000
 maximum step size to saddle      (sadstp) =   0.100000
 energy precision                  (eprec) =   1.0D-07
 maximum number of steps          (nptopt) =   20
 initial hessian option           (inhess) =    0
 line search option               (linopt) =    1
 hessian update option            (modupd) =    1
 saddle point option              (modsad) =    0
 initial eigen-mode to follow     (moddir) =    0
 initial variable to follow       (vardir) =    0
 follow first negative mode     (firstneg) =    T
 apply conjugacy                    (opcg) =    F
 source of zmatrix                         =   autoz   


          -------------------
          Energy Minimization
          -------------------


 Names of Z-matrix variables 
    1              2              3         

 Variables with the same non-blank name are constrained to be equal


 Using diagonal initial Hessian 
 Scaling for Hessian diagonals: bonds = 1.00  angles = 0.25  torsions = 0.10

          --------
          Step   0
          --------


                         Geometry "geometry" -> "geometry"
                         ---------------------------------

 Output coordinates in a.u. (scale by  1.000000000 to convert to a.u.)

  No.       Tag          Charge          X              Y              Z
 ---- ---------------- ---------- -------------- -------------- --------------
    1 C                    6.0000     0.00000000     0.00000000     0.20500000
    2 H                    1.0000     0.00000000     1.87000000    -0.61500000
    3 H                    1.0000     0.00000000    -1.87000000    -0.61500000

      Atomic Mass 
      ----------- 

      C                 12.000000
      H                  1.007825


 Effective nuclear repulsion energy (a.u.)       6.1442982489

            Nuclear Dipole moment (a.u.) 
            ----------------------------
        X                 Y               Z
 ---------------- ---------------- ----------------
     0.0000000000     0.0000000000     0.0000000000

      Symmetry information
      --------------------

 Group name             C2v       
 Group number             16
 Group order               4
 No. of unique centers     2

      Symmetry unique atoms

     1    2


                            NWChem Direct MCSCF Module
                            --------------------------


              CASSCF for CH2 1A1 - 3B1 splitting at the 3B1 geometry


     -----------------------------------
       Basis functions:             25
       Inactive shells:              1
       Active shells:                6
       Active electrons:             6
       Symmetry:                    b1      
       Multiplicity:                 3
       Orbital rotations:          132
     -----------------------------------

     -----------------------------------
       E2 extrapolation:             F
       Conjugacy:                    T
       Micro CI relax:               T
       Canonical orbitals:           T
       Maximum iterations:          20
       Converge threshold:    1.00E-04
       Conjugacy resets:            20
       Initial levelshift:        0.10
     -----------------------------------

 Loading old vectors from job with title :

CASSCF for CH2 1A1 - 3B1 splitting at the 3B1 geometry


   input molecular orbitals = ./ch2.movecs
  output molecular orbtials = ./ch2.movecs

       No. of determinants:           225


  Starting Orbital Energies
   -11.265405    -0.872424    -0.340057     0.256538     0.079272    -0.610207
     0.336008     0.751522     0.790757     0.816113     0.837138     1.131910
     1.186686     1.690036     1.894023     1.922318     2.102858     2.272006
     2.605489     2.756986     2.885602     2.928108     3.685357     3.777785
     4.633487

  Orbital Symmetry Irreps
a1   a1   a1   a1   b1   b2   b2   a1   b2   b1   a1   a1   b2   a2   a1  
b1   b2   a1   b1   b2   a1   a2   b2   a1   a1  
  !! warning: moints 2x:                     3  MO vectors were symmetry contaminated

 #quartets = 1.953D+03 #integrals = 1.805D+04 #direct =  0.0% #cached =100.0%


 Integral file          = ./ch2.aoints.0
 Record size in doubles =  65536        No. of integs per rec  =  43688
 Max. records in memory =      2        Max. records in file   = 161636
 No. of bits per label  =      8        No. of bits per value  =     64


File balance: exchanges=     0  moved=     0  time=   0.0




          %%%%% MacroIteration   1 %%%%%


          Number of sigma calls:        9
                       o<<<<< (aa):             0.00
                       o<<<<< (bb):             0.00
                       o<<<<< (ab):             0.00
                       o<<<<< (total)           0.00
                       o<<<<< (aa) ff           0.00
                       o<<<<< (aa) gop          0.00
                       o<<<<< (aa) dot          0.00
                       o<<<<< (ab) str          0.00
                       o<<<<< (ab) gath         0.00
                       o<<<<< (ab) dotab        0.00
                       o<<<<< (ab) scat         0.00
                       o<<<<< (ab) sync         0.00
                       o<<<<< Density           0.00
                       o<<<<< Density one       0.00
                       o<<<<< Density two       0.00
                       o<<<<< Density ab        0.00
                       o<<<<< Spin adapt        0.00
                       o<<<<< Symm adapt        0.00

                       o<<<<< (ab) max sync:      0.00

           >>>| Valence CI:            -10.734214486574
           >>>| MCSCF energy:          -38.905378796532
           >>>| Gradient norm:          0.346415405D+00

                              ----- Line search ------

        step       energy         lsg     num-lsg   num-lsh   lsrat    time
      ------- ---------------- --------- --------- --------- ------- --------
       0.0000     -38.90537880 -5.68D-02  0.00D+00  0.00D+00 0.0D+00      0.3
  !! warning: moints 2x:                     1  MO vectors were symmetry contaminated

          Number of sigma calls:       12
                       o<<<<< (aa):             0.00
                       o<<<<< (bb):             0.00
                       o<<<<< (ab):             0.00
                       o<<<<< (total)           0.01
                       o<<<<< (aa) ff           0.00
                       o<<<<< (aa) gop          0.00
                       o<<<<< (aa) dot          0.00
                       o<<<<< (ab) str          0.00
                       o<<<<< (ab) gath         0.00
                       o<<<<< (ab) dotab        0.00
                       o<<<<< (ab) scat         0.00
                       o<<<<< (ab) sync         0.00
                       o<<<<< Density           0.00
                       o<<<<< Density one       0.00
                       o<<<<< Density two       0.00
                       o<<<<< Density ab        0.00
                       o<<<<< Spin adapt        0.00
                       o<<<<< Symm adapt        0.00

                       o<<<<< (ab) max sync:      0.00
       1.0000     -38.94107475 -1.37D-02 -1.41D-02  4.31D-02 2.4D-01      0.4
  !! warning: moints 2x:                     2  MO vectors were symmetry contaminated

          Number of sigma calls:       11
                       o<<<<< (aa):             0.00
                       o<<<<< (bb):             0.00
                       o<<<<< (ab):             0.00
                       o<<<<< (total)           0.01
                       o<<<<< (aa) ff           0.00
                       o<<<<< (aa) gop          0.00
                       o<<<<< (aa) dot          0.00
                       o<<<<< (ab) str          0.00
                       o<<<<< (ab) gath         0.00
                       o<<<<< (ab) dotab        0.00
                       o<<<<< (ab) scat         0.00
                       o<<<<< (ab) sync         0.00
                       o<<<<< Density           0.00
                       o<<<<< Density one       0.00
                       o<<<<< Density two       0.00
                       o<<<<< Density ab        0.00
                       o<<<<< Spin adapt        0.00
                       o<<<<< Symm adapt        0.00

                       o<<<<< (ab) max sync:      0.00
       1.3169     -38.94305414  1.26D-03  1.21D-03  4.71D-02 2.2D-02      0.4
[0] ARMCI Error: 0:ga_diag_std_seq: dsyev failed:
--------------------------------------------------------------------------
MPI_ABORT was invoked on rank 0 in communicator MPI COMMUNICATOR 3 DUP FROM 0
with errorcode 0.

NOTE: invoking MPI_ABORT causes Open MPI to kill all MPI processes.
You may or may not see output from other processes, depending on
exactly when Open MPI kills them.
--------------------------------------------------------------------------
