 argument  1 = /home/list1234/source/nwchem-6.8.1-release/QA/tests/acr-camb3lyp-direct/acr-camb3lyp-direct.nw



============================== echo of input deck ==============================
echo
start

geometry units bohr
C         -3.4889915040            0.0757243564            0.0000000000
C         -1.1660674990           -0.8921396346            0.0000000000
C          1.0745076249            0.7531195619            0.0000000000
O          3.2306456355           -0.0048697519            0.0000000000
H         -5.1598072439           -1.1007803728            0.0000000000
H         -3.7843301456            2.1030589485            0.0000000000
H         -0.8202431053           -2.9101405740            0.0000000000
H          0.6573804135            2.8079130427            0.0000000000
end

basis spherical
 * library "cc-pVTZ"
end

#basis "cd basis"
#*  library "DGauss A2 DFT Coulomb Fitting"
#end

set int:cando_txs f

dft
 xc xcamb88 1.00 lyp 0.81 vwn_5 0.19 hfexch 1.00
 cam 0.33 cam_alpha 0.19 cam_beta 0.81
 direct
# odft
# mult 1
end
#task dft energy

#property
# center com
# dipole
#end
#task dft property

tddft
 nroots 5
 notriplet
 algorithm 3
end
task tddft energy
================================================================================


                                         
                                         


              Northwest Computational Chemistry Package (NWChem) 6.8
              ------------------------------------------------------


                    Environmental Molecular Sciences Laboratory
                       Pacific Northwest National Laboratory
                                Richland, WA 99352

                              Copyright (c) 1994-2018
                       Pacific Northwest National Laboratory
                            Battelle Memorial Institute

             NWChem is an open-source computational chemistry package
                        distributed under the terms of the
                      Educational Community License (ECL) 2.0
             A copy of the license is included with this distribution
                              in the LICENSE.TXT file

                                  ACKNOWLEDGMENT
                                  --------------

            This software and its documentation were developed at the
            EMSL at Pacific Northwest National Laboratory, a multiprogram
            national laboratory, operated for the U.S. Department of Energy
            by Battelle under Contract Number DE-AC05-76RL01830. Support
            for this work was provided by the Department of Energy Office
            of Biological and Environmental Research, Office of Basic
            Energy Sciences, and the Office of Advanced Scientific Computing.


           Job information
           ---------------

    hostname        = list1234-B360M-H
    program         = /home/list1234/source/nwchem-6.8.1-release/bin/LINUX64/nwchem
    date            = Sun Jun 30 13:41:04 2019

    compiled        = Sun_Jun_30_11:55:59_2019
    source          = /home/list1234/source/nwchem-6.8.1-release
    nwchem branch   = Development
    nwchem revision = N/A
    ga revision     = 5.6.5
    use scalapack   = T
    input           = /home/list1234/source/nwchem-6.8.1-release/QA/tests/acr-camb3lyp-direct/acr-camb3lyp-direct.nw
    prefix          = acr-camb3lyp-direct.
    data base       = ./acr-camb3lyp-direct.db
    status          = startup
    nproc           =        4
    time left       =     -1s



           Memory information
           ------------------

    heap     =   86247168 doubles =    658.0 Mbytes
    stack    =   86247165 doubles =    658.0 Mbytes
    global   =  172494336 doubles =   1316.0 Mbytes (distinct from heap & stack)
    total    =  344988669 doubles =   2632.1 Mbytes
    verify   = yes
    hardfail = no 


           Directory information
           ---------------------

  0 permanent = .
  0 scratch   = .




                                NWChem Input Module
                                -------------------


 CS  symmetry detected

          ------
          auto-z
          ------
  no constraints, skipping    0.0000000000000000     
  no constraints, skipping    0.0000000000000000     


                             Geometry "geometry" -> ""
                             -------------------------

 Output coordinates in a.u. (scale by  1.000000000 to convert to a.u.)

  No.       Tag          Charge          X              Y              Z
 ---- ---------------- ---------- -------------- -------------- --------------
    1 C                    6.0000     0.25763286     3.32137763     0.00000000
    2 C                    6.0000    -0.84664484     1.06011528     0.00000000
    3 C                    6.0000     0.66247352    -1.27432608     0.00000000
    4 O                    8.0000    -0.22238340    -3.38157718     0.00000000
    5 H                    1.0000    -0.81743964     5.05919457     0.00000000
    6 H                    1.0000     2.29894170     3.49564380     0.00000000
    7 H                    1.0000    -2.88163854     0.83489769     0.00000000
    8 H                    1.0000     2.73843448    -0.98011961     0.00000000

      Atomic Mass 
      ----------- 

      C                 12.000000
      O                 15.994910
      H                  1.007825


 Effective nuclear repulsion energy (a.u.)     103.2460005257

            Nuclear Dipole moment (a.u.) 
            ----------------------------
        X                 Y               Z
 ---------------- ---------------- ----------------
     0.0000000000    -0.0000000000     0.0000000000

      Symmetry information
      --------------------

 Group name             Cs        
 Group number              2
 Group order               2
 No. of unique centers     8

      Symmetry unique atoms

     1    2    3    4    5    6    7    8



                                Z-matrix (autoz)
                                -------- 

 Units are Angstrom for bonds and degrees for angles

      Type          Name      I     J     K     L     M      Value
      ----------- --------  ----- ----- ----- ----- ----- ----------
    1 Stretch                  1     2                       1.33167
    2 Stretch                  1     5                       1.08136
    3 Stretch                  1     6                       1.08414
    4 Stretch                  2     3                       1.47098
    5 Stretch                  2     7                       1.08345
    6 Stretch                  3     4                       1.20943
    7 Stretch                  3     8                       1.10953
    8 Bend                     1     2     3               121.09066
    9 Bend                     1     2     7               122.34373
   10 Bend                     2     1     5               122.22929
   11 Bend                     2     1     6               120.90787
   12 Bend                     2     3     4               124.34098
   13 Bend                     2     3     8               114.81470
   14 Bend                     3     2     7               116.56561
   15 Bend                     4     3     8               120.84432
   16 Bend                     5     1     6               116.86284
   17 Torsion                  1     2     3     4         180.00000
   18 Torsion                  1     2     3     8           0.00000
   19 Torsion                  3     2     1     5         180.00000
   20 Torsion                  3     2     1     6           0.00000
   21 Torsion                  4     3     2     7           0.00000
   22 Torsion                  5     1     2     7           0.00000
   23 Torsion                  6     1     2     7         180.00000
   24 Torsion                  7     2     3     8         180.00000


            XYZ format geometry
            -------------------
     8
 geometry
 C                     0.13633345     1.75759748     0.00000000
 C                    -0.44802519     0.56098889     0.00000000
 C                     0.35056591    -0.67434437     0.00000000
 O                    -0.11768024    -1.78945371     0.00000000
 H                    -0.43257046     2.67721067     0.00000000
 H                     1.21654764     1.84981517     0.00000000
 H                    -1.52489755     0.44180886     0.00000000
 H                     1.44911722    -0.51865700     0.00000000

 ==============================================================================
                                internuclear distances
 ------------------------------------------------------------------------------
       center one      |      center two      | atomic units |       a.u.
 ------------------------------------------------------------------------------
    2 C                |   1 C                |     2.51649  |     2.51649
    3 C                |   2 C                |     2.77976  |     2.77976
    4 O                |   3 C                |     2.28549  |     2.28549
    5 H                |   1 C                |     2.04347  |     2.04347
    6 H                |   1 C                |     2.04873  |     2.04873
    7 H                |   2 C                |     2.04742  |     2.04742
    8 H                |   3 C                |     2.09670  |     2.09670
 ------------------------------------------------------------------------------
                         number of included internuclear distances:          7
 ==============================================================================



 ==============================================================================
                                 internuclear angles
 ------------------------------------------------------------------------------
        center 1       |       center 2       |       center 3       |  degrees
 ------------------------------------------------------------------------------
    2 C                |   1 C                |   5 H                |   122.23
    2 C                |   1 C                |   6 H                |   120.91
    5 H                |   1 C                |   6 H                |   116.86
    1 C                |   2 C                |   3 C                |   121.09
    1 C                |   2 C                |   7 H                |   122.34
    3 C                |   2 C                |   7 H                |   116.57
    2 C                |   3 C                |   4 O                |   124.34
    2 C                |   3 C                |   8 H                |   114.81
    4 O                |   3 C                |   8 H                |   120.84
 ------------------------------------------------------------------------------
                            number of included internuclear angles:          9
 ==============================================================================





 Summary of "ao basis" -> "" (spherical)
 ------------------------------------------------------------------------------
       Tag                 Description            Shells   Functions and Types
 ---------------- ------------------------------  ------  ---------------------
 *                          cc-pVTZ                   on all atoms 



                                 NWChem DFT Module
                                 -----------------


                      Basis "ao basis" -> "ao basis" (spherical)
                      -----
  C (Carbon)
  ----------
            Exponent  Coefficients 
       -------------- ---------------------------------------------------------
  1 S  8.23600000E+03  0.000531
  1 S  1.23500000E+03  0.004108
  1 S  2.80800000E+02  0.021087
  1 S  7.92700000E+01  0.081853
  1 S  2.55900000E+01  0.234817
  1 S  8.99700000E+00  0.434401
  1 S  3.31900000E+00  0.346129
  1 S  3.64300000E-01 -0.008983

  2 S  8.23600000E+03 -0.000113
  2 S  1.23500000E+03 -0.000878
  2 S  2.80800000E+02 -0.004540
  2 S  7.92700000E+01 -0.018133
  2 S  2.55900000E+01 -0.055760
  2 S  8.99700000E+00 -0.126895
  2 S  3.31900000E+00 -0.170352
  2 S  3.64300000E-01  0.598684

  3 S  9.05900000E-01  1.000000

  4 S  1.28500000E-01  1.000000

  5 P  1.87100000E+01  0.014031
  5 P  4.13300000E+00  0.086866
  5 P  1.20000000E+00  0.290216

  6 P  3.82700000E-01  1.000000

  7 P  1.20900000E-01  1.000000

  8 D  1.09700000E+00  1.000000

  9 D  3.18000000E-01  1.000000

 10 F  7.61000000E-01  1.000000

  O (Oxygen)
  ----------
            Exponent  Coefficients 
       -------------- ---------------------------------------------------------
  1 S  1.53300000E+04  0.000508
  1 S  2.29900000E+03  0.003929
  1 S  5.22400000E+02  0.020243
  1 S  1.47300000E+02  0.079181
  1 S  4.75500000E+01  0.230687
  1 S  1.67600000E+01  0.433118
  1 S  6.20700000E+00  0.350260
  1 S  6.88200000E-01 -0.008154

  2 S  1.53300000E+04 -0.000115
  2 S  2.29900000E+03 -0.000895
  2 S  5.22400000E+02 -0.004636
  2 S  1.47300000E+02 -0.018724
  2 S  4.75500000E+01 -0.058463
  2 S  1.67600000E+01 -0.136463
  2 S  6.20700000E+00 -0.175740
  2 S  6.88200000E-01  0.603418

  3 S  1.75200000E+00  1.000000

  4 S  2.38400000E-01  1.000000

  5 P  3.44600000E+01  0.015928
  5 P  7.74900000E+00  0.099740
  5 P  2.28000000E+00  0.310492

  6 P  7.15600000E-01  1.000000

  7 P  2.14000000E-01  1.000000

  8 D  2.31400000E+00  1.000000

  9 D  6.45000000E-01  1.000000

 10 F  1.42800000E+00  1.000000

  H (Hydrogen)
  ------------
            Exponent  Coefficients 
       -------------- ---------------------------------------------------------
  1 S  3.38700000E+01  0.006068
  1 S  5.09500000E+00  0.045308
  1 S  1.15900000E+00  0.202822

  2 S  3.25800000E-01  1.000000

  3 S  1.02700000E-01  1.000000

  4 P  1.40700000E+00  1.000000

  5 P  3.88000000E-01  1.000000

  6 D  1.05700000E+00  1.000000



 Summary of "ao basis" -> "ao basis" (spherical)
 ------------------------------------------------------------------------------
       Tag                 Description            Shells   Functions and Types
 ---------------- ------------------------------  ------  ---------------------
 C                          cc-pVTZ                 10       30   4s3p2d1f
 O                          cc-pVTZ                 10       30   4s3p2d1f
 H                          cc-pVTZ                  6       14   3s2p1d




 Summary of "ao basis" -> "ao basis" (spherical)
 ------------------------------------------------------------------------------
       Tag                 Description            Shells   Functions and Types
 ---------------- ------------------------------  ------  ---------------------
 C                          cc-pVTZ                 10       30   4s3p2d1f
 O                          cc-pVTZ                 10       30   4s3p2d1f
 H                          cc-pVTZ                  6       14   3s2p1d


      Symmetry analysis of basis
      --------------------------

        a'        120
        a"         56

  int_init: cando_txs set to always be  F
  Caching 1-el integrals 

            General Information
            -------------------
          SCF calculation type: DFT
          Wavefunction type:  closed shell.
          No. of atoms     :     8
          No. of electrons :    30
           Alpha electrons :    15
            Beta electrons :    15
          Charge           :     0
          Spin multiplicity:     1
          Use of symmetry is: off; symmetry adaption is: on 
          Maximum number of iterations:  30
          This is a Direct SCF calculation.
          AO basis - number of functions:   176
                     number of shells:    64
          Convergence on energy requested:  1.00D-06
          Convergence on density requested:  1.00D-05
          Convergence on gradient requested:  5.00D-04

              XC Information
              --------------
                     Hartree-Fock (Exact) Exchange  1.000          
                   CAM-Becke88 Exchange Functional  1.000          
                      VWN V Correlation Functional  0.190 local    
              Lee-Yang-Parr Correlation Functional  0.810          

           Range-Separation Parameters        
           ---------------------------
           Alpha           :  0.19
           Beta            :  0.81
           Gamma           :  0.33
           Short-Range HF  :     F

             Grid Information
             ----------------
          Grid used for XC integration:  medium    
          Radial quadrature: Mura-Knowles        
          Angular quadrature: Lebedev. 
          Tag              B.-S. Rad. Rad. Pts. Rad. Cut. Ang. Pts.
          ---              ---------- --------- --------- ---------
          C                   0.70       49          10.0       434
          O                   0.60       49          12.0       434
          H                   0.35       45          11.0       434
          Grid pruning is: on 
          Number of quadrature shells:   376
          Spatial weights used:  Erf1

          Convergence Information
          -----------------------
          Convergence aids based upon iterative change in 
          total energy or number of iterations. 
          Levelshifting, if invoked, occurs when the 
          HOMO/LUMO gap drops below (HL_TOL):  1.00D-02
          DIIS, if invoked, will attempt to extrapolate 
          using up to (NFOCK): 10 stored Fock matrices.

                    Damping( 0%)  Levelshifting(0.5)       DIIS
                  --------------- ------------------- ---------------
          dE  on:    start            ASAP                start   
          dE off:    2 iters         30 iters            30 iters 


      Screening Tolerance Information
      -------------------------------
          Density screening/tol_rho:  1.00D-10
          AO Gaussian exp screening on grid/accAOfunc:  14
          CD Gaussian exp screening on grid/accCDfunc:  20
          XC Gaussian exp screening on grid/accXCfunc:  20
          Schwarz screening/accCoul:  1.00D-08


      Superposition of Atomic Density Guess
      -------------------------------------

 Sum of atomic energies:        -189.79139657

      Non-variational initial energy
      ------------------------------

 Total energy =    -191.883326
 1-e energy   =    -460.506602
 2-e energy   =     165.377275
 HOMO         =      -0.333757
 LUMO         =      -0.082552


      Symmetry analysis of molecular orbitals - initial
      -------------------------------------------------

  Numbering of irreducible representations: 

     1 a'          2 a"      

  Orbital symmetries:

     1 a'          2 a'          3 a'          4 a'          5 a'      
     6 a'          7 a'          8 a'          9 a'         10 a'      
    11 a"         12 a'         13 a'         14 a"         15 a'      
    16 a"         17 a"         18 a'         19 a'         20 a'      
    21 a'         22 a'         23 a'         24 a'         25 a"      

   Time after variat. SCF:      0.6
   Time prior to 1st pass:      0.6

 Grid_pts file          = ./acr-camb3lyp-direct.gridpts.0
 Record size in doubles =  12289        No. of grid_pts per rec  =   3070
 Max. records in memory =     16        Max. recs in file   =    862064


           Memory utilization after 1st SCF pass: 
           Heap Space remaining (MW):       86.05            86048992
          Stack Space remaining (MW):       86.25            86246060

   convergence    iter        energy       DeltaE   RMS-Dens  Diis-err    time
 ---------------- ----- ----------------- --------- --------- ---------  ------
 d= 0,ls=0.0,diis     1   -191.6344687607 -2.95D+02  7.71D-03  1.07D+00     9.7
 d= 0,ls=0.0,diis     2   -191.6237872898  1.07D-02  4.38D-03  1.44D+00    18.8
 d= 0,ls=0.0,diis     3   -191.7438316709 -1.20D-01  5.57D-04  2.91D-02    28.9
 d= 0,ls=0.0,diis     4   -191.7466293754 -2.80D-03  2.29D-04  1.42D-03    38.9
 d= 0,ls=0.0,diis     5   -191.7468325690 -2.03D-04  1.01D-04  1.44D-04    48.9
  Resetting Diis
 d= 0,ls=0.0,diis     6   -191.7468673622 -3.48D-05  4.07D-05  2.56D-05    59.0
 d= 0,ls=0.0,diis     7   -191.7468722865 -4.92D-06  2.65D-05  5.14D-06    69.1
 d= 0,ls=0.0,diis     8   -191.7468727244 -4.38D-07  5.37D-06  3.97D-06    79.1


         Total DFT energy =     -191.746872724390
      One electron energy =     -463.662968747865
           Coulomb energy =      194.724227080630
    Exchange-Corr. energy =      -26.054131582902
 Nuclear repulsion energy =      103.246000525747

 Numeric. integr. density =       30.000002874602

     Total iterative time =     78.6s



                  Occupations of the irreducible representations
                  ----------------------------------------------

                     irrep           alpha         beta
                     --------     --------     --------
                     a'               13.0         13.0
                     a"                2.0          2.0


                       DFT Final Molecular Orbital Analysis
                       ------------------------------------

 Vector    1  Occ=2.000000D+00  E=-1.926156D+01  Symmetry=a'
              MO Center= -1.2D-01, -1.8D+00, -4.0D-15, r^2= 1.5D-02
   Bfn.  Coefficient  Atom+Function         Bfn.  Coefficient  Atom+Function  
  ----- ------------  ---------------      ----- ------------  ---------------
    91      0.970819  4 O  s                 93      0.051402  4 O  s          

 Vector    2  Occ=2.000000D+00  E=-1.040292D+01  Symmetry=a'
              MO Center=  3.5D-01, -6.7D-01, -5.3D-15, r^2= 2.8D-02
   Bfn.  Coefficient  Atom+Function         Bfn.  Coefficient  Atom+Function  
  ----- ------------  ---------------      ----- ------------  ---------------
    61      0.978920  3 C  s                 63      0.051146  3 C  s          

 Vector    3  Occ=2.000000D+00  E=-1.034062D+01  Symmetry=a'
              MO Center=  1.3D-01,  1.8D+00,  5.8D-15, r^2= 3.3D-02
   Bfn.  Coefficient  Atom+Function         Bfn.  Coefficient  Atom+Function  
  ----- ------------  ---------------      ----- ------------  ---------------
     1      0.979224  1 C  s                  3      0.052320  1 C  s          
    31      0.051170  2 C  s          

 Vector    4  Occ=2.000000D+00  E=-1.033184D+01  Symmetry=a'
              MO Center= -4.5D-01,  5.6D-01,  1.4D-15, r^2= 3.3D-02
   Bfn.  Coefficient  Atom+Function         Bfn.  Coefficient  Atom+Function  
  ----- ------------  ---------------      ----- ------------  ---------------
    31      0.977721  2 C  s                  1     -0.053969  1 C  s          
    33      0.052175  2 C  s          

 Vector    5  Occ=2.000000D+00  E=-1.199218D+00  Symmetry=a'
              MO Center=  1.8D-02, -1.4D+00, -3.3D-13, r^2= 5.4D-01
   Bfn.  Coefficient  Atom+Function         Bfn.  Coefficient  Atom+Function  
  ----- ------------  ---------------      ----- ------------  ---------------
    92      0.437279  4 O  s                 62      0.246971  3 C  s          
    94      0.214849  4 O  s                 93      0.125967  4 O  s          
    99      0.098540  4 O  py                66     -0.096111  3 C  py         
    64      0.086155  3 C  s                 96      0.086371  4 O  py         
    69     -0.071070  3 C  py                63      0.062181  3 C  s          

 Vector    6  Occ=2.000000D+00  E=-9.596978D-01  Symmetry=a'
              MO Center= -8.6D-02,  8.9D-01,  1.6D-13, r^2= 1.4D+00
   Bfn.  Coefficient  Atom+Function         Bfn.  Coefficient  Atom+Function  
  ----- ------------  ---------------      ----- ------------  ---------------
    32      0.339849  2 C  s                  2      0.303192  1 C  s          
    34      0.125398  2 C  s                  4      0.123159  1 C  s          
    62      0.112553  3 C  s                 92     -0.096496  4 O  s          
    33      0.080347  2 C  s                 66      0.077805  3 C  py         
    69      0.073998  3 C  py                 3      0.073564  1 C  s          

 Vector    7  Occ=2.000000D+00  E=-7.924508D-01  Symmetry=a'
              MO Center=  1.2D-01,  6.3D-01, -4.7D-13, r^2= 2.6D+00
   Bfn.  Coefficient  Atom+Function         Bfn.  Coefficient  Atom+Function  
  ----- ------------  ---------------      ----- ------------  ---------------
     2      0.293541  1 C  s                 62     -0.259564  3 C  s          
     4      0.182208  1 C  s                 92      0.162731  4 O  s          
    32     -0.128197  2 C  s                 94      0.125949  4 O  s          
    36      0.124640  2 C  py                39      0.122089  2 C  py         
    69     -0.105992  3 C  py                64     -0.100398  3 C  s          

 Vector    8  Occ=2.000000D+00  E=-7.154364D-01  Symmetry=a'
              MO Center=  1.1D-01,  1.7D-01, -7.6D-13, r^2= 2.6D+00
   Bfn.  Coefficient  Atom+Function         Bfn.  Coefficient  Atom+Function  
  ----- ------------  ---------------      ----- ------------  ---------------
    32      0.208954  2 C  s                 62     -0.190395  3 C  s          
    34      0.158475  2 C  s                164     -0.144292  8 H  s          
    68     -0.135453  3 C  px               150      0.134236  7 H  s          
    65     -0.129161  3 C  px                64     -0.117842  3 C  s          
   163     -0.108688  8 H  s                 35     -0.106524  2 C  px         

 Vector    9  Occ=2.000000D+00  E=-6.139865D-01  Symmetry=a'
              MO Center=  2.8D-01,  2.8D-01,  6.9D-13, r^2= 2.8D+00
   Bfn.  Coefficient  Atom+Function         Bfn.  Coefficient  Atom+Function  
  ----- ------------  ---------------      ----- ------------  ---------------
    68      0.191171  3 C  px                65      0.171115  3 C  px         
    39      0.161757  2 C  py                 8     -0.159569  1 C  px         
   136     -0.159649  6 H  s                  5     -0.158105  1 C  px         
    36      0.148424  2 C  py                98      0.144592  4 O  px         
    95      0.123378  4 O  px               164      0.116878  8 H  s          

 Vector   10  Occ=2.000000D+00  E=-6.100511D-01  Symmetry=a'
              MO Center= -1.9D-01,  3.3D-01,  2.1D-13, r^2= 4.1D+00
   Bfn.  Coefficient  Atom+Function         Bfn.  Coefficient  Atom+Function  
  ----- ------------  ---------------      ----- ------------  ---------------
     9      0.193203  1 C  py                99      0.193554  4 O  py         
     6      0.186517  1 C  py               122      0.172452  5 H  s          
    92     -0.171516  4 O  s                 96      0.169141  4 O  py         
    94     -0.140104  4 O  s                102      0.137709  4 O  py         
    38     -0.135550  2 C  px                62      0.130499  3 C  s          

 Vector   11  Occ=2.000000D+00  E=-5.515104D-01  Symmetry=a'
              MO Center= -6.5D-02, -5.1D-01,  5.8D-12, r^2= 3.4D+00
   Bfn.  Coefficient  Atom+Function         Bfn.  Coefficient  Atom+Function  
  ----- ------------  ---------------      ----- ------------  ---------------
    99      0.265038  4 O  py                96      0.229655  4 O  py         
   102      0.194287  4 O  py                 6     -0.154613  1 C  py         
     9     -0.155375  1 C  py                66     -0.154231  3 C  py         
    39      0.132406  2 C  py                69     -0.127726  3 C  py         
    92     -0.127319  4 O  s                164     -0.118721  8 H  s          

 Vector   12  Occ=2.000000D+00  E=-5.325952D-01  Symmetry=a"
              MO Center=  2.6D-02, -1.0D+00, -1.1D-12, r^2= 1.6D+00
   Bfn.  Coefficient  Atom+Function         Bfn.  Coefficient  Atom+Function  
  ----- ------------  ---------------      ----- ------------  ---------------
   100      0.298301  4 O  pz                97      0.251804  4 O  pz         
    70      0.244544  3 C  pz                67      0.200542  3 C  pz         
   103      0.200466  4 O  pz                73      0.137837  3 C  pz         
    40      0.120031  2 C  pz                37      0.096168  2 C  pz         
    10      0.073972  1 C  pz                 7      0.060047  1 C  pz         

 Vector   13  Occ=2.000000D+00  E=-5.165105D-01  Symmetry=a'
              MO Center= -1.6D-01,  1.0D+00, -4.0D-13, r^2= 2.8D+00
   Bfn.  Coefficient  Atom+Function         Bfn.  Coefficient  Atom+Function  
  ----- ------------  ---------------      ----- ------------  ---------------
     8      0.197135  1 C  px                 5      0.184014  1 C  px         
   136      0.184223  6 H  s                 38     -0.182188  2 C  px         
   150      0.172813  7 H  s                 35     -0.162566  2 C  px         
   122     -0.140389  5 H  s                149      0.129769  7 H  s          
   135      0.127275  6 H  s                 11      0.122914  1 C  px         

 Vector   14  Occ=2.000000D+00  E=-4.090520D-01  Symmetry=a"
              MO Center= -1.3D-01,  6.8D-01, -5.5D-13, r^2= 2.5D+00
   Bfn.  Coefficient  Atom+Function         Bfn.  Coefficient  Atom+Function  
  ----- ------------  ---------------      ----- ------------  ---------------
    10      0.256081  1 C  pz                40      0.253948  2 C  pz         
     7      0.209642  1 C  pz                37      0.203986  2 C  pz         
    13      0.199644  1 C  pz                43      0.183305  2 C  pz         
   100     -0.180368  4 O  pz                97     -0.154311  4 O  pz         
   103     -0.144633  4 O  pz                73     -0.043183  3 C  pz         

 Vector   15  Occ=2.000000D+00  E=-3.842437D-01  Symmetry=a'
              MO Center=  9.2D-02, -1.2D+00,  8.4D-13, r^2= 1.8D+00
   Bfn.  Coefficient  Atom+Function         Bfn.  Coefficient  Atom+Function  
  ----- ------------  ---------------      ----- ------------  ---------------
    34      0.420852  2 C  s                 98      0.351840  4 O  px         
   101      0.305305  4 O  px                95      0.300754  4 O  px         
   164     -0.194578  8 H  s                  4     -0.171654  1 C  s          
   165     -0.164565  8 H  s                 99     -0.147086  4 O  py         
    39     -0.142126  2 C  py                41      0.135117  2 C  px         

 Vector   16  Occ=0.000000D+00  E= 1.322006D-02  Symmetry=a"
              MO Center=  6.7D-02,  2.8D-01,  3.0D-11, r^2= 3.3D+00
   Bfn.  Coefficient  Atom+Function         Bfn.  Coefficient  Atom+Function  
  ----- ------------  ---------------      ----- ------------  ---------------
    13      0.461882  1 C  pz                43     -0.306763  2 C  pz         
   103      0.292459  4 O  pz                73     -0.257416  3 C  pz         
    10      0.241848  1 C  pz                70     -0.232792  3 C  pz         
   100      0.212688  4 O  pz                 7      0.203433  1 C  pz         
    97      0.188316  4 O  pz                67     -0.172276  3 C  pz         

 Vector   17  Occ=0.000000D+00  E= 1.140245D-01  Symmetry=a'
              MO Center=  8.6D-01,  1.9D+00, -2.1D-12, r^2= 6.0D+00
   Bfn.  Coefficient  Atom+Function         Bfn.  Coefficient  Atom+Function  
  ----- ------------  ---------------      ----- ------------  ---------------
     4      3.337615  1 C  s                137     -1.582869  6 H  s          
   123     -1.293518  5 H  s                 64      1.192630  3 C  s          
   165     -1.048873  8 H  s                 41     -0.870282  2 C  px         
    34     -0.700238  2 C  s                 71      0.631421  3 C  px         
   151     -0.566603  7 H  s                 42     -0.479527  2 C  py         

 Vector   18  Occ=0.000000D+00  E= 1.245883D-01  Symmetry=a'
              MO Center= -4.7D-01,  1.1D+00,  4.9D-11, r^2= 7.7D+00
   Bfn.  Coefficient  Atom+Function         Bfn.  Coefficient  Atom+Function  
  ----- ------------  ---------------      ----- ------------  ---------------
   151     -1.634225  7 H  s                 34      1.522570  2 C  s          
   123     -1.421997  5 H  s                 64     -1.292211  3 C  s          
   165      1.163792  8 H  s                137      0.921874  6 H  s          
    11     -0.763222  1 C  px                12      0.537957  1 C  py         
     4      0.524059  1 C  s                 42     -0.454810  2 C  py         

 Vector   19  Occ=0.000000D+00  E= 1.333654D-01  Symmetry=a"
              MO Center=  8.6D-02,  1.1D-01,  7.3D-11, r^2= 3.3D+00
   Bfn.  Coefficient  Atom+Function         Bfn.  Coefficient  Atom+Function  
  ----- ------------  ---------------      ----- ------------  ---------------
    43      0.842813  2 C  pz                73     -0.724709  3 C  pz         
    13     -0.618025  1 C  pz               103      0.358879  4 O  pz         
    70     -0.253165  3 C  pz                40      0.243642  2 C  pz         
    37      0.206901  2 C  pz                67     -0.207057  3 C  pz         
    97      0.148554  4 O  pz               100      0.147618  4 O  pz         

 Vector   20  Occ=0.000000D+00  E= 1.643364D-01  Symmetry=a'
              MO Center= -9.0D-02,  3.2D-01, -6.5D-12, r^2= 8.8D+00
   Bfn.  Coefficient  Atom+Function         Bfn.  Coefficient  Atom+Function  
  ----- ------------  ---------------      ----- ------------  ---------------
   151      2.184238  7 H  s                 64     -1.914707  3 C  s          
   165      1.917826  8 H  s                 41      1.787093  2 C  px         
   123     -1.223832  5 H  s                  4      1.009545  1 C  s          
    71     -0.977014  3 C  px                34     -0.922327  2 C  s          
    72     -0.731688  3 C  py                11     -0.563661  1 C  px         

 Vector   21  Occ=0.000000D+00  E= 1.853167D-01  Symmetry=a'
              MO Center=  4.6D-01,  1.6D+00,  3.2D-13, r^2= 8.0D+00
   Bfn.  Coefficient  Atom+Function         Bfn.  Coefficient  Atom+Function  
  ----- ------------  ---------------      ----- ------------  ---------------
   137      2.453355  6 H  s                123     -2.226975  5 H  s          
    11     -1.921987  1 C  px               151      1.601977  7 H  s          
   165     -1.280593  8 H  s                 41      1.251197  2 C  px         
    34     -1.068397  2 C  s                 12      0.991629  1 C  py         
    64      0.764555  3 C  s                  4     -0.377037  1 C  s          

 Vector   22  Occ=0.000000D+00  E= 2.437717D-01  Symmetry=a'
              MO Center=  5.8D-01,  4.1D-01,  1.8D-11, r^2= 7.1D+00
   Bfn.  Coefficient  Atom+Function         Bfn.  Coefficient  Atom+Function  
  ----- ------------  ---------------      ----- ------------  ---------------
    34      6.090800  2 C  s                  4     -3.541014  1 C  s          
    72     -2.659451  3 C  py                41      2.634115  2 C  px         
    12      2.316685  1 C  py                64     -1.648301  3 C  s          
    94     -1.604453  4 O  s                151      0.974101  7 H  s          
    69     -0.490763  3 C  py               137      0.492759  6 H  s          

 Vector   23  Occ=0.000000D+00  E= 2.943710D-01  Symmetry=a'
              MO Center= -1.1D-01,  6.7D-01, -3.7D-11, r^2= 6.4D+00
   Bfn.  Coefficient  Atom+Function         Bfn.  Coefficient  Atom+Function  
  ----- ------------  ---------------      ----- ------------  ---------------
    34      4.623769  2 C  s                 64     -4.552132  3 C  s          
    12      2.738339  1 C  py                 4     -2.142702  1 C  s          
    41      2.127302  2 C  px                94      1.932267  4 O  s          
   151      1.209367  7 H  s                123     -1.159607  5 H  s          
    71      0.898072  3 C  px               102      0.795079  4 O  py         

 Vector   24  Occ=0.000000D+00  E= 3.368070D-01  Symmetry=a'
              MO Center= -3.5D-01,  7.6D-01,  1.8D-13, r^2= 5.3D+00
   Bfn.  Coefficient  Atom+Function         Bfn.  Coefficient  Atom+Function  
  ----- ------------  ---------------      ----- ------------  ---------------
     4      5.431053  1 C  s                 42     -5.068811  2 C  py         
    34     -3.918948  2 C  s                 12     -3.152588  1 C  py         
    11     -1.811348  1 C  px               137      1.495002  6 H  s          
   165     -1.489936  8 H  s                 71      1.347829  3 C  px         
    64     -1.279063  3 C  s                 41     -1.043260  2 C  px         

 Vector   25  Occ=0.000000D+00  E= 3.510114D-01  Symmetry=a"
              MO Center=  6.9D-02,  5.0D-01,  2.4D-10, r^2= 4.2D+00
   Bfn.  Coefficient  Atom+Function         Bfn.  Coefficient  Atom+Function  
  ----- ------------  ---------------      ----- ------------  ---------------
    73      0.672274  3 C  pz                13      0.595481  1 C  pz         
    70     -0.496108  3 C  pz                10     -0.460310  1 C  pz         
    43      0.363991  2 C  pz                40     -0.351890  2 C  pz         
    67     -0.164382  3 C  pz                 7     -0.153083  1 C  pz         
    52      0.094820  2 C  d  1              37     -0.083408  2 C  pz         

 Vector   26  Occ=0.000000D+00  E= 3.806945D-01  Symmetry=a'
              MO Center=  3.7D-01,  8.9D-01, -4.5D-10, r^2= 3.6D+00
   Bfn.  Coefficient  Atom+Function         Bfn.  Coefficient  Atom+Function  
  ----- ------------  ---------------      ----- ------------  ---------------
    64      2.650134  3 C  s                 42      1.830671  2 C  py         
   136     -1.735639  6 H  s                 11      1.429561  1 C  px         
    72      1.397117  3 C  py                71     -1.285182  3 C  px         
   137     -1.124239  6 H  s                  4      0.899022  1 C  s          
   150     -0.820190  7 H  s                 12      0.593971  1 C  py         

 Vector   27  Occ=0.000000D+00  E= 4.114183D-01  Symmetry=a"
              MO Center=  2.3D-01,  2.9D-01,  1.2D-10, r^2= 5.2D+00
   Bfn.  Coefficient  Atom+Function         Bfn.  Coefficient  Atom+Function  
  ----- ------------  ---------------      ----- ------------  ---------------
    73      1.352902  3 C  pz                13     -0.728998  1 C  pz         
    70     -0.579999  3 C  pz                43     -0.555745  2 C  pz         
    10      0.414344  1 C  pz                50      0.206598  2 C  d -1       
    67     -0.183757  3 C  pz                40      0.168824  2 C  pz         
     7      0.137058  1 C  pz                80      0.100124  3 C  d -1       

 Vector   28  Occ=0.000000D+00  E= 4.137691D-01  Symmetry=a'
              MO Center= -1.2D-01,  4.6D-01,  5.8D-11, r^2= 4.5D+00
   Bfn.  Coefficient  Atom+Function         Bfn.  Coefficient  Atom+Function  
  ----- ------------  ---------------      ----- ------------  ---------------
    64      4.027267  3 C  s                  4     -3.252019  1 C  s          
    42      2.899006  2 C  py                11      1.988775  1 C  px         
    94     -1.584312  4 O  s                 71     -1.465229  3 C  px         
   122      1.350217  5 H  s                137     -1.020922  6 H  s          
   150      0.936318  7 H  s                164     -0.920552  8 H  s          

 Vector   29  Occ=0.000000D+00  E= 4.470511D-01  Symmetry=a'
              MO Center=  2.0D-01,  2.1D-01,  3.2D-11, r^2= 5.6D+00
   Bfn.  Coefficient  Atom+Function         Bfn.  Coefficient  Atom+Function  
  ----- ------------  ---------------      ----- ------------  ---------------
    34      3.361605  2 C  s                 71      2.710400  3 C  px         
    11     -2.398001  1 C  px                64     -2.250074  3 C  s          
   137      1.894940  6 H  s                 72     -1.869891  3 C  py         
    42     -1.619643  2 C  py               165     -1.426214  8 H  s          
   123     -1.373452  5 H  s                 41      1.276132  2 C  px         

 Vector   30  Occ=0.000000D+00  E= 4.621928D-01  Symmetry=a"
              MO Center= -3.1D-01,  9.4D-01, -2.2D-10, r^2= 4.0D+00
   Bfn.  Coefficient  Atom+Function         Bfn.  Coefficient  Atom+Function  
  ----- ------------  ---------------      ----- ------------  ---------------
    43      1.917261  2 C  pz                13     -1.407654  1 C  pz         
    40     -0.615150  2 C  pz                73     -0.615046  3 C  pz         
    10      0.446351  1 C  pz                20      0.257759  1 C  d -1       
    37     -0.235095  2 C  pz                 7      0.182897  1 C  pz         
    80     -0.164891  3 C  d -1              70      0.155711  3 C  pz         

 Vector   31  Occ=0.000000D+00  E= 4.823633D-01  Symmetry=a'
              MO Center=  2.0D-01,  4.1D-01,  1.2D-10, r^2= 5.0D+00
   Bfn.  Coefficient  Atom+Function         Bfn.  Coefficient  Atom+Function  
  ----- ------------  ---------------      ----- ------------  ---------------
     4      4.845435  1 C  s                 71      3.020186  3 C  px         
    42     -2.885517  2 C  py               165     -2.190934  8 H  s          
    34     -1.948232  2 C  s                 12     -1.740118  1 C  py         
   150      1.493893  7 H  s                136     -1.291579  6 H  s          
    72     -1.113593  3 C  py               122     -0.929010  5 H  s          

 Vector   32  Occ=0.000000D+00  E= 5.042187D-01  Symmetry=a'
              MO Center=  3.4D-01,  5.9D-01,  9.5D-13, r^2= 5.9D+00
   Bfn.  Coefficient  Atom+Function         Bfn.  Coefficient  Atom+Function  
  ----- ------------  ---------------      ----- ------------  ---------------
    71      2.271299  3 C  px               165     -2.202696  8 H  s          
   151      2.009902  7 H  s                 11      1.531291  1 C  px         
    64      1.517188  3 C  s                137     -1.488489  6 H  s          
    41      1.390043  2 C  px               164     -1.240115  8 H  s          
   122      0.872778  5 H  s                169      0.732006  8 H  px         

 Vector   33  Occ=0.000000D+00  E= 5.407171D-01  Symmetry=a'
              MO Center= -6.5D-02,  1.0D+00, -2.6D-11, r^2= 6.7D+00
   Bfn.  Coefficient  Atom+Function         Bfn.  Coefficient  Atom+Function  
  ----- ------------  ---------------      ----- ------------  ---------------
    64      5.678939  3 C  s                  4      3.429264  1 C  s          
    41     -2.919195  2 C  px               123     -2.128638  5 H  s          
   151     -1.917395  7 H  s                 42      1.666468  2 C  py         
    12      1.577741  1 C  py                94     -1.466585  4 O  s          
   122     -1.294638  5 H  s                 72      1.164189  3 C  py         

 Vector   34  Occ=0.000000D+00  E= 5.494535D-01  Symmetry=a'
              MO Center= -1.4D-01, -2.1D-01, -3.8D-11, r^2= 6.4D+00
   Bfn.  Coefficient  Atom+Function         Bfn.  Coefficient  Atom+Function  
  ----- ------------  ---------------      ----- ------------  ---------------
    64      6.051721  3 C  s                  4     -4.898485  1 C  s          
    34     -4.455915  2 C  s                 42      4.277557  2 C  py         
    71     -2.690238  3 C  px                94     -2.450441  4 O  s          
   150      1.978265  7 H  s                 41      1.904796  2 C  px         
   151      1.802934  7 H  s                137      1.282009  6 H  s          

 Vector   35  Occ=0.000000D+00  E= 5.531026D-01  Symmetry=a'
              MO Center=  3.2D-01,  2.2D-01,  1.6D-10, r^2= 5.9D+00
   Bfn.  Coefficient  Atom+Function         Bfn.  Coefficient  Atom+Function  
  ----- ------------  ---------------      ----- ------------  ---------------
     4      6.690670  1 C  s                 34     -3.581016  2 C  s          
    64     -3.415435  3 C  s                165      1.956079  8 H  s          
    71     -1.923923  3 C  px               137     -1.861284  6 H  s          
    72     -1.708099  3 C  py               122     -1.696970  5 H  s          
   164      1.704110  8 H  s                150      1.491020  7 H  s          

 Vector   36  Occ=0.000000D+00  E= 5.725860D-01  Symmetry=a'
              MO Center= -3.0D-01,  8.6D-01,  1.1D-10, r^2= 6.1D+00
   Bfn.  Coefficient  Atom+Function         Bfn.  Coefficient  Atom+Function  
  ----- ------------  ---------------      ----- ------------  ---------------
    34      4.763451  2 C  s                  4     -3.370892  1 C  s          
   123      2.725441  5 H  s                 41     -2.329732  2 C  px         
    12     -2.209356  1 C  py               151     -2.178889  7 H  s          
    11      2.155797  1 C  px               150     -2.004011  7 H  s          
   122      1.423876  5 H  s                 72     -1.406376  3 C  py         

 Vector   37  Occ=0.000000D+00  E= 6.207286D-01  Symmetry=a'
              MO Center=  8.9D-02,  3.4D-01, -6.1D-11, r^2= 5.1D+00
   Bfn.  Coefficient  Atom+Function         Bfn.  Coefficient  Atom+Function  
  ----- ------------  ---------------      ----- ------------  ---------------
    64      8.218417  3 C  s                 34     -5.729881  2 C  s          
    41     -4.430533  2 C  px                42      4.426870  2 C  py         
    11      3.920994  1 C  px                72      2.795738  3 C  py         
   137     -2.530159  6 H  s                 71     -1.919543  3 C  px         
   151     -1.710066  7 H  s                123      1.454494  5 H  s          

 Vector   38  Occ=0.000000D+00  E= 6.246186D-01  Symmetry=a"
              MO Center=  1.2D-01,  1.4D+00, -1.5D-10, r^2= 3.1D+00
   Bfn.  Coefficient  Atom+Function         Bfn.  Coefficient  Atom+Function  
  ----- ------------  ---------------      ----- ------------  ---------------
    43      0.730944  2 C  pz                73     -0.480438  3 C  pz         
    22     -0.386902  1 C  d  1             129     -0.354421  5 H  pz         
    52     -0.308828  2 C  d  1             143      0.307098  6 H  pz         
    13     -0.259462  1 C  pz                40     -0.223560  2 C  pz         
    20     -0.180883  1 C  d -1             100      0.144988  4 O  pz         

 Vector   39  Occ=0.000000D+00  E= 6.521046D-01  Symmetry=a'
              MO Center= -7.0D-02, -3.7D-01,  2.0D-10, r^2= 5.5D+00
   Bfn.  Coefficient  Atom+Function         Bfn.  Coefficient  Atom+Function  
  ----- ------------  ---------------      ----- ------------  ---------------
    34     11.582468  2 C  s                  4     -6.740905  1 C  s          
    64     -6.297297  3 C  s                 11      2.499521  1 C  px         
    41      2.047795  2 C  px               150     -1.825063  7 H  s          
    72     -1.745305  3 C  py               164      1.725440  8 H  s          
    42      1.712307  2 C  py                12      1.623413  1 C  py         

 Vector   40  Occ=0.000000D+00  E= 6.865770D-01  Symmetry=a"
              MO Center=  2.1D-01, -2.0D-01,  6.9D-11, r^2= 3.4D+00
   Bfn.  Coefficient  Atom+Function         Bfn.  Coefficient  Atom+Function  
  ----- ------------  ---------------      ----- ------------  ---------------
   103     -0.453191  4 O  pz                43      0.450892  2 C  pz         
    82     -0.407406  3 C  d  1             171      0.383034  8 H  pz         
   100      0.333377  4 O  pz                73     -0.282402  3 C  pz         
    50      0.270279  2 C  d -1              52     -0.173129  2 C  d  1       
    20     -0.168963  1 C  d -1              80     -0.156756  3 C  d -1       

 Vector   41  Occ=0.000000D+00  E= 7.136994D-01  Symmetry=a'
              MO Center= -8.9D-02,  5.7D-01,  2.0D-11, r^2= 5.1D+00
   Bfn.  Coefficient  Atom+Function         Bfn.  Coefficient  Atom+Function  
  ----- ------------  ---------------      ----- ------------  ---------------
     4     10.845201  1 C  s                 34     -8.987829  2 C  s          
    42     -6.635858  2 C  py                12     -4.298606  1 C  py         
    11     -3.107957  1 C  px                41     -2.644341  2 C  px         
    71      2.616300  3 C  px               165     -1.477667  8 H  s          
    64     -1.073002  3 C  s                137      1.055008  6 H  s          

 Vector   42  Occ=0.000000D+00  E= 7.553995D-01  Symmetry=a"
              MO Center= -1.4D-01,  7.1D-01,  3.8D-10, r^2= 3.5D+00
   Bfn.  Coefficient  Atom+Function         Bfn.  Coefficient  Atom+Function  
  ----- ------------  ---------------      ----- ------------  ---------------
   157      0.621541  7 H  pz               143      0.514094  6 H  pz         
   171      0.332636  8 H  pz                43     -0.323786  2 C  pz         
    80     -0.305837  3 C  d -1             103     -0.307041  4 O  pz         
    52      0.209616  2 C  d  1             129     -0.190529  5 H  pz         
    20      0.178435  1 C  d -1              40      0.136989  2 C  pz         

 Vector   43  Occ=0.000000D+00  E= 7.604137D-01  Symmetry=a'
              MO Center=  9.1D-02,  5.4D-01, -2.3D-10, r^2= 5.8D+00
   Bfn.  Coefficient  Atom+Function         Bfn.  Coefficient  Atom+Function  
  ----- ------------  ---------------      ----- ------------  ---------------
    34      4.540448  2 C  s                 41      3.703340  2 C  px         
    11     -3.680826  1 C  px                12      3.400652  1 C  py         
     4     -2.448524  1 C  s                 42     -2.438649  2 C  py         
    64     -2.218503  3 C  s                136      2.200137  6 H  s          
    71      2.073071  3 C  px               122     -1.567401  5 H  s          

 Vector   44  Occ=0.000000D+00  E= 8.024279D-01  Symmetry=a"
              MO Center= -1.0D-01, -1.4D+00, -2.5D-10, r^2= 3.6D+00
   Bfn.  Coefficient  Atom+Function         Bfn.  Coefficient  Atom+Function  
  ----- ------------  ---------------      ----- ------------  ---------------
   103      1.719315  4 O  pz                73     -1.092651  3 C  pz         
   100     -0.555712  4 O  pz                82     -0.465608  3 C  d  1       
    80      0.440036  3 C  d -1              43      0.290609  2 C  pz         
    97     -0.205779  4 O  pz               129     -0.181236  5 H  pz         
    20     -0.170893  1 C  d -1              40     -0.142325  2 C  pz         

 Vector   45  Occ=0.000000D+00  E= 8.034393D-01  Symmetry=a'
              MO Center= -5.2D-02,  5.7D-02, -9.4D-11, r^2= 4.9D+00
   Bfn.  Coefficient  Atom+Function         Bfn.  Coefficient  Atom+Function  
  ----- ------------  ---------------      ----- ------------  ---------------
    41      5.201448  2 C  px                 4     -4.345344  1 C  s          
    71     -3.518977  3 C  px                42      2.535884  2 C  py         
    64     -2.504591  3 C  s                151      1.831343  7 H  s          
   150      1.631558  7 H  s                165      1.592050  8 H  s          
    34      1.328955  2 C  s                 12      1.173394  1 C  py         

 Vector   46  Occ=0.000000D+00  E= 8.592066D-01  Symmetry=a'
              MO Center=  4.4D-02, -1.1D+00, -2.6D-11, r^2= 4.9D+00
   Bfn.  Coefficient  Atom+Function         Bfn.  Coefficient  Atom+Function  
  ----- ------------  ---------------      ----- ------------  ---------------
    34      8.293636  2 C  s                  4     -4.441511  1 C  s          
    64     -4.401250  3 C  s                 41      3.364326  2 C  px         
    72     -2.511822  3 C  py                71      2.080484  3 C  px         
   101     -1.821132  4 O  px                12      1.583277  1 C  py         
   164      1.485377  8 H  s                 83     -1.099839  3 C  d  2       

 Vector   47  Occ=0.000000D+00  E= 8.926254D-01  Symmetry=a"
              MO Center=  2.4D-01,  4.5D-01, -8.1D-11, r^2= 4.1D+00
   Bfn.  Coefficient  Atom+Function         Bfn.  Coefficient  Atom+Function  
  ----- ------------  ---------------      ----- ------------  ---------------
   129      0.674913  5 H  pz                73     -0.667672  3 C  pz         
    80      0.632355  3 C  d -1              13     -0.608832  1 C  pz         
    43      0.590717  2 C  pz               171      0.559240  8 H  pz         
   103      0.502146  4 O  pz                22     -0.292710  1 C  d  1       
    52     -0.257087  2 C  d  1              70     -0.223972  3 C  pz         

 Vector   48  Occ=0.000000D+00  E= 9.456506D-01  Symmetry=a'
              MO Center=  4.3D-01,  1.2D+00,  2.9D-11, r^2= 4.3D+00
   Bfn.  Coefficient  Atom+Function         Bfn.  Coefficient  Atom+Function  
  ----- ------------  ---------------      ----- ------------  ---------------
    64     -4.265917  3 C  s                 34      3.911535  2 C  s          
    41      3.264778  2 C  px                11     -3.138273  1 C  px         
    12      2.209144  1 C  py               122     -2.099108  5 H  s          
    72     -1.635356  3 C  py               136      1.387311  6 H  s          
    42     -1.365939  2 C  py               123     -1.248735  5 H  s          

 Vector   49  Occ=0.000000D+00  E= 9.858373D-01  Symmetry=a'
              MO Center= -1.3D-01,  1.3D+00, -6.8D-12, r^2= 4.1D+00
   Bfn.  Coefficient  Atom+Function         Bfn.  Coefficient  Atom+Function  
  ----- ------------  ---------------      ----- ------------  ---------------
    64      3.130712  3 C  s                 41     -1.854811  2 C  px         
   136      1.758854  6 H  s                 34     -1.727869  2 C  s          
    42      1.643977  2 C  py                 4     -1.226786  1 C  s          
    12     -0.743706  1 C  py                 8     -0.690491  1 C  px         
   151     -0.688401  7 H  s                 23     -0.642076  1 C  d  2       

 Vector   50  Occ=0.000000D+00  E= 1.043155D+00  Symmetry=a'
              MO Center= -3.2D-02,  2.6D-01,  1.8D-11, r^2= 3.9D+00
   Bfn.  Coefficient  Atom+Function         Bfn.  Coefficient  Atom+Function  
  ----- ------------  ---------------      ----- ------------  ---------------
    34      6.046713  2 C  s                  4     -4.775803  1 C  s          
    41      3.447925  2 C  px                42      3.181008  2 C  py         
    64     -1.414995  3 C  s                 72     -1.355039  3 C  py         
     9      1.272872  1 C  py                12      1.261048  1 C  py         
   164     -1.176970  8 H  s                151      1.063662  7 H  s          

 Vector   51  Occ=0.000000D+00  E= 1.066475D+00  Symmetry=a"
              MO Center=  3.5D-01,  8.7D-01, -6.4D-11, r^2= 4.3D+00
   Bfn.  Coefficient  Atom+Function         Bfn.  Coefficient  Atom+Function  
  ----- ------------  ---------------      ----- ------------  ---------------
    13      1.054791  1 C  pz                43     -0.957203  2 C  pz         
   171      0.789306  8 H  pz               143     -0.733921  6 H  pz         
   129     -0.712945  5 H  pz                82      0.675442  3 C  d  1       
    10      0.513335  1 C  pz                50     -0.422934  2 C  d -1       
    40     -0.305883  2 C  pz                52      0.292664  2 C  d  1       

 Vector   52  Occ=0.000000D+00  E= 1.067768D+00  Symmetry=a'
              MO Center=  2.6D-01,  3.6D-02,  1.9D-10, r^2= 4.7D+00
   Bfn.  Coefficient  Atom+Function         Bfn.  Coefficient  Atom+Function  
  ----- ------------  ---------------      ----- ------------  ---------------
    64     -3.240245  3 C  s                 34      3.185436  2 C  s          
    72     -2.249309  3 C  py               164      1.557037  8 H  s          
   136      1.461132  6 H  s                 11      1.345493  1 C  px         
    23     -1.212521  1 C  d  2               8     -1.157964  1 C  px         
   122     -0.978151  5 H  s                127     -0.970653  5 H  px         

 Vector   53  Occ=0.000000D+00  E= 1.091190D+00  Symmetry=a"
              MO Center= -8.6D-02,  4.3D-01, -3.5D-11, r^2= 4.0D+00
   Bfn.  Coefficient  Atom+Function         Bfn.  Coefficient  Atom+Function  
  ----- ------------  ---------------      ----- ------------  ---------------
   157      1.126893  7 H  pz               171     -0.893533  8 H  pz         
    43     -0.842976  2 C  pz               143     -0.778299  6 H  pz         
    73      0.597975  3 C  pz                13      0.480442  1 C  pz         
    82     -0.479861  3 C  d  1              52     -0.469890  2 C  d  1       
    22     -0.465788  1 C  d  1             103     -0.167976  4 O  pz         

 Vector   54  Occ=0.000000D+00  E= 1.119061D+00  Symmetry=a"
              MO Center=  1.2D-01,  8.5D-01, -1.4D-11, r^2= 3.9D+00
   Bfn.  Coefficient  Atom+Function         Bfn.  Coefficient  Atom+Function  
  ----- ------------  ---------------      ----- ------------  ---------------
    43      0.957537  2 C  pz               143     -0.834149  6 H  pz         
    20      0.829197  1 C  d -1              80     -0.751502  3 C  d -1       
    73     -0.671280  3 C  pz                22     -0.661892  1 C  d  1       
    40      0.634017  2 C  pz                82     -0.539304  3 C  d  1       
   129     -0.459380  5 H  pz               157     -0.454202  7 H  pz         

 Vector   55  Occ=0.000000D+00  E= 1.164527D+00  Symmetry=a'
              MO Center=  2.4D-01,  4.0D-01,  1.1D-11, r^2= 4.4D+00
   Bfn.  Coefficient  Atom+Function         Bfn.  Coefficient  Atom+Function  
  ----- ------------  ---------------      ----- ------------  ---------------
    34      3.832070  2 C  s                 64     -3.511538  3 C  s          
    41      2.035509  2 C  px                71      2.013591  3 C  px         
    42     -1.767840  2 C  py                94      1.751889  4 O  s          
   170      1.229016  8 H  py                72     -1.197760  3 C  py         
   122      1.072167  5 H  s                164     -0.992739  8 H  s          

 Vector   56  Occ=0.000000D+00  E= 1.197250D+00  Symmetry=a"
              MO Center=  1.2D-01,  9.2D-01,  3.5D-11, r^2= 4.0D+00
   Bfn.  Coefficient  Atom+Function         Bfn.  Coefficient  Atom+Function  
  ----- ------------  ---------------      ----- ------------  ---------------
    20      1.321046  1 C  d -1             129     -1.082428  5 H  pz         
    80      0.907322  3 C  d -1              50      0.882598  2 C  d -1       
   171     -0.487728  8 H  pz                73      0.475401  3 C  pz         
    40      0.275201  2 C  pz               100      0.246937  4 O  pz         
    70      0.207300  3 C  pz                22      0.188453  1 C  d  1       

 Vector   57  Occ=0.000000D+00  E= 1.216545D+00  Symmetry=a'
              MO Center= -3.1D-01,  5.7D-01, -7.5D-12, r^2= 4.4D+00
   Bfn.  Coefficient  Atom+Function         Bfn.  Coefficient  Atom+Function  
  ----- ------------  ---------------      ----- ------------  ---------------
    42      5.404739  2 C  py                 4     -4.848035  1 C  s          
    64      4.028677  3 C  s                 12      2.461000  1 C  py         
    11      2.072575  1 C  px                72      1.771892  3 C  py         
    71     -1.508536  3 C  px                94      1.427923  4 O  s          
   156     -1.196864  7 H  py                39      1.039174  2 C  py         

 Vector   58  Occ=0.000000D+00  E= 1.250203D+00  Symmetry=a'
              MO Center=  1.7D-01,  7.4D-01, -3.9D-11, r^2= 4.4D+00
   Bfn.  Coefficient  Atom+Function         Bfn.  Coefficient  Atom+Function  
  ----- ------------  ---------------      ----- ------------  ---------------
   150      3.526835  7 H  s                 64      3.004921  3 C  s          
     4     -2.648334  1 C  s                 38      2.239631  2 C  px         
    12      2.113484  1 C  py                53     -1.723328  2 C  d  2       
    94     -1.702385  4 O  s                 42      1.571734  2 C  py         
   155      1.548772  7 H  px                11      1.216824  1 C  px         

 Vector   59  Occ=0.000000D+00  E= 1.278984D+00  Symmetry=a'
              MO Center=  1.4D-01,  1.3D-01,  3.1D-11, r^2= 4.9D+00
   Bfn.  Coefficient  Atom+Function         Bfn.  Coefficient  Atom+Function  
  ----- ------------  ---------------      ----- ------------  ---------------
    64      2.930483  3 C  s                136      2.787043  6 H  s          
   150     -2.439208  7 H  s                 72      2.411222  3 C  py         
     4     -2.167023  1 C  s                 38     -1.911328  2 C  px         
     8     -1.764376  1 C  px                12      1.722606  1 C  py         
    79     -1.689498  3 C  d -2              94      1.564560  4 O  s          

 Vector   60  Occ=0.000000D+00  E= 1.332475D+00  Symmetry=a'
              MO Center=  9.8D-02,  5.8D-02, -3.9D-11, r^2= 5.2D+00
   Bfn.  Coefficient  Atom+Function         Bfn.  Coefficient  Atom+Function  
  ----- ------------  ---------------      ----- ------------  ---------------
    34      5.183119  2 C  s                 64     -4.560959  3 C  s          
    94      4.334833  4 O  s                 71      2.571209  3 C  px         
     4     -2.171418  1 C  s                 41      2.074345  2 C  px         
    38      1.969067  2 C  px               164     -1.879763  8 H  s          
    68      1.866808  3 C  px                 8      1.702978  1 C  px         

 Vector   61  Occ=0.000000D+00  E= 1.364287D+00  Symmetry=a"
              MO Center= -3.6D-02,  4.5D-01,  9.6D-10, r^2= 3.8D+00
   Bfn.  Coefficient  Atom+Function         Bfn.  Coefficient  Atom+Function  
  ----- ------------  ---------------      ----- ------------  ---------------
    50      1.738180  2 C  d -1              22     -1.245786  1 C  d  1       
    82      0.924642  3 C  d  1              20      0.870185  1 C  d -1       
   143     -0.703893  6 H  pz               171      0.607266  8 H  pz         
    10     -0.498111  1 C  pz                13     -0.476825  1 C  pz         
    52     -0.450025  2 C  d  1              43      0.341965  2 C  pz         

 Vector   62  Occ=0.000000D+00  E= 1.364760D+00  Symmetry=a'
              MO Center= -2.1D-01,  1.2D+00, -1.0D-09, r^2= 5.0D+00
   Bfn.  Coefficient  Atom+Function         Bfn.  Coefficient  Atom+Function  
  ----- ------------  ---------------      ----- ------------  ---------------
    64     -6.409803  3 C  s                  4      5.935443  1 C  s          
    42     -4.239685  2 C  py                94      3.246437  4 O  s          
    71      2.229665  3 C  px                12     -2.113211  1 C  py         
   136     -1.831335  6 H  s                128     -1.489154  5 H  py         
     9     -1.337016  1 C  py                 8      1.252064  1 C  px         

 Vector   63  Occ=0.000000D+00  E= 1.424347D+00  Symmetry=a'
              MO Center=  9.1D-02,  6.4D-01, -2.8D-11, r^2= 5.6D+00
   Bfn.  Coefficient  Atom+Function         Bfn.  Coefficient  Atom+Function  
  ----- ------------  ---------------      ----- ------------  ---------------
    64      7.103115  3 C  s                122      4.836995  5 H  s          
     4     -4.348812  1 C  s                 94     -3.862113  4 O  s          
    42      3.768332  2 C  py                11      2.887062  1 C  px         
     8      2.718104  1 C  px                 9     -2.414511  1 C  py         
    71     -2.370819  3 C  px               128     -2.265743  5 H  py         

 Vector   64  Occ=0.000000D+00  E= 1.479593D+00  Symmetry=a'
              MO Center=  3.0D-01,  7.7D-01, -1.7D-12, r^2= 4.8D+00
   Bfn.  Coefficient  Atom+Function         Bfn.  Coefficient  Atom+Function  
  ----- ------------  ---------------      ----- ------------  ---------------
    34      7.860974  2 C  s                150     -2.432921  7 H  s          
     4     -1.951216  1 C  s                155     -1.591501  7 H  px         
    38     -1.517423  2 C  px                68      1.497937  3 C  px         
   169      1.500957  8 H  px                23     -1.471866  1 C  d  2       
    72     -1.368466  3 C  py                51     -1.298891  2 C  d  0       

 Vector   65  Occ=0.000000D+00  E= 1.495587D+00  Symmetry=a"
              MO Center= -2.9D-01,  7.8D-01, -1.2D-11, r^2= 3.4D+00
   Bfn.  Coefficient  Atom+Function         Bfn.  Coefficient  Atom+Function  
  ----- ------------  ---------------      ----- ------------  ---------------
    52      1.842712  2 C  d  1             157     -1.203696  7 H  pz         
    22     -1.083335  1 C  d  1              20     -0.992883  1 C  d -1       
   129      0.847296  5 H  pz                80      0.751288  3 C  d -1       
   143     -0.747295  6 H  pz               171     -0.394459  8 H  pz         
    73      0.311198  3 C  pz                82     -0.279719  3 C  d  1       

 Vector   66  Occ=0.000000D+00  E= 1.499833D+00  Symmetry=a'
              MO Center=  5.9D-01,  6.2D-01, -2.2D-13, r^2= 4.5D+00
   Bfn.  Coefficient  Atom+Function         Bfn.  Coefficient  Atom+Function  
  ----- ------------  ---------------      ----- ------------  ---------------
    34      7.667653  2 C  s                 64     -5.319163  3 C  s          
   164      3.778146  8 H  s                136     -3.327919  6 H  s          
   150     -3.197789  7 H  s                  4     -2.713954  1 C  s          
    68     -2.353363  3 C  px               169     -2.300414  8 H  px         
   122      2.159282  5 H  s                141      2.134073  6 H  px         

 Vector   67  Occ=0.000000D+00  E= 1.565477D+00  Symmetry=a'
              MO Center= -3.4D-01,  8.1D-01, -5.6D-13, r^2= 4.1D+00
   Bfn.  Coefficient  Atom+Function         Bfn.  Coefficient  Atom+Function  
  ----- ------------  ---------------      ----- ------------  ---------------
    19      2.182846  1 C  d -2             122      1.881392  5 H  s          
    34     -1.863834  2 C  s                164     -1.619736  8 H  s          
   151      1.391517  7 H  s                 39     -1.292294  2 C  py         
    41      1.248791  2 C  px                64      1.248328  3 C  s          
   142     -1.132105  6 H  py               155      1.058709  7 H  px         

 Vector   68  Occ=0.000000D+00  E= 1.596043D+00  Symmetry=a'
              MO Center= -6.5D-02,  1.2D+00, -1.0D-11, r^2= 4.2D+00
   Bfn.  Coefficient  Atom+Function         Bfn.  Coefficient  Atom+Function  
  ----- ------------  ---------------      ----- ------------  ---------------
     4     10.720664  1 C  s                 34    -10.719744  2 C  s          
   150      6.386262  7 H  s                122     -6.213620  5 H  s          
    53     -3.604225  2 C  d  2               9      3.486876  1 C  py         
   136     -3.363763  6 H  s                 19     -3.130277  1 C  d -2       
    64      2.727496  3 C  s                 38      2.557395  2 C  px         

 Vector   69  Occ=0.000000D+00  E= 1.719426D+00  Symmetry=a'
              MO Center= -8.7D-02,  3.3D-01, -1.1D-12, r^2= 3.9D+00
   Bfn.  Coefficient  Atom+Function         Bfn.  Coefficient  Atom+Function  
  ----- ------------  ---------------      ----- ------------  ---------------
    34      6.801527  2 C  s                 64     -4.802362  3 C  s          
   164      2.434039  8 H  s                  4     -2.393635  1 C  s          
    72     -2.084637  3 C  py                41      1.815004  2 C  px         
     9      1.706963  1 C  py               122     -1.327902  5 H  s          
    94     -1.208625  4 O  s                 49      1.155499  2 C  d -2       

 Vector   70  Occ=0.000000D+00  E= 1.793150D+00  Symmetry=a'
              MO Center= -1.2D-01, -1.7D-01, -9.9D-14, r^2= 4.1D+00
   Bfn.  Coefficient  Atom+Function         Bfn.  Coefficient  Atom+Function  
  ----- ------------  ---------------      ----- ------------  ---------------
   136      3.828579  6 H  s                 49     -2.783594  2 C  d -2       
    23     -2.635290  1 C  d  2             122     -2.593095  5 H  s          
     8     -1.981541  1 C  px                42      1.895369  2 C  py         
     4     -1.634241  1 C  s                150      1.525032  7 H  s          
    19     -1.511566  1 C  d -2             141     -1.378217  6 H  px         

 Vector   71  Occ=0.000000D+00  E= 1.827462D+00  Symmetry=a"
              MO Center=  4.0D-02, -1.3D+00,  5.7D-11, r^2= 2.2D+00
   Bfn.  Coefficient  Atom+Function         Bfn.  Coefficient  Atom+Function  
  ----- ------------  ---------------      ----- ------------  ---------------
    82      0.917422  3 C  d  1             112     -0.912066  4 O  d  1       
    50      0.728398  2 C  d -1             171      0.596750  8 H  pz         
    80      0.422784  3 C  d -1              22     -0.416081  1 C  d  1       
   110     -0.318279  4 O  d -1              37     -0.246712  2 C  pz         
   143     -0.226643  6 H  pz                52      0.200305  2 C  d  1       

 Vector   72  Occ=0.000000D+00  E= 1.838732D+00  Symmetry=a'
              MO Center= -1.5D-01, -2.1D-01, -4.8D-11, r^2= 4.1D+00
   Bfn.  Coefficient  Atom+Function         Bfn.  Coefficient  Atom+Function  
  ----- ------------  ---------------      ----- ------------  ---------------
   136      4.506320  6 H  s                  4     -2.944029  1 C  s          
    23     -2.780087  1 C  d  2             150      2.661272  7 H  s          
    49     -2.280741  2 C  d -2              53     -1.932142  2 C  d  2       
    69     -1.832401  3 C  py                41      1.691573  2 C  px         
   122     -1.686253  5 H  s                 34      1.643308  2 C  s          

 Vector   73  Occ=0.000000D+00  E= 2.035941D+00  Symmetry=a"
              MO Center=  7.8D-02, -8.0D-01,  6.1D-12, r^2= 2.0D+00
   Bfn.  Coefficient  Atom+Function         Bfn.  Coefficient  Atom+Function  
  ----- ------------  ---------------      ----- ------------  ---------------
    67      0.826650  3 C  pz               110     -0.776003  4 O  d -1       
    80     -0.751439  3 C  d -1              70     -0.699396  3 C  pz         
   103     -0.629772  4 O  pz                52     -0.503795  2 C  d  1       
    73      0.475812  3 C  pz                82      0.437313  3 C  d  1       
    40     -0.402163  2 C  pz                37      0.393270  2 C  pz         

 Vector   74  Occ=0.000000D+00  E= 2.042609D+00  Symmetry=a'
              MO Center=  8.4D-02,  2.5D-02, -5.8D-12, r^2= 3.2D+00
   Bfn.  Coefficient  Atom+Function         Bfn.  Coefficient  Atom+Function  
  ----- ------------  ---------------      ----- ------------  ---------------
   150      5.244021  7 H  s                 53     -3.182495  2 C  d  2       
   164      2.308211  8 H  s                155      2.070572  7 H  px         
    38      2.049770  2 C  px                34     -1.996054  2 C  s          
     4     -1.970489  1 C  s                 83     -1.754686  3 C  d  2       
   136      1.562669  6 H  s                 79      1.518845  3 C  d -2       

 Vector   75  Occ=0.000000D+00  E= 2.102088D+00  Symmetry=a"
              MO Center=  6.1D-03,  4.0D-01, -3.1D-11, r^2= 3.1D+00
   Bfn.  Coefficient  Atom+Function         Bfn.  Coefficient  Atom+Function  
  ----- ------------  ---------------      ----- ------------  ---------------
    10      0.943891  1 C  pz                40      0.815395  2 C  pz         
     7     -0.805499  1 C  pz                37     -0.634115  2 C  pz         
    80     -0.623545  3 C  d -1              70      0.566190  3 C  pz         
   110     -0.550882  4 O  d -1             103     -0.507007  4 O  pz         
   112      0.372325  4 O  d  1              43     -0.282998  2 C  pz         

 Vector   76  Occ=0.000000D+00  E= 2.164156D+00  Symmetry=a'
              MO Center=  1.7D-01, -9.4D-01,  5.3D-11, r^2= 3.1D+00
   Bfn.  Coefficient  Atom+Function         Bfn.  Coefficient  Atom+Function  
  ----- ------------  ---------------      ----- ------------  ---------------
   164      5.093022  8 H  s                 94     -3.349582  4 O  s          
    68     -2.706007  3 C  px                83     -2.461678  3 C  d  2       
    69     -2.082341  3 C  py               169     -1.821365  8 H  px         
    64     -1.500066  3 C  s                 34      1.488754  2 C  s          
     4     -1.229226  1 C  s                 72     -1.165550  3 C  py         

 Vector   77  Occ=0.000000D+00  E= 2.227996D+00  Symmetry=a"
              MO Center=  3.3D-02, -4.6D-02, -3.1D-11, r^2= 3.1D+00
   Bfn.  Coefficient  Atom+Function         Bfn.  Coefficient  Atom+Function  
  ----- ------------  ---------------      ----- ------------  ---------------
    70      1.328270  3 C  pz                10     -1.034846  1 C  pz         
    67     -0.765303  3 C  pz               110     -0.652225  4 O  d -1       
     7      0.646678  1 C  pz                80     -0.472763  3 C  d -1       
    50      0.463549  2 C  d -1             103     -0.460287  4 O  pz         
    82      0.423404  3 C  d  1              73     -0.283137  3 C  pz         

 Vector   78  Occ=0.000000D+00  E= 2.228159D+00  Symmetry=a'
              MO Center=  1.3D-02,  1.3D+00,  4.8D-11, r^2= 2.8D+00
   Bfn.  Coefficient  Atom+Function         Bfn.  Coefficient  Atom+Function  
  ----- ------------  ---------------      ----- ------------  ---------------
   122      4.364112  5 H  s                  9     -2.470064  1 C  py         
     4     -1.499607  1 C  s                127      1.299277  5 H  px         
    23      1.269377  1 C  d  2              53      1.241549  2 C  d  2       
    34     -1.123919  2 C  s                 19      1.115302  1 C  d -2       
   128     -1.118436  5 H  py                12     -0.966431  1 C  py         

 Vector   79  Occ=0.000000D+00  E= 2.269657D+00  Symmetry=a'
              MO Center=  4.8D-02, -1.2D+00, -2.1D-11, r^2= 2.8D+00
   Bfn.  Coefficient  Atom+Function         Bfn.  Coefficient  Atom+Function  
  ----- ------------  ---------------      ----- ------------  ---------------
    94     -2.576398  4 O  s                 64      2.516515  3 C  s          
    34     -2.112567  2 C  s                 79      2.024362  3 C  d -2       
    69     -1.972359  3 C  py                 4      1.648550  1 C  s          
   102     -1.573711  4 O  py               113      1.232663  4 O  d  2       
   122      1.238768  5 H  s                136     -1.232207  6 H  s          

 Vector   80  Occ=0.000000D+00  E= 2.327069D+00  Symmetry=a'
              MO Center= -8.3D-02,  5.5D-01, -8.1D-12, r^2= 2.5D+00
   Bfn.  Coefficient  Atom+Function         Bfn.  Coefficient  Atom+Function  
  ----- ------------  ---------------      ----- ------------  ---------------
   150      1.853596  7 H  s                 68      1.432614  3 C  px         
   164     -1.029736  8 H  s                 38      0.955121  2 C  px         
    39      0.886639  2 C  py                53     -0.849619  2 C  d  2       
    41      0.796958  2 C  px                42     -0.739218  2 C  py         
   136     -0.737336  6 H  s                  8      0.662803  1 C  px         

 Vector   81  Occ=0.000000D+00  E= 2.335514D+00  Symmetry=a"
              MO Center= -1.0D-01,  7.8D-01,  9.1D-12, r^2= 1.8D+00
   Bfn.  Coefficient  Atom+Function         Bfn.  Coefficient  Atom+Function  
  ----- ------------  ---------------      ----- ------------  ---------------
    40      1.424877  2 C  pz                10     -1.016054  1 C  pz         
    37     -0.945946  2 C  pz                 7      0.636462  1 C  pz         
    70     -0.561909  3 C  pz                43     -0.445108  2 C  pz         
    67      0.369645  3 C  pz                20      0.292253  1 C  d -1       
    13      0.282971  1 C  pz                80     -0.227652  3 C  d -1       

 Vector   82  Occ=0.000000D+00  E= 2.445779D+00  Symmetry=a'
              MO Center= -2.6D-02,  5.8D-01, -3.3D-12, r^2= 3.2D+00
   Bfn.  Coefficient  Atom+Function         Bfn.  Coefficient  Atom+Function  
  ----- ------------  ---------------      ----- ------------  ---------------
   136      3.585428  6 H  s                  8     -2.860054  1 C  px         
   150     -2.707865  7 H  s                 38     -2.415329  2 C  px         
   122     -1.637645  5 H  s                141     -1.383283  6 H  px         
    11     -1.247037  1 C  px                34     -1.199005  2 C  s          
   155     -1.055763  7 H  px                42     -1.034427  2 C  py         

 Vector   83  Occ=0.000000D+00  E= 2.500208D+00  Symmetry=a'
              MO Center= -2.6D-01,  7.4D-01, -2.4D-12, r^2= 2.5D+00
   Bfn.  Coefficient  Atom+Function         Bfn.  Coefficient  Atom+Function  
  ----- ------------  ---------------      ----- ------------  ---------------
     4      4.123959  1 C  s                 34     -3.348117  2 C  s          
    41     -3.168621  2 C  px                42     -1.853603  2 C  py         
    64      1.728987  3 C  s                150     -1.437526  7 H  s          
     9     -1.212868  1 C  py               151     -1.087901  7 H  s          
    72      1.035152  3 C  py                71      0.857312  3 C  px         

 Vector   84  Occ=0.000000D+00  E= 2.520442D+00  Symmetry=a"
              MO Center=  3.4D-03,  5.4D-01,  8.5D-13, r^2= 1.8D+00
   Bfn.  Coefficient  Atom+Function         Bfn.  Coefficient  Atom+Function  
  ----- ------------  ---------------      ----- ------------  ---------------
    45      0.442817  2 C  d -1              50     -0.354520  2 C  d -1       
    55      0.338675  2 C  f -2              80      0.303873  3 C  d -1       
    15     -0.274144  1 C  d -1              85      0.243786  3 C  f -2       
    77     -0.240493  3 C  d  1              17      0.228480  1 C  d  1       
   112     -0.208244  4 O  d  1              25      0.193656  1 C  f -2       

 Vector   85  Occ=0.000000D+00  E= 2.573354D+00  Symmetry=a'
              MO Center=  3.0D-01, -5.3D-01, -1.6D-12, r^2= 2.9D+00
   Bfn.  Coefficient  Atom+Function         Bfn.  Coefficient  Atom+Function  
  ----- ------------  ---------------      ----- ------------  ---------------
    53     -2.108745  2 C  d  2              34      2.042133  2 C  s          
    71      2.046624  3 C  px                 9      1.939579  1 C  py         
    83     -1.931947  3 C  d  2              39      1.867884  2 C  py         
   122     -1.543662  5 H  s                164     -1.458321  8 H  s          
    19     -1.395529  1 C  d -2             101     -1.153602  4 O  px         

 Vector   86  Occ=0.000000D+00  E= 2.586072D+00  Symmetry=a'
              MO Center=  2.0D-01,  4.4D-01, -1.2D-12, r^2= 3.0D+00
   Bfn.  Coefficient  Atom+Function         Bfn.  Coefficient  Atom+Function  
  ----- ------------  ---------------      ----- ------------  ---------------
    41      2.939849  2 C  px                 4     -2.395596  1 C  s          
    34      2.193448  2 C  s                 11     -1.740390  1 C  px         
    64     -1.625936  3 C  s                 12      1.593461  1 C  py         
    68      1.299340  3 C  px               151      0.906797  7 H  s          
   123     -0.743212  5 H  s                 94      0.726076  4 O  s          

 Vector   87  Occ=0.000000D+00  E= 2.654950D+00  Symmetry=a'
              MO Center=  1.5D-01,  5.2D-01, -3.7D-12, r^2= 3.2D+00
   Bfn.  Coefficient  Atom+Function         Bfn.  Coefficient  Atom+Function  
  ----- ------------  ---------------      ----- ------------  ---------------
    11      1.824534  1 C  px                41     -1.624995  2 C  px         
    68      1.589192  3 C  px                69      1.398087  3 C  py         
   164     -1.342481  8 H  s                 42      1.136350  2 C  py         
     8     -1.110756  1 C  px                64      1.108350  3 C  s          
    12     -1.022649  1 C  py                94      0.912047  4 O  s          

 Vector   88  Occ=0.000000D+00  E= 2.668888D+00  Symmetry=a"
              MO Center= -5.4D-02,  5.4D-01,  3.9D-12, r^2= 2.5D+00
   Bfn.  Coefficient  Atom+Function         Bfn.  Coefficient  Atom+Function  
[...]

 Vector  168  Occ=0.000000D+00  E= 6.571031D+00  Symmetry=a'
              MO Center= -1.1D-01, -1.7D+00, -2.5D-13, r^2= 6.6D-01
   Bfn.  Coefficient  Atom+Function         Bfn.  Coefficient  Atom+Function  
  ----- ------------  ---------------      ----- ------------  ---------------
   106     -0.918974  4 O  d  0              83      0.910563  3 C  d  2       
    34      0.904957  2 C  s                 64     -0.883837  3 C  s          
    42     -0.711418  2 C  py                53      0.707636  2 C  d  2       
    79     -0.686972  3 C  d -2             111      0.684014  4 O  d  0       
    38      0.630703  2 C  px                 9      0.591958  1 C  py         

 Vector  169  Occ=0.000000D+00  E= 6.948761D+00  Symmetry=a"
              MO Center= -1.4D-01, -1.8D+00,  8.4D-13, r^2= 5.8D-01
   Bfn.  Coefficient  Atom+Function         Bfn.  Coefficient  Atom+Function  
  ----- ------------  ---------------      ----- ------------  ---------------
   110      1.271846  4 O  d -1             105     -0.949312  4 O  d -1       
    70     -0.818769  3 C  pz               100      0.614162  4 O  pz         
    80      0.608617  3 C  d -1             103      0.532993  4 O  pz         
   112     -0.516634  4 O  d  1             117     -0.468047  4 O  f  0       
   115      0.430646  4 O  f -2             119     -0.428035  4 O  f  2       

 Vector  170  Occ=0.000000D+00  E= 7.055012D+00  Symmetry=a'
              MO Center= -6.0D-02, -1.4D+00,  1.3D-13, r^2= 1.4D+00
   Bfn.  Coefficient  Atom+Function         Bfn.  Coefficient  Atom+Function  
  ----- ------------  ---------------      ----- ------------  ---------------
    34      1.412623  2 C  s                 83     -0.908109  3 C  d  2       
   108      0.896253  4 O  d  2              54      0.764019  2 C  f -3       
    84     -0.729754  3 C  f -3             104      0.694810  4 O  d -2       
   113     -0.663762  4 O  d  2             150     -0.649733  7 H  s          
    68      0.604683  3 C  px                24     -0.600561  1 C  f -3       

 Vector  171  Occ=0.000000D+00  E= 7.146318D+00  Symmetry=a'
              MO Center= -1.3D-01, -1.8D+00,  2.0D-13, r^2= 5.6D-01
   Bfn.  Coefficient  Atom+Function         Bfn.  Coefficient  Atom+Function  
  ----- ------------  ---------------      ----- ------------  ---------------
    94      1.268198  4 O  s                109      1.006647  4 O  d -2       
   104     -0.832541  4 O  d -2              69      0.797464  3 C  py         
    62     -0.772072  3 C  s                102      0.744102  4 O  py         
   111     -0.677057  4 O  d  0              63     -0.594323  3 C  s          
   113     -0.575690  4 O  d  2             106      0.566728  4 O  d  0       

 Vector  172  Occ=0.000000D+00  E= 7.238799D+00  Symmetry=a'
              MO Center= -2.8D-02, -1.2D+00,  2.9D-13, r^2= 1.9D+00
   Bfn.  Coefficient  Atom+Function         Bfn.  Coefficient  Atom+Function  
  ----- ------------  ---------------      ----- ------------  ---------------
    84      1.595648  3 C  f -3              68      1.516495  3 C  px         
   113     -1.130472  4 O  d  2              98     -1.106270  4 O  px         
   114     -1.064960  4 O  f -3              54     -1.025174  2 C  f -3       
   109     -0.973953  4 O  d -2              34      0.967726  2 C  s          
    24      0.686226  1 C  f -3              69     -0.668307  3 C  py         

 Vector  173  Occ=0.000000D+00  E= 1.053548D+01  Symmetry=a'
              MO Center=  1.6D-01, -5.9D-01, -3.2D-12, r^2= 2.6D+00
   Bfn.  Coefficient  Atom+Function         Bfn.  Coefficient  Atom+Function  
  ----- ------------  ---------------      ----- ------------  ---------------
    62      7.527460  3 C  s                164     -6.387472  8 H  s          
   150     -5.871019  7 H  s                 64      5.344905  3 C  s          
    61      4.238994  3 C  s                 32      3.766764  2 C  s          
    53      3.539412  2 C  d  2             136     -3.240351  6 H  s          
    92      3.104320  4 O  s                169      3.025560  8 H  px         

 Vector  174  Occ=0.000000D+00  E= 1.119271D+01  Symmetry=a'
              MO Center= -2.5D-01,  6.5D-01,  1.5D-13, r^2= 2.5D+00
   Bfn.  Coefficient  Atom+Function         Bfn.  Coefficient  Atom+Function  
  ----- ------------  ---------------      ----- ------------  ---------------
    32      8.194107  2 C  s                150     -6.422907  7 H  s          
     2      5.865215  1 C  s                136     -4.729000  6 H  s          
    31      4.607375  2 C  s                  4      3.935963  1 C  s          
   122     -3.745938  5 H  s                  1      3.256111  1 C  s          
   155     -2.973565  7 H  px                 9      2.833164  1 C  py         

 Vector  175  Occ=0.000000D+00  E= 1.306143D+01  Symmetry=a'
              MO Center=  1.3D-01, -7.4D-01,  7.6D-13, r^2= 2.1D+00
   Bfn.  Coefficient  Atom+Function         Bfn.  Coefficient  Atom+Function  
  ----- ------------  ---------------      ----- ------------  ---------------
    62      6.982726  3 C  s                 92     -4.621509  4 O  s          
     2     -4.357096  1 C  s                 61      3.846808  3 C  s          
    91     -2.964578  4 O  s                 99     -2.860287  4 O  py         
    69     -2.737225  3 C  py                64      2.658710  3 C  s          
    94     -2.437456  4 O  s                  1     -2.423530  1 C  s          

 Vector  176  Occ=0.000000D+00  E= 1.425798D+01  Symmetry=a'
              MO Center= -1.6D-02,  1.1D+00, -1.3D-13, r^2= 2.1D+00
   Bfn.  Coefficient  Atom+Function         Bfn.  Coefficient  Atom+Function  
  ----- ------------  ---------------      ----- ------------  ---------------
     2     10.272378  1 C  s                 34     -8.360865  2 C  s          
     4      7.796992  1 C  s                 32     -6.765513  2 C  s          
     1      5.649446  1 C  s                 62      3.815491  3 C  s          
    31     -3.757194  2 C  s                122     -3.589317  5 H  s          
    64      3.459287  3 C  s                136     -3.378889  6 H  s          


 center of mass
 --------------
 x =  -0.02367988 y =  -0.14861971 z =   0.00000000

 moments of inertia (a.u.)
 ------------------
         386.798472072844          -0.000000000000           0.000000000000
          -0.000000000000          37.350689219708           0.000000000000
           0.000000000000           0.000000000000         424.149161292551

     Multipole analysis of the density
     ---------------------------------

     L   x y z        total         alpha         beta         nuclear
     -   - - -        -----         -----         ----         -------
     0   0 0 0     -0.000000    -15.000000    -15.000000     30.000000

     1   1 0 0      0.276644      0.138322      0.138322      0.000000
     1   0 1 0      1.282762      0.641381      0.641381     -0.000000
     1   0 0 1     -0.000000     -0.000000     -0.000000      0.000000

     2   2 0 0    -16.181421    -22.832790    -22.832790     29.484160
     2   1 1 0     -0.623696     -0.067131     -0.067131     -0.489433
     2   1 0 1     -0.000000     -0.000000     -0.000000      0.000000
     2   0 2 0    -20.133925   -116.881454   -116.881454    213.628982
     2   0 1 1      0.000000      0.000000      0.000000      0.000000
     2   0 0 2    -18.687178     -9.343589     -9.343589      0.000000

  int_init: cando_txs set to always be  F
                                NWChem TDDFT Module
                                -------------------


            General Information
            -------------------
           No. of orbitals :     352
            Alpha orbitals :     176
             Beta orbitals :     176
        Alpha frozen cores :       0
         Beta frozen cores :       0
     Alpha frozen virtuals :       0
      Beta frozen virtuals :       0
         Spin multiplicity :       1
    Number of AO functions :     176
        Use of symmetry is : off
      Symmetry adaption is : on 
         Schwarz screening :  0.10D-07

              XC Information
              --------------
              Hartree-Fock (Exact) Exchange   1.00          
            CAM-Becke88 Exchange Functional   1.00          
               VWN V Correlation Functional   0.19 local    
       Lee-Yang-Parr Correlation Functional   0.81          
           Alpha           :  0.19
           Beta            :  0.81
           Gamma           :  0.33

             TDDFT Information
             -----------------
          Calculation type : TDDFT             
         Wavefunction type : Restricted singlets
          No. of electrons :      30
           Alpha electrons :      15
            Beta electrons :      15
              No. of roots :       5
          Max subspacesize :    5000
            Max iterations :     100
               Target root :       1
           Target symmetry : none
      Symmetry restriction : off
                 Algorithm : Disk-based multiple tensor contraction
        Davidson threshold :  0.10D-03

            Memory Information
            ------------------
          Available GA space size is         689946368 doubles
          Available MA space size is         172492628 doubles
          Length of a trial vector is         2415
          Estimated peak GA usage is           1391924 doubles
          Estimated peak MA usage is           1268000 doubles
          Estimated peak DRA usage is         48300000 doubles

    5 smallest eigenvalue differences (eV) 
--------------------------------------------------------
  No. Spin  Occ  Vir  Irrep   E(Occ)    E(Vir)   E(Diff)
--------------------------------------------------------
    1    1   15   16 a"       -0.384     0.013    10.816
    2    1   14   16 a'       -0.409     0.013    11.491
    3    1   15   17 a'       -0.384     0.114    13.559
    4    1   15   18 a'       -0.384     0.125    13.846
    5    1   15   19 a"       -0.384     0.133    14.085
--------------------------------------------------------

  Entering Davidson iterations
  Restricted singlet excited states

  Iter   NTrls   NConv    DeltaV     DeltaE      Time   
  ----  ------  ------  ---------  ---------  --------- 
    1      5       0     0.36E+00   0.10+100       32.4
    2     15       0     0.74E-01   0.41E-01       36.4
    3     25       0     0.12E+00   0.15E-01       36.3
    4     35       0     0.64E-01   0.17E-01       36.0
    5     45       0     0.28E-01   0.74E-02       36.4
    6     55       1     0.19E-01   0.19E-02       36.2
    7     63       2     0.45E-01   0.80E-02       35.9
    8     69       2     0.16E-01   0.18E-02       34.4
    9     75       2     0.42E-02   0.16E-03       34.1
   10     81       3     0.18E-02   0.15E-04       34.4
   11     85       4     0.45E-03   0.16E-05       33.0
   12     87       4     0.14E-03   0.99E-07       31.5
   13     89       5     0.65E-04   0.91E-08       31.8
  ----  ------  ------  ---------  ---------  --------- 
  Convergence criterion met

  Ground state a'       -191.746872724390 a.u.

  ----------------------------------------------------------------------------
  Root   1 singlet a"             0.143379303 a.u.                3.9016 eV 
  ----------------------------------------------------------------------------
     Transition Moments    X -0.00000   Y -0.00000   Z -0.05357
     Transition Moments   XX  0.00000  XY  0.00000  XZ -0.37276
     Transition Moments   YY -0.00000  YZ  0.08774  ZZ -0.00000
     Dipole Oscillator Strength                    0.0002742784
     Electric Quadrupole                           0.0000000023
     Magnetic Dipole                               0.0000011614
     Total Oscillator Strength                     0.0002754421

     Occ.   15  a'  ---  Virt.   16  a"   0.94253 X
     Occ.   15  a'  ---  Virt.   19  a"   0.31953 X
  ----------------------------------------------------------------------------
  Root   2 singlet a'             0.244532851 a.u.                6.6541 eV 
  ----------------------------------------------------------------------------
     Transition Moments    X  0.19086   Y  1.64263   Z  0.00000
     Transition Moments   XX -0.47873  XY  0.46720  XZ -0.00000
     Transition Moments   YY  2.98712  YZ  0.00000  ZZ  0.21964
     Dipole Oscillator Strength                    0.4458088600
     Electric Quadrupole                           0.0000002786
     Magnetic Dipole                               0.0000000783
     Total Oscillator Strength                     0.4458092169

     Occ.   12  a"  ---  Virt.   16  a"  -0.05656 X
     Occ.   13  a'  ---  Virt.   24  a'  -0.05372 X
     Occ.   14  a"  ---  Virt.   16  a"  -0.98169 X
     Occ.   14  a"  ---  Virt.   16  a"   0.09654 Y
     Occ.   15  a'  ---  Virt.   17  a'   0.09891 X
     Occ.   15  a'  ---  Virt.   18  a'  -0.06455 X
     Occ.   15  a'  ---  Virt.   20  a'  -0.06334 X
     Occ.   15  a'  ---  Virt.   29  a'   0.05190 X
  ----------------------------------------------------------------------------
  Root   3 singlet a"             0.277785685 a.u.                7.5589 eV 
  ----------------------------------------------------------------------------
     Transition Moments    X -0.00000   Y -0.00000   Z  0.01884
     Transition Moments   XX -0.00000  XY  0.00000  XZ -0.77999
     Transition Moments   YY -0.00000  YZ  0.19160  ZZ -0.00000
     Dipole Oscillator Strength                    0.0000657611
     Electric Quadrupole                           0.0000000736
     Magnetic Dipole                               0.0000043409
     Total Oscillator Strength                     0.0000701757

     Occ.    9  a'  ---  Virt.   16  a"   0.12099 X
     Occ.   13  a'  ---  Virt.   16  a"   0.68992 X
     Occ.   13  a'  ---  Virt.   19  a"  -0.10245 X
     Occ.   15  a'  ---  Virt.   16  a"  -0.23822 X
     Occ.   15  a'  ---  Virt.   19  a"   0.65410 X
     Occ.   15  a'  ---  Virt.   30  a"  -0.05552 X
  ----------------------------------------------------------------------------
  Root   4 singlet a"             0.299585527 a.u.                8.1521 eV 
  ----------------------------------------------------------------------------
     Transition Moments    X  0.00000   Y  0.00000   Z -0.03732
     Transition Moments   XX  0.00000  XY  0.00000  XZ  0.14469
     Transition Moments   YY  0.00000  YZ  0.26392  ZZ -0.00000
     Dipole Oscillator Strength                    0.0002782460
     Electric Quadrupole                           0.0000000130
     Magnetic Dipole                               0.0000010243
     Total Oscillator Strength                     0.0002792833

     Occ.    9  a'  ---  Virt.   16  a"   0.12861 X
     Occ.    9  a'  ---  Virt.   19  a"  -0.12674 X
     Occ.   10  a'  ---  Virt.   16  a"  -0.10634 X
     Occ.   11  a'  ---  Virt.   16  a"   0.26384 X
     Occ.   13  a'  ---  Virt.   16  a"  -0.67532 X
     Occ.   13  a'  ---  Virt.   19  a"   0.07929 X
     Occ.   15  a'  ---  Virt.   16  a"  -0.18972 X
     Occ.   15  a'  ---  Virt.   19  a"   0.61309 X
  ----------------------------------------------------------------------------
  Root   5 singlet a"             0.315532897 a.u.                8.5861 eV 
  ----------------------------------------------------------------------------
     Transition Moments    X  0.00000   Y  0.00000   Z -0.11188
     Transition Moments   XX  0.00000  XY  0.00000  XZ  0.16044
     Transition Moments   YY -0.00000  YZ  0.14044  ZZ  0.00000
     Dipole Oscillator Strength                    0.0026329900
     Electric Quadrupole                           0.0000000076
     Magnetic Dipole                               0.0000005708
     Total Oscillator Strength                     0.0026335684

     Occ.   10  a'  ---  Virt.   19  a"  -0.19082 X
     Occ.   11  a'  ---  Virt.   16  a"  -0.92476 X
     Occ.   11  a'  ---  Virt.   19  a"  -0.15171 X
     Occ.   13  a'  ---  Virt.   16  a"  -0.15707 X
     Occ.   15  a'  ---  Virt.   16  a"  -0.07493 X
     Occ.   15  a'  ---  Virt.   19  a"   0.20809 X

              Target root =      1
          Target symmetry = none
      Ground state energy =   -191.746872724390
        Excitation energy =      0.143379303321
     Excited state energy =   -191.603493421070

  stored tddft:energy   -191.60349342106952     

 Task  times  cpu:      524.6s     wall:      528.4s


                                NWChem Input Module
                                -------------------


 Summary of allocated global arrays
-----------------------------------
  No active global arrays



                         GA Statistics for process    0
                         ------------------------------

       create   destroy   get      put      acc     scatter   gather  read&inc
calls: 1560     1560     2.36e+06 3.36e+06 2.20e+06  475        0      699     
number of processes/call 1.06e+00 1.04e+00 1.05e+00 0.00e+00 0.00e+00
bytes total:             4.82e+09 9.68e+08 6.01e+09 6.20e+04 0.00e+00 5.59e+03
bytes remote:            9.33e+08 5.46e+08 7.92e+08 0.00e+00 0.00e+00 0.00e+00
Max memory consumed for GA by this process: 8990464 bytes

MA_summarize_allocated_blocks: starting scan ...
MA_summarize_allocated_blocks: scan completed: 0 heap blocks, 0 stack blocks
MA usage statistics:

	allocation statistics:
					      heap	     stack
					      ----	     -----
	current number of blocks	         0	         0
	maximum number of blocks	        18	        53
	current total bytes		         0	         0
	maximum total bytes		   1584872	  22517640
	maximum total K-bytes		      1585	     22518
	maximum total M-bytes		         2	        23


                                     CITATION
                                     --------
                Please cite the following reference when publishing
                           results obtained with NWChem:

                 M. Valiev, E.J. Bylaska, N. Govind, K. Kowalski,
              T.P. Straatsma, H.J.J. van Dam, D. Wang, J. Nieplocha,
                        E. Apra, T.L. Windus, W.A. de Jong
                 "NWChem: a comprehensive and scalable open-source
                  solution for large scale molecular simulations"
                      Comput. Phys. Commun. 181, 1477 (2010)
                           doi:10.1016/j.cpc.2010.04.018

                                      AUTHORS
                                      -------
          E. Apra, E. J. Bylaska, W. A. de Jong, N. Govind, K. Kowalski,
       T. P. Straatsma, M. Valiev, H. J. J. van Dam, D. Wang, T. L. Windus,
        J. Hammond, J. Autschbach, K. Bhaskaran-Nair, J. Brabec, K. Lopata,
    S. A. Fischer, S. Krishnamoorthy, M. Jacquelin, W. Ma, M. Klemm, O. Villa,
      Y. Chen, V. Anisimov, F. Aquino, S. Hirata, M. T. Hackler, V. Konjkov,
            D. Mejia-Rodriguez, T. Risthaus, M. Malagoli, A. Marenich,
   A. Otero-de-la-Roza, J. Mullin, P. Nichols, R. Peverati, J. Pittner, Y. Zhao,
        P.-D. Fan, A. Fonari, M. J. Williamson, R. J. Harrison, J. R. Rehr,
      M. Dupuis, D. Silverstein, D. M. A. Smith, J. Nieplocha, V. Tipparaju,
    M. Krishnan, B. E. Van Kuiken, A. Vazquez-Mayagoitia, L. Jensen, M. Swart,
      Q. Wu, T. Van Voorhis, A. A. Auer, M. Nooijen, L. D. Crosby, E. Brown,
      G. Cisneros, G. I. Fann, H. Fruchtl, J. Garza, K. Hirao, R. A. Kendall,
      J. A. Nichols, K. Tsemekhman, K. Wolinski, J. Anchell, D. E. Bernholdt,
      P. Borowski, T. Clark, D. Clerc, H. Dachsel, M. J. O. Deegan, K. Dyall,
    D. Elwood, E. Glendening, M. Gutowski, A. C. Hess, J. Jaffe, B. G. Johnson,
     J. Ju, R. Kobayashi, R. Kutteh, Z. Lin, R. Littlefield, X. Long, B. Meng,
      T. Nakajima, S. Niu, L. Pollack, M. Rosing, K. Glaesemann, G. Sandrone,
      M. Stave, H. Taylor, G. Thomas, J. H. van Lenthe, A. T. Wong, Z. Zhang.

 Total times  cpu:      524.6s     wall:      528.5s
[0] ARMCI Warning: Freed 1 leaked allocations
