 argument  1 = /home/list1234/source/nwchem-6.8.1-release/QA/tests/band/band.nw



============================== echo of input deck ==============================
echo
title "GaN 8 atom cubic cell"

start band

memory 90 mb

#**** Enter the geometry using fractional coordinates ****
geometry units au center noautosym noautoz print
  system crystal
    lat_a 5.920d0
    lat_b 10.255d0
    lat_c 9.653d0
    alpha 90.0d0
    beta  90.0d0
    gamma 90.0d0
  end
Ga  -0.50000000d0   -0.50000000d0   -0.50000000d0
Ga  -0.50000000d0    0.16666670d0    0.00000000d0
Ga   0.00000000d0   -0.33333333d0    0.00000000d0
Ga   0.00000000d0    0.00000000d0   -0.50000000d0
N   -0.50000000d0   -0.50000000d0   -0.12300000d0
N   -0.50000000d0    0.16666670d0    0.37700000d0
N    0.00000000d0   -0.33333330d0    0.37700000d0
N    0.00000000d0    0.00000000d0   -0.12300000d0
end

set nwpw:cutoff_boot_psi .false.
#***** setup the nwpw gamma point code ****
nwpw
   simulation_cell
     ngrid 16 16 16
   end
   brillouin_zone
     kvector  0.0 0.0 0.0
   end
   loop 10 100
   ewald_ncut 8
   energy_cutoff 10.0
end

set nwpw:lcao_iterations 5
set nwpw:minimizer 2
set nwpw:psi_brillioun_check .false.

task pspw energy
task band energy

nwpw
   simulation_cell
     ngrid 16 16 16
   end
   brillouin_zone
     kvector  0.222222 0.000    0.250
     kvector  0.444444 0.000    0.250
     kvector  0.555556 0.333333 0.250
   end
   loop 10 100
   ewald_ncut 8
   energy_cutoff 10.0
end
task band energy



nwpw
   simulation_cell
     ngrid 16 16 16
   end
   brillouin_zone
     kvector  0.5 0.5 0.5
   end
   loop 10 100
   ewald_ncut 8
   energy_cutoff 10.0
end
task band energy

nwpw
   simulation_cell
     ngrid 16 16 16
   end
   brillouin_zone
     kvector  0.0 0.0 0.0
   end
   loop 10 100
   ewald_ncut 8
   energy_cutoff 10.0
   tolerances 1.0d-9 1.0d-9
end
task band energy

### Monkhorst-Pack test added 4/22/04 ####
nwpw
    Monkhorst-Pack 2 1 1
end
task band energy

================================================================================


                                         
                                         


              Northwest Computational Chemistry Package (NWChem) 6.8
              ------------------------------------------------------


                    Environmental Molecular Sciences Laboratory
                       Pacific Northwest National Laboratory
                                Richland, WA 99352

                              Copyright (c) 1994-2018
                       Pacific Northwest National Laboratory
                            Battelle Memorial Institute

             NWChem is an open-source computational chemistry package
                        distributed under the terms of the
                      Educational Community License (ECL) 2.0
             A copy of the license is included with this distribution
                              in the LICENSE.TXT file

                                  ACKNOWLEDGMENT
                                  --------------

            This software and its documentation were developed at the
            EMSL at Pacific Northwest National Laboratory, a multiprogram
            national laboratory, operated for the U.S. Department of Energy
            by Battelle under Contract Number DE-AC05-76RL01830. Support
            for this work was provided by the Department of Energy Office
            of Biological and Environmental Research, Office of Basic
            Energy Sciences, and the Office of Advanced Scientific Computing.


           Job information
           ---------------

    hostname        = list1234-B360M-H
    program         = /home/list1234/source/nwchem-6.8.1-release/bin/LINUX64/nwchem
    date            = Sun Jun 30 12:49:57 2019

    compiled        = Sun_Jun_30_11:55:59_2019
    source          = /home/list1234/source/nwchem-6.8.1-release
    nwchem branch   = Development
    nwchem revision = N/A
    ga revision     = 5.6.5
    use scalapack   = T
    input           = /home/list1234/source/nwchem-6.8.1-release/QA/tests/band/band.nw
    prefix          = band.
    data base       = ./band.db
    status          = startup
    nproc           =        4
    time left       =     -1s



           Memory information
           ------------------

    heap     =    2949120 doubles =     22.5 Mbytes
    stack    =    2949117 doubles =     22.5 Mbytes
    global   =    5898240 doubles =     45.0 Mbytes (distinct from heap & stack)
    total    =   11796477 doubles =     90.0 Mbytes
    verify   = yes
    hardfail = no 


           Directory information
           ---------------------

  0 permanent = .
  0 scratch   = .




                                NWChem Input Module
                                -------------------


                               GaN 8 atom cubic cell
                               ---------------------

  !!!!!!!!!  geom_3d NEEDS TESTING !!!!!!!!!! 


                             Geometry "geometry" -> ""
                             -------------------------

 Output coordinates in a.u. (scale by  1.000000000 to convert to a.u.)

  No.       Tag          Charge          X              Y              Z
 ---- ---------------- ---------- -------------- -------------- --------------
    1 Ga                  31.0000     2.96000000     5.12750000     4.82650000
    2 Ga                  31.0000     2.96000000     1.70916701     0.00000000
    3 Ga                  31.0000     0.00000000     6.83666670     0.00000000
    4 Ga                  31.0000     0.00000000     0.00000000     4.82650000
    5 N                    7.0000     2.96000000     5.12750000     8.46568100
    6 N                    7.0000     2.96000000     1.70916701     3.63918100
    7 N                    7.0000     0.00000000     6.83666701     3.63918100
    8 N                    7.0000     0.00000000     0.00000000     8.46568100

      Lattice Parameters 
      ------------------ 

      lattice vectors in a.u. (scale by  1.000000000 to convert to a.u.)

      a1=<   5.920   0.000   0.000 >
      a2=<   0.000  10.255   0.000 >
      a3=<   0.000   0.000   9.653 >
      a=       5.920 b=     10.255 c=       9.653
      alpha=  90.000 beta=  90.000 gamma=  90.000
      omega=   586.0

      reciprocal lattice vectors in a.u.

      b1=<   1.061   0.000  -0.000 >
      b2=<  -0.000   0.613  -0.000 >
      b3=<   0.000   0.000   0.651 >

      Atomic Mass 
      ----------- 

      Ga                68.925700
      N                 14.003070


 ==============================================================================
                                internuclear distances
 ------------------------------------------------------------------------------
       center one      |      center two      | atomic units |       a.u.
 ------------------------------------------------------------------------------
    5 N                |   1 Ga               |     3.63918  |     3.63918
    6 N                |   1 Ga               |     3.61866  |     3.61866
    6 N                |   2 Ga               |     3.63918  |     3.63918
    6 N                |   4 Ga               |     3.61837  |     3.61837
    7 N                |   1 Ga               |     3.61837  |     3.61837
    7 N                |   3 Ga               |     3.63918  |     3.63918
    8 N                |   4 Ga               |     3.63918  |     3.63918
 ------------------------------------------------------------------------------
                         number of included internuclear distances:          7
 ==============================================================================



 ==============================================================================
                                 internuclear angles
 ------------------------------------------------------------------------------
        center 1       |       center 2       |       center 3       |  degrees
 ------------------------------------------------------------------------------
    5 N                |   1 Ga               |   6 N                |   109.15
    5 N                |   1 Ga               |   7 N                |   109.16
    6 N                |   1 Ga               |   7 N                |   109.79
    6 N                |   4 Ga               |   8 N                |   109.16
    1 Ga               |   6 N                |   2 Ga               |   109.15
    1 Ga               |   6 N                |   4 Ga               |   109.79
    2 Ga               |   6 N                |   4 Ga               |   109.16
    1 Ga               |   7 N                |   3 Ga               |   109.16
 ------------------------------------------------------------------------------
                            number of included internuclear angles:          8
 ==============================================================================



          ****************************************************
          *                                                  *
          *               NWPW PSPW Calculation              *
          *                                                  *
          * [ (Grassmann/Stiefel manifold implementation)  ] *
          *                                                  *
          *      [ NorthWest Chemistry implementation ]      *
          *                                                  *
          *            version #5.10   06/12/02              *
          *                                                  *
          *    This code was developed by Eric J. Bylaska,   *
          *    and was based upon algorithms and code        *
          *    developed by the group of Prof. John H. Weare *
          *                                                  *
          ****************************************************
     >>>  JOB STARTED       AT Sun Jun 30 12:49:57 2019  <<<
          ================ input data ========================
  library name resolved from: compiled reference
  NWCHEM_NWPW_LIBRARY set to: </home/list1234/source/nwchem-6.8.1-release/src/nwpw/libraryps/>
 Generating 1d pseudopotential for Ga  

 Generated formatted_filename: ./Ga.vpp
  library name resolved from: compiled reference
  NWCHEM_NWPW_LIBRARY set to: </home/list1234/source/nwchem-6.8.1-release/src/nwpw/libraryps/>
 Generating 1d pseudopotential for N   

 Generated formatted_filename: ./N.vpp
 random planewave guess, initial psi:band.movecs                                       
 -   spin, nalpha, nbeta:                    1                   16                    0

 input psi filename:./band.movecs
 Warning - Gram-Schmidt being performed on psi:   16.000000000000000        10.847036646384625        15.999999999999998        5.1529633536153749     

 number of processors used:         4
 processor grid           :   4 x   1
 parallel mapping         :2d hilbert
 parallel mapping         :  balanced
 number of threads        :         1
 parallel io              :       off

 options:
      boundary conditions  = periodic    (version3)
      electron spin        = restricted
      exchange-correlation = LDA (Vosko et al) parameterization

 elements involved in the cluster:
      1: Ga  valence charge:  3.0000  lmax=  2
             comment    : Hamann pseudopotential
             pseudpotential type            :   0
             highest angular component      :   2
             local potential used           :   2
             number of non-local projections:   4
             cutoff =   1.128   1.506   2.118

      2: N   valence charge:  5.0000  lmax=  2
             comment    : Hamann pseudopotential
             pseudpotential type            :   0
             highest angular component      :   2
             local potential used           :   2
             number of non-local projections:   4
             cutoff =   0.700   0.700   0.700


 total charge:   0.000

 atomic composition:
     Ga  :    4     N   :    4

 number of electrons: spin up=    16 (  16 per task)  down=    16 (  16 per task) (Fourier space)
 number of orbitals : spin up=    16 (  16 per task)  down=    16 (  16 per task) (Fourier space)

 supercell:
      cell_name:  cell_default                                      
      lattice:    a1=<   5.920   0.000   0.000 >
                  a2=<   0.000  10.255   0.000 >
                  a3=<   0.000   0.000   9.653 >
      reciprocal: b1=<   1.061   0.000  -0.000 >
                  b2=<  -0.000   0.613  -0.000 >
                  b3=<   0.000   0.000   0.651 >
      lattice:    a=       5.920 b=     10.255 c=       9.653
                  alpha=  90.000 beta=  90.000 gamma=  90.000
                  omega=       586.0

      density cutoff= 10.000  fft= 16x 16x 16(      446 waves      111 per task)
      wavefnc cutoff= 10.000  fft= 16x 16x 16(      446 waves      111 per task)
      Ewald summation: cut radius=    1.88  and  8
                       Madelung Wigner-Seitz= 1.58898112 (alpha= 2.56142478 rs= 5.19131071)

 technical parameters:
      time step=      5.80     fictitious mass=  400000.0
      tolerance=0.100E-06 (energy)   0.100E-06 (density)
      maximum iterations =      1000 (   10 inner    100 outer )





== Energy Calculation ==


          ============ Grassmann lmbfgs iteration ============
     >>>  ITERATION STARTED AT Sun Jun 30 12:49:57 2019  <<<
    iter.           Energy         DeltaE       DeltaRho 
    ------------------------------------------------------
     -  15 steepest descent iterations performed
      10   -0.4551840167E+02   -0.32084E+00    0.21726E+01
     -  10 steepest descent iterations performed
      20   -0.4654071558E+02   -0.28295E-01    0.49761E-01
     -  10 steepest descent iterations performed
      30   -0.4666675509E+02   -0.70003E-02    0.15626E-01
      40   -0.4670195031E+02   -0.16768E-02    0.94227E-02
      50   -0.4670692578E+02   -0.10357E-03    0.88671E-03
      60   -0.4670729629E+02   -0.11482E-04    0.62973E-04
      70   -0.4670735641E+02   -0.16747E-05    0.20675E-04
      80   -0.4670736093E+02   -0.11501E-06    0.35596E-06
      90   -0.4670736102E+02   -0.89197E-07    0.25555E-08
  *** tolerance ok. iteration terminated
     >>>  ITERATION ENDED   AT Sun Jun 30 12:49:58 2019  <<<


==  Summary Of Results  ==

 number of electrons: spin up=   16.00000  down=   16.00000 (real space)

 total     energy    :  -0.4670736102E+02 (   -0.58384E+01/ion)
 total orbital energy:   0.2046676633E+01 (    0.12792E+00/electron)
 hartree   energy    :   0.9903045056E+01 (    0.61894E+00/electron)
 exc-corr  energy    :  -0.1329223303E+02 (   -0.83076E+00/electron)
 ion-ion   energy    :  -0.4294681362E+02 (   -0.53684E+01/ion)

 kinetic (planewave) :   0.2846762793E+02 (    0.17792E+01/electron)
 V_local (planewave) :  -0.2934403255E+02 (   -0.18340E+01/electron)
 V_nl    (planewave) :   0.5050452032E+00 (    0.31565E-01/electron)
 V_Coul  (planewave) :   0.1980609011E+02 (    0.12379E+01/electron)
 V_xc.   (planewave) :  -0.1738805406E+02 (   -0.10868E+01/electron)
 Virial Coefficient  :  -0.9281051221E+00

 orbital energies:
     0.2993388E+00 (   8.145eV)
     0.2990295E+00 (   8.137eV)
     0.2971382E+00 (   8.086eV)
     0.2628011E+00 (   7.151eV)
     0.2535430E+00 (   6.899eV)
     0.2527836E+00 (   6.879eV)
     0.1947535E+00 (   5.300eV)
     0.1809236E+00 (   4.923eV)
     0.1079718E+00 (   2.938eV)
     0.6384107E-01 (   1.737eV)
     0.1282195E-01 (   0.349eV)
    -0.8698539E-02 (  -0.237eV)
    -0.2553902E+00 (  -6.950eV)
    -0.2824932E+00 (  -7.687eV)
    -0.2865656E+00 (  -7.798eV)
    -0.3684603E+00 ( -10.026eV)

 Total PSPW energy     :  -0.4670736102E+02


=== Spin Contamination ===

 <Sexact^2> =    0.0000000000000000     
 <S^2>      =    0.0000000000000000     



== Center of Charge ==

spin up     (    0.0001,   -0.3785,    0.6527 )
spin down   (    0.0001,   -0.3785,    0.6527 )
     total  (    0.0001,   -0.3785,    0.6527 )
ionic       (    1.4800,    0.8546,    1.6712 )


== Molecular Dipole wrt Center of Mass ==

mu   =  (   47.3584,   39.4586,   32.5914 ) au
|mu| =    69.7280 au,     177.2207 Debye

 output psi filename:./band.movecs


== Timing ==

cputime in seconds
  prologue    :   0.413144E+00
  main loop   :   0.786706E+00
  epilogue    :   0.456002E-02
  total       :   0.120441E+01
  cputime/step:   0.365910E-02       (     215 evalulations,      81 linesearches)


Time spent doing                        total          step       percent
  total time                 :   0.120516E+01  0.560538E-02       100.0 %
  i/o time                   :   0.368562E+00  0.171424E-02        30.6 %
  FFTs                       :   0.401685E-01  0.186830E-03         3.3 %
  dot products               :   0.489501E-01  0.227675E-03         4.1 %
  geodesic                   :   0.723292E-01  0.336415E-03         6.0 %
  ffm_dgemm                  :   0.554028E-02  0.257687E-04         0.5 %
  fmf_dgemm                  :   0.460028E-02  0.213966E-04         0.4 %
  mmm_dgemm                  :   0.124099E-02  0.577202E-05         0.1 %
  m_diagonalize              :   0.402869E-02  0.187381E-04         0.3 %
  exchange correlation       :   0.234542E-01  0.109089E-03         1.9 %
  local pseudopotentials     :   0.248710E-04  0.115679E-06         0.0 %
  non-local pseudopotentials :   0.176233E-01  0.819690E-04         1.5 %
  hartree potentials         :   0.289086E-02  0.134459E-04         0.2 %
  ion-ion interaction        :   0.257689E-01  0.119856E-03         2.1 %
  structure factors          :   0.113077E-02  0.525940E-05         0.1 %
  phase factors              :   0.145590E-04  0.677163E-07         0.0 %
  masking and packing        :   0.209776E+00  0.975705E-03        17.4 %
  queue fft                  :   0.551583E+00  0.256550E-02        45.8 %
  queue fft (serial)         :   0.708005E-01  0.329305E-03         5.9 %
  queue fft (message passing):   0.475631E+00  0.221224E-02        39.5 %
  non-local psp FFM          :   0.109442E-01  0.509034E-04         0.9 %
  non-local psp FMF          :   0.236322E-02  0.109917E-04         0.2 %
  non-local psp FFM A        :   0.697248E-03  0.324301E-05         0.1 %
  non-local psp FFM B        :   0.569180E-02  0.264735E-04         0.5 %

     >>>  JOB COMPLETED     AT Sun Jun 30 12:49:58 2019  <<<

 Task  times  cpu:        1.2s     wall:        1.2s


                                NWChem Input Module
                                -------------------


          **********************************************************
          *                                                        *
          *                   NWPW BAND Calculation                *
          *                                                        *
          *  [(bundled Grassmann/Stiefel manifold implementation)] *
          *                                                        *
          *         [ NorthWest Chemistry implementation ]         *
          *                                                        *
          *                version #1.10   01/31/03                *
          *                                                        *
          *  A pseudopotential plane-wave band structure program   *
          *  with Brillouin zone sampling for optimizing crystals, *
          *  slabs, and polymers.  Developed by Eric J. Bylaska    *
          *  , Edoardo Apra, and Patrick Nichols.                  *
          *                                                        *
          **********************************************************
     >>>  JOB STARTED       AT Sun Jun 30 12:49:58 2019  <<<
          ================ input data ========================

 Generated formatted_filename: ./Ga.cpp

 Generated formatted_filename: ./N.cpp

 + converting wavefunctions from pspw format to band format
 filename converted    : ./band.movecs                                                                                                                                                                                                                                                  
 pspw filename moved to: ./band.movecs.pspw                                                                                                                                                                                                                                             

 input psi filename:./band.movecs

 number of processors used:               4
 processor grid           :   4 x   1 x   1
 parallel mapping         :     2d  hilbert

 options:
      boundary conditions  = periodic    (version3)
      electron spin        = restricted
      exchange-correlation = LDA (Vosko et al) parameterization

 elements involved in the cluster:
      1: Ga    core charge: 3.0  lmax=2
             comment    : Hamann pseudopotential
             pseudpotential type            :   0
             highest angular component      :   2
             local potential used           :   2
             number of non-local projections:   4
             cutoff =   1.128   1.506   2.118
      2: N     core charge: 5.0  lmax=2
             comment    : Hamann pseudopotential
             pseudpotential type            :   0
             highest angular component      :   2
             local potential used           :   2
             number of non-local projections:   4
             cutoff =   0.700   0.700   0.700

 total charge:   0.000

 atomic composition:
     Ga  :  4     N   :  4

 number of electrons: spin up=   16.00  spin down=   16.00 (Fourier space)
 number of orbitals:  spin up=      16  spin down=      16 (Fourier space)

 supercell:
      lattice:    a1=<   5.920   0.000   0.000 >
                  a2=<   0.000  10.255   0.000 >
                  a3=<   0.000   0.000   9.653 >
      reciprocal: b1=<   1.061   0.000  -0.000 >
                  b2=<  -0.000   0.613  -0.000 >
                  b3=<   0.000   0.000   0.651 >

      lattice:    a=   5.920    b=  10.255     c=   9.653
              alpha=  90.000 beta=  90.000 gamma=  90.000
      volume :      586.0
      Ewald summation: cut radius=    1.88  and  8
                        madelung= 1.58898112

 brillouin zone:
      number of zone points:     1
      weight=   1.000  ks=<   0.000   0.000   0.000 >, k=<   0.000   0.000   0.000>

 computational grids:
      density     cutoff= 10.000  fft=  16x  16x  16(      891 waves      222 per task)
      wavefnc   1 cutoff= 10.000  fft=  16x  16x  16(      891 waves      222 per task)

 technical parameters:
      time step=      5.80     fictitious mass=  400000.0
      tolerance=.100E-06 (energy)   0.100E-06 (density)
      maximum iterations =      1000 (   10 inner    100 outer )



= energy calculation =


          ======== bundled Grassmann lmbfgs iteration ========
     >>>  ITERATION STARTED AT Sun Jun 30 12:49:58 2019  <<<
    iter.           Energy         DeltaE       DeltaRho 
    ------------------------------------------------------
     -  10 steepest descent iterations performed
      10   -0.4670736108E+02   -0.38494E-07    0.20046E-09
  *** tolerance ok.    iteration terminated.
     >>>  ITERATION ENDED   AT Sun Jun 30 12:49:58 2019  <<<


          =============  summary of results  =================

 number of electrons: spin up=   16.00000  down=   16.00000 (real space)

 total     energy    :  -0.4670736108E+02 (   -0.58384E+01/ion)
 total orbital energy:   0.2046667576E+01 (    0.12792E+00/electron)
 hartree   energy    :   0.9903035198E+01 (    0.61894E+00/electron)
 exc-corr  energy    :  -0.1329223027E+02 (   -0.83076E+00/electron)
 ion-ion   energy    :  -0.4294681362E+02 (   -0.53684E+01/ion)

 K.S. kinetic energy :   0.2846764876E+02 (    0.17792E+01/electron)
 K.S. V_l  energy    :  -0.2934402738E+02 (   -0.18340E+01/electron)
 K.S. V_nl energy    :   0.5050262291E+00 (    0.31564E-01/electron)
 K.S. V_Hart energy  :   0.1980607040E+02 (    0.12379E+01/electron)
 K.S. V_xc energy    :  -0.1738805042E+02 (   -0.10868E+01/electron)
 K.S. V_so energy    :   0.0000000000E+00 (    0.00000E+00/electron)
 Virial Coefficient  :  -0.9281054929E+00

 Brillouin zone point:      1
    weight=  1.000000
    k     =<   0.000   0.000   0.000> . <b1,b2,b3> 
          =<   0.000   0.000   0.000>

 orbital energies:
     0.2993384E+00 (   8.145eV) occ=1.000
     0.2990292E+00 (   8.137eV) occ=1.000
     0.2971380E+00 (   8.086eV) occ=1.000
     0.2628009E+00 (   7.151eV) occ=1.000
     0.2535428E+00 (   6.899eV) occ=1.000
     0.2527832E+00 (   6.879eV) occ=1.000
     0.1947530E+00 (   5.300eV) occ=1.000
     0.1809234E+00 (   4.923eV) occ=1.000
     0.1079716E+00 (   2.938eV) occ=1.000
     0.6384089E-01 (   1.737eV) occ=1.000
     0.1282172E-01 (   0.349eV) occ=1.000
    -0.8698835E-02 (  -0.237eV) occ=1.000
    -0.2553905E+00 (  -6.950eV) occ=1.000
    -0.2824935E+00 (  -7.687eV) occ=1.000
    -0.2865659E+00 (  -7.798eV) occ=1.000
    -0.3684606E+00 ( -10.026eV) occ=1.000

 Total BAND energy   :  -0.4670736108E+02


=== Spin Contamination ===

 <Sexact^2> =    0.0000000000000000     
 <S^2>      =    0.0000000000000000     


 output psi filename:./band.movecs


== Timing ==

cputime in seconds
  prologue    :   0.182598E+00
  main loop   :   0.460648E-01
  epilogue    :   0.437167E-02
  total       :   0.233035E+00
  cputime/step:   0.329035E-02       (      14 evalulations,       1 linesearches)


Time spent doing                        total          step       percent
  total time                 :   0.233463E+00  0.166759E-01       100.0 %
  i/o time                   :   0.214587E-02  0.153276E-03         0.9 %
  FFTs                       :   0.238662E-02  0.170473E-03         1.0 %
  dot products               :   0.536609E-02  0.383292E-03         2.3 %
  geodesic                   :   0.691624E-03  0.494017E-04         0.3 %
  exchange correlation       :   0.139055E-02  0.993250E-04         0.6 %
  local pseudopotentials     :   0.239470E-04  0.171050E-05         0.0 %
  non-local pseudopotentials :   0.405913E-02  0.289938E-03         1.7 %
  hartree potentials         :   0.648320E-04  0.463086E-05         0.0 %
  ion-ion interaction        :   0.282634E-02  0.201881E-03         1.2 %
  structure factors          :   0.103662E-03  0.740443E-05         0.0 %
  masking and packing        :   0.865755E-02  0.618396E-03         3.7 %
  queue fft                  :   0.299962E-01  0.214259E-02        12.8 %
  queue fft (serial)         :   0.515936E-02  0.368526E-03         2.2 %
  queue fft (message passing):   0.244071E-01  0.174336E-02        10.5 %

     >>>  JOB COMPLETED     AT Sun Jun 30 12:49:58 2019  <<<

 Task  times  cpu:        0.2s     wall:        0.2s


                                NWChem Input Module
                                -------------------


          **********************************************************
          *                                                        *
          *                   NWPW BAND Calculation                *
          *                                                        *
          *  [(bundled Grassmann/Stiefel manifold implementation)] *
          *                                                        *
          *         [ NorthWest Chemistry implementation ]         *
          *                                                        *
          *                version #1.10   01/31/03                *
          *                                                        *
          *  A pseudopotential plane-wave band structure program   *
          *  with Brillouin zone sampling for optimizing crystals, *
          *  slabs, and polymers.  Developed by Eric J. Bylaska    *
          *  , Edoardo Apra, and Patrick Nichols.                  *
          *                                                        *
          **********************************************************
     >>>  JOB STARTED       AT Sun Jun 30 12:49:58 2019  <<<
          ================ input data ========================
 Brillioun Zone Points do not match!
 NB =                     1  not equal                     3

 pseudopotential is not correctly formatted---bad brillioun zone:Ga.cpp                                            

 Generated formatted_filename: ./Ga.cpp
 Brillioun Zone Points do not match!
 NB =                     1  not equal                     3

 pseudopotential is not correctly formatted---bad brillioun zone:N.cpp                                             

 Generated formatted_filename: ./N.cpp

 input psi filename:./band.movecs
Warning - Orthogonalization performed, spin,zone: 1   1
        - error(before)=  0.728560E-02 (  0.159927E+02)
        - error(after)=   0.355271E-14 (  0.160000E+02)
Warning - Orthogonalization performed, spin,zone: 1   2
        - error(before)=  0.124401E-01 (  0.159876E+02)
        - error(after)=   0.000000E+00 (  0.160000E+02)
Warning - Orthogonalization performed, spin,zone: 1   3
        - error(before)=  0.157655E-01 (  0.159842E+02)
        - error(after)=   0.000000E+00 (  0.160000E+02)

 number of processors used:               4
 processor grid           :   4 x   1 x   1
 parallel mapping         :     2d  hilbert

 options:
      boundary conditions  = periodic    (version3)
      electron spin        = restricted
      exchange-correlation = LDA (Vosko et al) parameterization

 elements involved in the cluster:
      1: Ga    core charge: 3.0  lmax=2
             comment    : Hamann pseudopotential
             pseudpotential type            :   0
             highest angular component      :   2
             local potential used           :   2
             number of non-local projections:   4
             cutoff =   1.128   1.506   2.118
      2: N     core charge: 5.0  lmax=2
             comment    : Hamann pseudopotential
             pseudpotential type            :   0
             highest angular component      :   2
             local potential used           :   2
             number of non-local projections:   4
             cutoff =   0.700   0.700   0.700

 total charge:  -0.000

 atomic composition:
     Ga  :  4     N   :  4

 number of electrons: spin up=   16.00  spin down=   16.00 (Fourier space)
 number of orbitals:  spin up=      16  spin down=      16 (Fourier space)

 supercell:
      lattice:    a1=<   5.920   0.000   0.000 >
                  a2=<   0.000  10.255   0.000 >
                  a3=<   0.000   0.000   9.653 >
      reciprocal: b1=<   1.061   0.000  -0.000 >
                  b2=<  -0.000   0.613  -0.000 >
                  b3=<   0.000   0.000   0.651 >

      lattice:    a=   5.920    b=  10.255     c=   9.653
              alpha=  90.000 beta=  90.000 gamma=  90.000
      volume :      586.0
      Ewald summation: cut radius=    1.88  and  8
                        madelung= 1.58898112

 brillouin zone:
      number of zone points:     3
      weight=   0.333  ks=<   0.222   0.000   0.250 >, k=<   0.236   0.000   0.163>
      weight=   0.333  ks=<   0.444   0.000   0.250 >, k=<   0.472   0.000   0.163>
      weight=   0.333  ks=<   0.556   0.333   0.250 >, k=<   0.590   0.204   0.163>

 computational grids:
      density     cutoff= 10.000  fft=  16x  16x  16(      891 waves      222 per task)
      wavefnc   1 cutoff= 10.000  fft=  16x  16x  16(      888 waves      222 per task)
      wavefnc   2 cutoff= 10.000  fft=  16x  16x  16(      883 waves      220 per task)
      wavefnc   3 cutoff= 10.000  fft=  16x  16x  16(      890 waves      224 per task)

 technical parameters:
      time step=      5.80     fictitious mass=  400000.0
      tolerance=.100E-06 (energy)   0.100E-06 (density)
      maximum iterations =      1000 (   10 inner    100 outer )



= energy calculation =


          ======== bundled Grassmann lmbfgs iteration ========
     >>>  ITERATION STARTED AT Sun Jun 30 12:49:59 2019  <<<
    iter.           Energy         DeltaE       DeltaRho 
    ------------------------------------------------------
      10   -0.4751287755E+02   -0.98238E-02    0.60423E-01
     -  10 steepest descent iterations performed
      20   -0.4752521951E+02   -0.30021E-04    0.11980E-03
      30   -0.4752527344E+02   -0.18675E-06    0.31155E-06
      40   -0.4752527351E+02   -0.73741E-07    0.10382E-09
  *** tolerance ok.    iteration terminated.
     >>>  ITERATION ENDED   AT Sun Jun 30 12:49:59 2019  <<<


          =============  summary of results  =================

 number of electrons: spin up=   16.00000  down=   16.00000 (real space)

 total     energy    :  -0.4752527351E+02 (   -0.59407E+01/ion)
 total orbital energy:   0.3222226030E+00 (    0.20139E-01/electron)
 hartree   energy    :   0.8910395968E+01 (    0.55690E+00/electron)
 exc-corr  energy    :  -0.1302181318E+02 (   -0.81386E+00/electron)
 ion-ion   energy    :  -0.4294681362E+02 (   -0.53684E+01/ion)

 K.S. kinetic energy :   0.2620928072E+02 (    0.16381E+01/electron)
 K.S. V_l  energy    :  -0.2787376444E+02 (   -0.17421E+01/electron)
 K.S. V_nl energy    :   0.1197441039E+01 (    0.74840E-01/electron)
 K.S. V_Hart energy  :   0.1782079194E+02 (    0.11138E+01/electron)
 K.S. V_xc energy    :  -0.1703152665E+02 (   -0.10645E+01/electron)
 K.S. V_so energy    :   0.0000000000E+00 (    0.00000E+00/electron)
 Virial Coefficient  :  -0.9877057823E+00

 Brillouin zone point:      1
    weight=  0.333333
    k     =<   0.222   0.000   0.250> . <b1,b2,b3> 
          =<   0.236   0.000   0.163>

 orbital energies:
     0.2386202E+00 (   6.493eV) occ=1.000
     0.2359344E+00 (   6.420eV) occ=1.000
     0.1985560E+00 (   5.403eV) occ=1.000
     0.1883712E+00 (   5.126eV) occ=1.000
     0.1543047E+00 (   4.199eV) occ=1.000
     0.1479483E+00 (   4.026eV) occ=1.000
     0.1425457E+00 (   3.879eV) occ=1.000
     0.1320900E+00 (   3.594eV) occ=1.000
     0.7970966E-01 (   2.169eV) occ=1.000
     0.2877725E-01 (   0.783eV) occ=1.000
     0.2335951E-01 (   0.636eV) occ=1.000
     0.9027492E-02 (   0.246eV) occ=1.000
    -0.2983556E+00 (  -8.119eV) occ=1.000
    -0.3096058E+00 (  -8.425eV) occ=1.000
    -0.3236061E+00 (  -8.806eV) occ=1.000
    -0.3723691E+00 ( -10.133eV) occ=1.000

 Brillouin zone point:      2
    weight=  0.333333
    k     =<   0.444   0.000   0.250> . <b1,b2,b3> 
          =<   0.472   0.000   0.163>

 orbital energies:
     0.2160183E+00 (   5.878eV) occ=1.000
     0.1964945E+00 (   5.347eV) occ=1.000
     0.1733821E+00 (   4.718eV) occ=1.000
     0.1500417E+00 (   4.083eV) occ=1.000
     0.1386718E+00 (   3.773eV) occ=1.000
     0.1242906E+00 (   3.382eV) occ=1.000
     0.1223923E+00 (   3.330eV) occ=1.000
     0.8035734E-01 (   2.187eV) occ=1.000
     0.4493182E-01 (   1.223eV) occ=1.000
     0.2676480E-01 (   0.728eV) occ=1.000
     0.2024353E-01 (   0.551eV) occ=1.000
     0.1859342E-01 (   0.506eV) occ=1.000
    -0.2972945E+00 (  -8.090eV) occ=1.000
    -0.3008529E+00 (  -8.187eV) occ=1.000
    -0.3129175E+00 (  -8.515eV) occ=1.000
    -0.3317785E+00 (  -9.028eV) occ=1.000

 Brillouin zone point:      3
    weight=  0.333333
    k     =<   0.556   0.333   0.250> . <b1,b2,b3> 
          =<   0.590   0.204   0.163>

 orbital energies:
     0.2103503E+00 (   5.724eV) occ=1.000
     0.2003383E+00 (   5.452eV) occ=1.000
     0.1974940E+00 (   5.374eV) occ=1.000
     0.1840667E+00 (   5.009eV) occ=1.000
     0.1600432E+00 (   4.355eV) occ=1.000
     0.1526268E+00 (   4.153eV) occ=1.000
     0.1169439E+00 (   3.182eV) occ=1.000
     0.1168500E+00 (   3.180eV) occ=1.000
     0.2996245E-01 (   0.815eV) occ=1.000
     0.2243811E-01 (   0.611eV) occ=1.000
    -0.2980364E-02 (  -0.081eV) occ=1.000
    -0.7210053E-02 (  -0.196eV) occ=1.000
    -0.2989195E+00 (  -8.134eV) occ=1.000
    -0.3005917E+00 (  -8.180eV) occ=1.000
    -0.3162642E+00 (  -8.606eV) occ=1.000
    -0.3264608E+00 (  -8.884eV) occ=1.000

 Total BAND energy   :  -0.4752527351E+02


=== Spin Contamination ===

 <Sexact^2> =    0.0000000000000000     
 <S^2>      =    0.0000000000000000     


 output psi filename:./band.movecs


== Timing ==

cputime in seconds
  prologue    :   0.311744E+00
  main loop   :   0.831027E+00
  epilogue    :   0.112012E-01
  total       :   0.115397E+01
  cputime/step:   0.103878E-01       (      80 evalulations,      31 linesearches)


Time spent doing                        total          step       percent
  total time                 :   0.115439E+01  0.144299E-01       100.0 %
  i/o time                   :   0.201833E-02  0.252291E-04         0.2 %
  FFTs                       :   0.150565E-01  0.188206E-03         1.3 %
  dot products               :   0.225288E+00  0.281610E-02        19.5 %
  geodesic                   :   0.122552E+00  0.153190E-02        10.6 %
  exchange correlation       :   0.815111E-02  0.101889E-03         0.7 %
  local pseudopotentials     :   0.256410E-04  0.320512E-06         0.0 %
  non-local pseudopotentials :   0.700051E-01  0.875064E-03         6.1 %
  hartree potentials         :   0.127608E-02  0.159511E-04         0.1 %
  ion-ion interaction        :   0.123025E-01  0.153781E-03         1.1 %
  structure factors          :   0.168685E-02  0.210856E-04         0.1 %
  masking and packing        :   0.151789E+00  0.189737E-02        13.1 %
  queue fft                  :   0.550942E+00  0.688677E-02        47.7 %
  queue fft (serial)         :   0.827417E-01  0.103427E-02         7.2 %
  queue fft (message passing):   0.460704E+00  0.575880E-02        39.9 %

     >>>  JOB COMPLETED     AT Sun Jun 30 12:49:59 2019  <<<

 Task  times  cpu:        1.1s     wall:        1.2s


                                NWChem Input Module
                                -------------------


          **********************************************************
          *                                                        *
          *                   NWPW BAND Calculation                *
          *                                                        *
          *  [(bundled Grassmann/Stiefel manifold implementation)] *
          *                                                        *
          *         [ NorthWest Chemistry implementation ]         *
          *                                                        *
          *                version #1.10   01/31/03                *
          *                                                        *
          *  A pseudopotential plane-wave band structure program   *
          *  with Brillouin zone sampling for optimizing crystals, *
          *  slabs, and polymers.  Developed by Eric J. Bylaska    *
          *  , Edoardo Apra, and Patrick Nichols.                  *
          *                                                        *
          **********************************************************
     >>>  JOB STARTED       AT Sun Jun 30 12:49:59 2019  <<<
          ================ input data ========================
 Brillioun Zone Points do not match!
 NB =                     3  not equal                     1

 pseudopotential is not correctly formatted---bad brillioun zone:Ga.cpp                                            

 Generated formatted_filename: ./Ga.cpp
 Brillioun Zone Points do not match!
 NB =                     3  not equal                     1

 pseudopotential is not correctly formatted---bad brillioun zone:N.cpp                                             

 Generated formatted_filename: ./N.cpp

 input psi filename:./band.movecs
Warning - Orthogonalization performed, spin,zone: 1   1
        - error(before)=  0.812913E-02 (  0.159919E+02)
        - error(after)=   0.000000E+00 (  0.160000E+02)

 number of processors used:               4
 processor grid           :   4 x   1 x   1
 parallel mapping         :     2d  hilbert

 options:
      boundary conditions  = periodic    (version3)
      electron spin        = restricted
      exchange-correlation = LDA (Vosko et al) parameterization

 elements involved in the cluster:
      1: Ga    core charge: 3.0  lmax=2
             comment    : Hamann pseudopotential
             pseudpotential type            :   0
             highest angular component      :   2
             local potential used           :   2
             number of non-local projections:   4
             cutoff =   1.128   1.506   2.118
      2: N     core charge: 5.0  lmax=2
             comment    : Hamann pseudopotential
             pseudpotential type            :   0
             highest angular component      :   2
             local potential used           :   2
             number of non-local projections:   4
             cutoff =   0.700   0.700   0.700

 total charge:   0.000

 atomic composition:
     Ga  :  4     N   :  4

 number of electrons: spin up=   16.00  spin down=   16.00 (Fourier space)
 number of orbitals:  spin up=      16  spin down=      16 (Fourier space)

 supercell:
      lattice:    a1=<   5.920   0.000   0.000 >
                  a2=<   0.000  10.255   0.000 >
                  a3=<   0.000   0.000   9.653 >
      reciprocal: b1=<   1.061   0.000  -0.000 >
                  b2=<  -0.000   0.613  -0.000 >
                  b3=<   0.000   0.000   0.651 >

      lattice:    a=   5.920    b=  10.255     c=   9.653
              alpha=  90.000 beta=  90.000 gamma=  90.000
      volume :      586.0
      Ewald summation: cut radius=    1.88  and  8
                        madelung= 1.58898112

 brillouin zone:
      number of zone points:     1
      weight=   1.000  ks=<   0.500   0.500   0.500 >, k=<   0.531   0.306   0.325>

 computational grids:
      density     cutoff= 10.000  fft=  16x  16x  16(      891 waves      222 per task)
      wavefnc   1 cutoff= 10.000  fft=  16x  16x  16(      896 waves      224 per task)

 technical parameters:
      time step=      5.80     fictitious mass=  400000.0
      tolerance=.100E-06 (energy)   0.100E-06 (density)
      maximum iterations =      1000 (   10 inner    100 outer )



= energy calculation =


          ======== bundled Grassmann lmbfgs iteration ========
     >>>  ITERATION STARTED AT Sun Jun 30 12:50:00 2019  <<<
    iter.           Energy         DeltaE       DeltaRho 
    ------------------------------------------------------
      10   -0.4740236636E+02   -0.13672E-01    0.74217E-02
     -  10 steepest descent iterations performed
      20   -0.4742718688E+02   -0.10418E-03    0.13498E-03
      30   -0.4742731913E+02   -0.10938E-06    0.68949E-06
      40   -0.4742731917E+02   -0.40881E-07    0.51209E-10
  *** tolerance ok.    iteration terminated.
     >>>  ITERATION ENDED   AT Sun Jun 30 12:50:00 2019  <<<


          =============  summary of results  =================

 number of electrons: spin up=   16.00000  down=   16.00000 (real space)

 total     energy    :  -0.4742731917E+02 (   -0.59284E+01/ion)
 total orbital energy:   0.7586445961E+00 (    0.47415E-01/electron)
 hartree   energy    :   0.9281870269E+01 (    0.58012E+00/electron)
 exc-corr  energy    :  -0.1312573059E+02 (   -0.82036E+00/electron)
 ion-ion   energy    :  -0.4294681362E+02 (   -0.53684E+01/ion)

 K.S. kinetic energy :   0.2676818466E+02 (    0.16730E+01/electron)
 K.S. V_l  energy    :  -0.2841542073E+02 (   -0.17760E+01/electron)
 K.S. V_nl energy    :   0.1010590852E+01 (    0.63162E-01/electron)
 K.S. V_Hart energy  :   0.1856374054E+02 (    0.11602E+01/electron)
 K.S. V_xc energy    :  -0.1716845072E+02 (   -0.10730E+01/electron)
 K.S. V_so energy    :   0.0000000000E+00 (    0.00000E+00/electron)
 Virial Coefficient  :  -0.9716587208E+00

 Brillouin zone point:      1
    weight=  1.000000
    k     =<   0.500   0.500   0.500> . <b1,b2,b3> 
          =<   0.531   0.306   0.325>

 orbital energies:
     0.1997718E+00 (   5.436eV) occ=1.000
     0.1997715E+00 (   5.436eV) occ=1.000
     0.1965675E+00 (   5.349eV) occ=1.000
     0.1965670E+00 (   5.349eV) occ=1.000
     0.1962106E+00 (   5.339eV) occ=1.000
     0.1962102E+00 (   5.339eV) occ=1.000
     0.1943240E+00 (   5.288eV) occ=1.000
     0.1943238E+00 (   5.288eV) occ=1.000
    -0.3456436E-02 (  -0.094eV) occ=1.000
    -0.3456933E-02 (  -0.094eV) occ=1.000
    -0.3851197E-02 (  -0.105eV) occ=1.000
    -0.3851958E-02 (  -0.105eV) occ=1.000
    -0.2942165E+00 (  -8.006eV) occ=1.000
    -0.2942166E+00 (  -8.006eV) occ=1.000
    -0.2956871E+00 (  -8.046eV) occ=1.000
    -0.2956872E+00 (  -8.046eV) occ=1.000

 Total BAND energy   :  -0.4742731917E+02


=== Spin Contamination ===

 <Sexact^2> =    0.0000000000000000     
 <S^2>      =    0.0000000000000000     


 output psi filename:./band.movecs


== Timing ==

cputime in seconds
  prologue    :   0.188638E+00
  main loop   :   0.272549E+00
  epilogue    :   0.489458E-02
  total       :   0.466081E+00
  cputime/step:   0.340686E-02       (      80 evalulations,      31 linesearches)


Time spent doing                        total          step       percent
  total time                 :   0.466499E+00  0.583123E-02       100.0 %
  i/o time                   :   0.198998E-02  0.248748E-04         0.4 %
  FFTs                       :   0.149850E-01  0.187313E-03         3.2 %
  dot products               :   0.956674E-01  0.119584E-02        20.5 %
  geodesic                   :   0.570627E-01  0.713283E-03        12.2 %
  exchange correlation       :   0.834033E-02  0.104254E-03         1.8 %
  local pseudopotentials     :   0.245910E-04  0.307388E-06         0.0 %
  non-local pseudopotentials :   0.256551E-01  0.320688E-03         5.5 %
  hartree potentials         :   0.115307E-02  0.144134E-04         0.2 %
  ion-ion interaction        :   0.118196E-01  0.147746E-03         2.5 %
  structure factors          :   0.547245E-03  0.684056E-05         0.1 %
  masking and packing        :   0.474764E-02  0.593455E-04         1.0 %
  queue fft                  :   0.133553E+00  0.166942E-02        28.6 %
  queue fft (serial)         :   0.275652E-01  0.344565E-03         5.9 %
  queue fft (message passing):   0.103724E+00  0.129655E-02        22.2 %

     >>>  JOB COMPLETED     AT Sun Jun 30 12:50:00 2019  <<<

 Task  times  cpu:        0.4s     wall:        0.5s


                                NWChem Input Module
                                -------------------


          **********************************************************
          *                                                        *
          *                   NWPW BAND Calculation                *
          *                                                        *
          *  [(bundled Grassmann/Stiefel manifold implementation)] *
          *                                                        *
          *         [ NorthWest Chemistry implementation ]         *
          *                                                        *
          *                version #1.10   01/31/03                *
          *                                                        *
          *  A pseudopotential plane-wave band structure program   *
          *  with Brillouin zone sampling for optimizing crystals, *
          *  slabs, and polymers.  Developed by Eric J. Bylaska    *
          *  , Edoardo Apra, and Patrick Nichols.                  *
          *                                                        *
          **********************************************************
     >>>  JOB STARTED       AT Sun Jun 30 12:50:00 2019  <<<
          ================ input data ========================
 Brillioun Zone Vectors do not match!

 pseudopotential is not correctly formatted---bad brillioun zone:Ga.cpp                                            

 Generated formatted_filename: ./Ga.cpp
 Brillioun Zone Vectors do not match!

 pseudopotential is not correctly formatted---bad brillioun zone:N.cpp                                             

 Generated formatted_filename: ./N.cpp

 input psi filename:./band.movecs
Warning - Orthogonalization performed, spin,zone: 1   1
        - error(before)=  0.161135E-01 (  0.159839E+02)
        - error(after)=   0.000000E+00 (  0.160000E+02)

 number of processors used:               4
 processor grid           :   4 x   1 x   1
 parallel mapping         :     2d  hilbert

 options:
      boundary conditions  = periodic    (version3)
      electron spin        = restricted
      exchange-correlation = LDA (Vosko et al) parameterization

 elements involved in the cluster:
      1: Ga    core charge: 3.0  lmax=2
             comment    : Hamann pseudopotential
             pseudpotential type            :   0
             highest angular component      :   2
             local potential used           :   2
             number of non-local projections:   4
             cutoff =   1.128   1.506   2.118
      2: N     core charge: 5.0  lmax=2
             comment    : Hamann pseudopotential
             pseudpotential type            :   0
             highest angular component      :   2
             local potential used           :   2
             number of non-local projections:   4
             cutoff =   0.700   0.700   0.700

 total charge:   0.000

 atomic composition:
     Ga  :  4     N   :  4

 number of electrons: spin up=   16.00  spin down=   16.00 (Fourier space)
 number of orbitals:  spin up=      16  spin down=      16 (Fourier space)

 supercell:
      lattice:    a1=<   5.920   0.000   0.000 >
                  a2=<   0.000  10.255   0.000 >
                  a3=<   0.000   0.000   9.653 >
      reciprocal: b1=<   1.061   0.000  -0.000 >
                  b2=<  -0.000   0.613  -0.000 >
                  b3=<   0.000   0.000   0.651 >

      lattice:    a=   5.920    b=  10.255     c=   9.653
              alpha=  90.000 beta=  90.000 gamma=  90.000
      volume :      586.0
      Ewald summation: cut radius=    1.88  and  8
                        madelung= 1.58898112

 brillouin zone:
      number of zone points:     1
      weight=   1.000  ks=<   0.000   0.000   0.000 >, k=<   0.000   0.000   0.000>

 computational grids:
      density     cutoff= 10.000  fft=  16x  16x  16(      891 waves      222 per task)
      wavefnc   1 cutoff= 10.000  fft=  16x  16x  16(      891 waves      222 per task)

 technical parameters:
      time step=      5.80     fictitious mass=  400000.0
      tolerance=.100E-08 (energy)   0.100E-08 (density)
      maximum iterations =      1000 (   10 inner    100 outer )



= energy calculation =


          ======== bundled Grassmann lmbfgs iteration ========
     >>>  ITERATION STARTED AT Sun Jun 30 12:50:00 2019  <<<
    iter.           Energy         DeltaE       DeltaRho 
    ------------------------------------------------------
      10   -0.4664391547E+02   -0.26439E-01    0.56455E-01
     -  10 steepest descent iterations performed
      20   -0.4669936782E+02   -0.77871E-03    0.61672E-03
      30   -0.4670665603E+02   -0.36684E-03    0.31210E-03
      40   -0.4670735088E+02   -0.47321E-05    0.33231E-05
      50   -0.4670736049E+02   -0.21981E-06    0.20666E-06
      60   -0.4670736135E+02   -0.30433E-07    0.20228E-07
      70   -0.4670736149E+02   -0.34863E-08    0.33111E-08
      80   -0.4670736150E+02   -0.90854E-09    0.39924E-10
  *** tolerance ok.    iteration terminated.
     >>>  ITERATION ENDED   AT Sun Jun 30 12:50:01 2019  <<<


          =============  summary of results  =================

 number of electrons: spin up=   16.00000  down=   16.00000 (real space)

 total     energy    :  -0.4670736150E+02 (   -0.58384E+01/ion)
 total orbital energy:   0.2046625854E+01 (    0.12791E+00/electron)
 hartree   energy    :   0.9902990493E+01 (    0.61894E+00/electron)
 exc-corr  energy    :  -0.1329221954E+02 (   -0.83076E+00/electron)
 ion-ion   energy    :  -0.4294681362E+02 (   -0.53684E+01/ion)

 K.S. kinetic energy :   0.2846762916E+02 (    0.17792E+01/electron)
 K.S. V_l  energy    :  -0.2934396851E+02 (   -0.18340E+01/electron)
 K.S. V_nl energy    :   0.5050205177E+00 (    0.31564E-01/electron)
 K.S. V_Hart energy  :   0.1980598099E+02 (    0.12379E+01/electron)
 K.S. V_xc energy    :  -0.1738803629E+02 (   -0.10868E+01/electron)
 K.S. V_so energy    :   0.0000000000E+00 (    0.00000E+00/electron)
 Virial Coefficient  :  -0.9281069090E+00

 Brillouin zone point:      1
    weight=  1.000000
    k     =<   0.000   0.000   0.000> . <b1,b2,b3> 
          =<   0.000   0.000   0.000>

 orbital energies:
     0.2993371E+00 (   8.145eV) occ=1.000
     0.2990274E+00 (   8.137eV) occ=1.000
     0.2971361E+00 (   8.086eV) occ=1.000
     0.2627993E+00 (   7.151eV) occ=1.000
     0.2535414E+00 (   6.899eV) occ=1.000
     0.2527818E+00 (   6.879eV) occ=1.000
     0.1947527E+00 (   5.300eV) occ=1.000
     0.1809222E+00 (   4.923eV) occ=1.000
     0.1079712E+00 (   2.938eV) occ=1.000
     0.6383896E-01 (   1.737eV) occ=1.000
     0.1282093E-01 (   0.349eV) occ=1.000
    -0.8698667E-02 (  -0.237eV) occ=1.000
    -0.2553925E+00 (  -6.950eV) occ=1.000
    -0.2824955E+00 (  -7.687eV) occ=1.000
    -0.2865675E+00 (  -7.798eV) occ=1.000
    -0.3684620E+00 ( -10.026eV) occ=1.000

 Total BAND energy   :  -0.4670736150E+02


=== Spin Contamination ===

 <Sexact^2> =    0.0000000000000000     
 <S^2>      =    0.0000000000000000     


 output psi filename:./band.movecs


== Timing ==

cputime in seconds
  prologue    :   0.185581E+00
  main loop   :   0.771859E+00
  epilogue    :   0.446178E-02
  total       :   0.961902E+00
  cputime/step:   0.448755E-02       (     172 evalulations,      73 linesearches)


Time spent doing                        total          step       percent
  total time                 :   0.962578E+00  0.559638E-02       100.0 %
  i/o time                   :   0.223602E-02  0.130001E-04         0.2 %
  FFTs                       :   0.291279E-01  0.169348E-03         3.0 %
  dot products               :   0.430835E+00  0.250485E-02        44.8 %
  geodesic                   :   0.246317E+00  0.143208E-02        25.6 %
  exchange correlation       :   0.174664E-01  0.101549E-03         1.8 %
  local pseudopotentials     :   0.238870E-04  0.138878E-06         0.0 %
  non-local pseudopotentials :   0.479905E-01  0.279015E-03         5.0 %
  hartree potentials         :   0.245115E-02  0.142508E-04         0.3 %
  ion-ion interaction        :   0.227839E-01  0.132465E-03         2.4 %
  structure factors          :   0.107175E-02  0.623113E-05         0.1 %
  masking and packing        :   0.998653E-01  0.580612E-03        10.4 %
  queue fft                  :   0.366379E+00  0.213011E-02        38.1 %
  queue fft (serial)         :   0.635511E-01  0.369483E-03         6.6 %
  queue fft (message passing):   0.298260E+00  0.173407E-02        31.0 %

     >>>  JOB COMPLETED     AT Sun Jun 30 12:50:01 2019  <<<

 Task  times  cpu:        1.0s     wall:        1.0s


                                NWChem Input Module
                                -------------------


          **********************************************************
          *                                                        *
          *                   NWPW BAND Calculation                *
          *                                                        *
          *  [(bundled Grassmann/Stiefel manifold implementation)] *
          *                                                        *
          *         [ NorthWest Chemistry implementation ]         *
          *                                                        *
          *                version #1.10   01/31/03                *
          *                                                        *
          *  A pseudopotential plane-wave band structure program   *
          *  with Brillouin zone sampling for optimizing crystals, *
          *  slabs, and polymers.  Developed by Eric J. Bylaska    *
          *  , Edoardo Apra, and Patrick Nichols.                  *
          *                                                        *
          **********************************************************
     >>>  JOB STARTED       AT Sun Jun 30 12:50:01 2019  <<<
          ================ input data ========================
 Brillioun Zone Vectors do not match!

 pseudopotential is not correctly formatted---bad brillioun zone:Ga.cpp                                            

 Generated formatted_filename: ./Ga.cpp
 Brillioun Zone Vectors do not match!

 pseudopotential is not correctly formatted---bad brillioun zone:N.cpp                                             

 Generated formatted_filename: ./N.cpp

 input psi filename:./band.movecs
Warning - Orthogonalization performed, spin,zone: 1   1
        - error(before)=  0.746075E-02 (  0.159925E+02)
        - error(after)=   0.355271E-14 (  0.160000E+02)

 number of processors used:               4
 processor grid           :   4 x   1 x   1
 parallel mapping         :     2d  hilbert

 options:
      boundary conditions  = periodic    (version3)
      electron spin        = restricted
      exchange-correlation = LDA (Vosko et al) parameterization

 elements involved in the cluster:
      1: Ga    core charge: 3.0  lmax=2
             comment    : Hamann pseudopotential
             pseudpotential type            :   0
             highest angular component      :   2
             local potential used           :   2
             number of non-local projections:   4
             cutoff =   1.128   1.506   2.118
      2: N     core charge: 5.0  lmax=2
             comment    : Hamann pseudopotential
             pseudpotential type            :   0
             highest angular component      :   2
             local potential used           :   2
             number of non-local projections:   4
             cutoff =   0.700   0.700   0.700

 total charge:   0.000

 atomic composition:
     Ga  :  4     N   :  4

 number of electrons: spin up=   16.00  spin down=   16.00 (Fourier space)
 number of orbitals:  spin up=      16  spin down=      16 (Fourier space)

 supercell:
      lattice:    a1=<   5.920   0.000   0.000 >
                  a2=<   0.000  10.255   0.000 >
                  a3=<   0.000   0.000   9.653 >
      reciprocal: b1=<   1.061   0.000  -0.000 >
                  b2=<  -0.000   0.613  -0.000 >
                  b3=<   0.000   0.000   0.651 >

      lattice:    a=   5.920    b=  10.255     c=   9.653
              alpha=  90.000 beta=  90.000 gamma=  90.000
      volume :      586.0
      Ewald summation: cut radius=    1.88  and  8
                        madelung= 1.58898112

 brillouin zone:
      number of zone points:     1
      weight=   1.000  ks=<   0.250  -0.000  -0.000 >, k=<   0.265   0.000  -0.000>

 computational grids:
      density     cutoff= 10.000  fft=  16x  16x  16(      891 waves      222 per task)
      wavefnc   1 cutoff= 10.000  fft=  16x  16x  16(      878 waves      219 per task)

 technical parameters:
      time step=      5.80     fictitious mass=  400000.0
      tolerance=.100E-08 (energy)   0.100E-08 (density)
      maximum iterations =      1000 (   10 inner    100 outer )



= energy calculation =


          ======== bundled Grassmann lmbfgs iteration ========
     >>>  ITERATION STARTED AT Sun Jun 30 12:50:01 2019  <<<
    iter.           Energy         DeltaE       DeltaRho 
    ------------------------------------------------------
      10   -0.4737384993E+02   -0.48773E-02    0.51020E-01
     -  10 steepest descent iterations performed
      20   -0.4737922836E+02   -0.98759E-05    0.43689E-04
      30   -0.4737924287E+02   -0.51489E-07    0.49137E-06
      40   -0.4737924291E+02   -0.63694E-09    0.53980E-09
  *** tolerance ok.    iteration terminated.
     >>>  ITERATION ENDED   AT Sun Jun 30 12:50:01 2019  <<<


          =============  summary of results  =================

 number of electrons: spin up=   16.00000  down=   16.00000 (real space)

 total     energy    :  -0.4737924291E+02 (   -0.59224E+01/ion)
 total orbital energy:   0.5288923647E+00 (    0.33056E-01/electron)
 hartree   energy    :   0.8975570048E+01 (    0.56097E+00/electron)
 exc-corr  energy    :  -0.1303597405E+02 (   -0.81475E+00/electron)
 ion-ion   energy    :  -0.4294681362E+02 (   -0.53684E+01/ion)

 K.S. kinetic energy :   0.2638701916E+02 (    0.16492E+01/electron)
 K.S. V_l  energy    :  -0.2800395284E+02 (   -0.17502E+01/electron)
 K.S. V_nl energy    :   0.1244908387E+01 (    0.77807E-01/electron)
 K.S. V_Hart energy  :   0.1795114010E+02 (    0.11219E+01/electron)
 K.S. V_xc energy    :  -0.1705022244E+02 (   -0.10656E+01/electron)
 K.S. V_so energy    :   0.0000000000E+00 (    0.00000E+00/electron)
 Virial Coefficient  :  -0.9799563429E+00

 Brillouin zone point:      1
    weight=  1.000000
    k     =<   0.250  -0.000  -0.000> . <b1,b2,b3> 
          =<   0.265   0.000  -0.000>

 orbital energies:
     0.2500811E+00 (   6.805eV) occ=1.000
     0.2468942E+00 (   6.718eV) occ=1.000
     0.1955833E+00 (   5.322eV) occ=1.000
     0.1583612E+00 (   4.309eV) occ=1.000
     0.1537242E+00 (   4.183eV) occ=1.000
     0.1395031E+00 (   3.796eV) occ=1.000
     0.1239759E+00 (   3.374eV) occ=1.000
     0.1223710E+00 (   3.330eV) occ=1.000
     0.6848277E-01 (   1.864eV) occ=1.000
     0.5284451E-01 (   1.438eV) occ=1.000
     0.2723204E-01 (   0.741eV) occ=1.000
     0.4393279E-02 (   0.120eV) occ=1.000
    -0.2937387E+00 (  -7.993eV) occ=1.000
    -0.3045660E+00 (  -8.288eV) occ=1.000
    -0.3072704E+00 (  -8.361eV) occ=1.000
    -0.3734252E+00 ( -10.161eV) occ=1.000

 Total BAND energy   :  -0.4737924291E+02


=== Spin Contamination ===

 <Sexact^2> =    0.0000000000000000     
 <S^2>      =    0.0000000000000000     


 output psi filename:./band.movecs


== Timing ==

cputime in seconds
  prologue    :   0.180453E+00
  main loop   :   0.311876E+00
  epilogue    :   0.431383E-02
  total       :   0.496643E+00
  cputime/step:   0.346529E-02       (      90 evalulations,      36 linesearches)


Time spent doing                        total          step       percent
  total time                 :   0.497073E+00  0.552303E-02       100.0 %
  i/o time                   :   0.199845E-02  0.222051E-04         0.4 %
  FFTs                       :   0.163322E-01  0.181469E-03         3.3 %
  dot products               :   0.588859E-01  0.654288E-03        11.8 %
  geodesic                   :   0.376387E-01  0.418208E-03         7.6 %
  exchange correlation       :   0.914977E-02  0.101664E-03         1.8 %
  local pseudopotentials     :   0.238630E-04  0.265144E-06         0.0 %
  non-local pseudopotentials :   0.259642E-01  0.288491E-03         5.2 %
  hartree potentials         :   0.123548E-02  0.137276E-04         0.2 %
  ion-ion interaction        :   0.114288E-01  0.126987E-03         2.3 %
  structure factors          :   0.579057E-03  0.643397E-05         0.1 %
  masking and packing        :   0.524524E-01  0.582805E-03        10.6 %
  queue fft                  :   0.188573E+00  0.209525E-02        37.9 %
  queue fft (serial)         :   0.305786E-01  0.339762E-03         6.2 %
  queue fft (message passing):   0.155625E+00  0.172917E-02        31.3 %

     >>>  JOB COMPLETED     AT Sun Jun 30 12:50:01 2019  <<<

 Task  times  cpu:        0.5s     wall:        0.5s


                                NWChem Input Module
                                -------------------


 Summary of allocated global arrays
-----------------------------------
  No active global arrays



                         GA Statistics for process    0
                         ------------------------------

       create   destroy   get      put      acc     scatter   gather  read&inc
calls:    0        0        0        0        0        0        0        0     
number of processes/call 0.00e+00 0.00e+00 0.00e+00 0.00e+00 0.00e+00
bytes total:             0.00e+00 0.00e+00 0.00e+00 0.00e+00 0.00e+00 0.00e+00
bytes remote:            0.00e+00 0.00e+00 0.00e+00 0.00e+00 0.00e+00 0.00e+00
Max memory consumed for GA by this process: 0 bytes

MA_summarize_allocated_blocks: starting scan ...
MA_summarize_allocated_blocks: scan completed: 0 heap blocks, 0 stack blocks
MA usage statistics:

	allocation statistics:
					      heap	     stack
					      ----	     -----
	current number of blocks	         0	         0
	maximum number of blocks	       275	        10
	current total bytes		         0	         0
	maximum total bytes		   3149352	    800136
	maximum total K-bytes		      3150	       801
	maximum total M-bytes		         4	         1


                                     CITATION
                                     --------
                Please cite the following reference when publishing
                           results obtained with NWChem:

                 M. Valiev, E.J. Bylaska, N. Govind, K. Kowalski,
              T.P. Straatsma, H.J.J. van Dam, D. Wang, J. Nieplocha,
                        E. Apra, T.L. Windus, W.A. de Jong
                 "NWChem: a comprehensive and scalable open-source
                  solution for large scale molecular simulations"
                      Comput. Phys. Commun. 181, 1477 (2010)
                           doi:10.1016/j.cpc.2010.04.018

                                      AUTHORS
                                      -------
          E. Apra, E. J. Bylaska, W. A. de Jong, N. Govind, K. Kowalski,
       T. P. Straatsma, M. Valiev, H. J. J. van Dam, D. Wang, T. L. Windus,
        J. Hammond, J. Autschbach, K. Bhaskaran-Nair, J. Brabec, K. Lopata,
    S. A. Fischer, S. Krishnamoorthy, M. Jacquelin, W. Ma, M. Klemm, O. Villa,
      Y. Chen, V. Anisimov, F. Aquino, S. Hirata, M. T. Hackler, V. Konjkov,
            D. Mejia-Rodriguez, T. Risthaus, M. Malagoli, A. Marenich,
   A. Otero-de-la-Roza, J. Mullin, P. Nichols, R. Peverati, J. Pittner, Y. Zhao,
        P.-D. Fan, A. Fonari, M. J. Williamson, R. J. Harrison, J. R. Rehr,
      M. Dupuis, D. Silverstein, D. M. A. Smith, J. Nieplocha, V. Tipparaju,
    M. Krishnan, B. E. Van Kuiken, A. Vazquez-Mayagoitia, L. Jensen, M. Swart,
      Q. Wu, T. Van Voorhis, A. A. Auer, M. Nooijen, L. D. Crosby, E. Brown,
      G. Cisneros, G. I. Fann, H. Fruchtl, J. Garza, K. Hirao, R. A. Kendall,
      J. A. Nichols, K. Tsemekhman, K. Wolinski, J. Anchell, D. E. Bernholdt,
      P. Borowski, T. Clark, D. Clerc, H. Dachsel, M. J. O. Deegan, K. Dyall,
    D. Elwood, E. Glendening, M. Gutowski, A. C. Hess, J. Jaffe, B. G. Johnson,
     J. Ju, R. Kobayashi, R. Kutteh, Z. Lin, R. Littlefield, X. Long, B. Meng,
      T. Nakajima, S. Niu, L. Pollack, M. Rosing, K. Glaesemann, G. Sandrone,
      M. Stave, H. Taylor, G. Thomas, J. H. van Lenthe, A. T. Wong, Z. Zhang.

 Total times  cpu:        4.4s     wall:        4.6s
[0] ARMCI Warning: Freed 1 leaked allocations
