 argument  1 = /home/list1234/source/nwchem-6.8.1-release/QA/tests/c2h4/c2h4.nw



============================== echo of input deck ==============================

title "c2h4 test"

start c2h4_dat

echo

#memory stack 500 mb heap 100 mb global 1400 mb noverify

# C1  symmetry: total energy is -77.891420365233
# C2v symmetry: total energy is -77.862506448702
# D2d symmetry: total energy is -77.747117694241

charge 0
geometry autosym units angstrom
zmat
C
C 1 r1
H 1 r2 2 a2
H 1 r2 2 a2 3 so
H 2 r2 1 a2 3 al
H 2 r2 1 a2 5 so
variables
r1 1.451
r2 1.080
a2 121.45
al 90.0
so 180.0
end
#symmetry c2v
end

basis
   * library cc-pvtz
end

scf
  singlet
  vectors input atomic swap 10 8
  rhf
  thresh 1e-10
  print "final vectors analysis"
end

task scf energy

scf
  singlet
  uhf
  thresh 1e-10
end

task scf energy

dft
  cgmin
  xc hfexch
  mult 1
  vectors input atomic swap 10 8
  convergence energy 1d-10
  print "final vectors analysis"
end

task dft energy

dft
  cgmin
  odft
  xc hfexch
  mult 1
end

task dft energy

================================================================================


                                         
                                         


              Northwest Computational Chemistry Package (NWChem) 6.8
              ------------------------------------------------------


                    Environmental Molecular Sciences Laboratory
                       Pacific Northwest National Laboratory
                                Richland, WA 99352

                              Copyright (c) 1994-2018
                       Pacific Northwest National Laboratory
                            Battelle Memorial Institute

             NWChem is an open-source computational chemistry package
                        distributed under the terms of the
                      Educational Community License (ECL) 2.0
             A copy of the license is included with this distribution
                              in the LICENSE.TXT file

                                  ACKNOWLEDGMENT
                                  --------------

            This software and its documentation were developed at the
            EMSL at Pacific Northwest National Laboratory, a multiprogram
            national laboratory, operated for the U.S. Department of Energy
            by Battelle under Contract Number DE-AC05-76RL01830. Support
            for this work was provided by the Department of Energy Office
            of Biological and Environmental Research, Office of Basic
            Energy Sciences, and the Office of Advanced Scientific Computing.


           Job information
           ---------------

    hostname        = list1234-B360M-H
    program         = /home/list1234/source/nwchem-6.8.1-release/bin/LINUX64/nwchem
    date            = Sun Jun 30 12:37:29 2019

    compiled        = Sun_Jun_30_11:55:59_2019
    source          = /home/list1234/source/nwchem-6.8.1-release
    nwchem branch   = Development
    nwchem revision = N/A
    ga revision     = 5.6.5
    use scalapack   = T
    input           = /home/list1234/source/nwchem-6.8.1-release/QA/tests/c2h4/c2h4.nw
    prefix          = c2h4_dat.
    data base       = ./c2h4_dat.db
    status          = startup
    nproc           =        4
    time left       =     -1s



           Memory information
           ------------------

    heap     =   86247162 doubles =    658.0 Mbytes
    stack    =   86247167 doubles =    658.0 Mbytes
    global   =  172494336 doubles =   1316.0 Mbytes (distinct from heap & stack)
    total    =  344988665 doubles =   2632.1 Mbytes
    verify   = yes
    hardfail = no 


           Directory information
           ---------------------

  0 permanent = .
  0 scratch   = .




                                NWChem Input Module
                                -------------------


                                     c2h4 test
                                     ---------

 Scaling coordinates for geometry "geometry" by  1.889725989
 (inverse scale =  0.529177249)

 D2D symmetry detected


                             Geometry "geometry" -> ""
                             -------------------------

 Output coordinates in angstroms (scale by  1.889725989 to convert to a.u.)

  No.       Tag          Charge          X              Y              Z
 ---- ---------------- ---------- -------------- -------------- --------------
    1 C                    6.0000     0.00000000     0.00000000    -0.72550000
    2 C                    6.0000     0.00000000     0.00000000     0.72550000
    3 H                    1.0000    -0.65148822     0.65148822    -1.28899464
    4 H                    1.0000     0.65148822    -0.65148822    -1.28899464
    5 H                    1.0000    -0.65148822    -0.65148822     1.28899464
    6 H                    1.0000     0.65148822     0.65148822     1.28899464

      Atomic Mass 
      ----------- 

      C                 12.000000
      H                  1.007825


 Effective nuclear repulsion energy (a.u.)      31.9290377332

            Nuclear Dipole moment (a.u.) 
            ----------------------------
        X                 Y               Z
 ---------------- ---------------- ----------------
     0.0000000000    -0.0000000000     0.0000000000

      Symmetry information
      --------------------

 Group name             D2d       
 Group number             32
 Group order               8
 No. of unique centers     2

      Symmetry unique atoms

     1    3



                                Z-matrix (user)
                                -------- 

 Units are Angstrom for bonds and degrees for angles

  Constrained variables are marked with a plus sign (+).


      Type          Name      I     J     K     L     M      Value
      ----------- --------  ----- ----- ----- ----- ----- ----------
    1 Stretch      r1          2     1                       1.45100
    2+Stretch      r2          3     1                       1.08000
    3+Bend         a2          3     1     2               121.45000
    4+Stretch      r2          4     1                       1.08000
    5+Bend         a2          4     1     2               121.45000
    6+Torsion      so          4     1     2     3         180.00000
    7+Stretch      r2          5     2                       1.08000
    8+Bend         a2          5     2     1               121.45000
    9 Torsion      al          5     2     1     3          90.00000
   10+Stretch      r2          6     2                       1.08000
   11+Bend         a2          6     2     1               121.45000
   12+Torsion      so          6     2     1     5        -180.00000


            XYZ format geometry
            -------------------
     6
 geometry
 C                     0.00000000     0.00000000    -0.72550000
 C                     0.00000000     0.00000000     0.72550000
 H                    -0.65148822     0.65148822    -1.28899464
 H                     0.65148822    -0.65148822    -1.28899464
 H                    -0.65148822    -0.65148822     1.28899464
 H                     0.65148822     0.65148822     1.28899464

 ==============================================================================
                                internuclear distances
 ------------------------------------------------------------------------------
       center one      |      center two      | atomic units |  angstroms
 ------------------------------------------------------------------------------
    2 C                |   1 C                |     2.74199  |     1.45100
    3 H                |   1 C                |     2.04090  |     1.08000
    4 H                |   1 C                |     2.04090  |     1.08000
    5 H                |   2 C                |     2.04090  |     1.08000
    6 H                |   2 C                |     2.04090  |     1.08000
 ------------------------------------------------------------------------------
                         number of included internuclear distances:          5
 ==============================================================================



 ==============================================================================
                                 internuclear angles
 ------------------------------------------------------------------------------
        center 1       |       center 2       |       center 3       |  degrees
 ------------------------------------------------------------------------------
    2 C                |   1 C                |   3 H                |   121.45
    2 C                |   1 C                |   4 H                |   121.45
    3 H                |   1 C                |   4 H                |   117.10
    1 C                |   2 C                |   5 H                |   121.45
    1 C                |   2 C                |   6 H                |   121.45
    5 H                |   2 C                |   6 H                |   117.10
 ------------------------------------------------------------------------------
                            number of included internuclear angles:          6
 ==============================================================================





 Summary of "ao basis" -> "" (cartesian)
 ------------------------------------------------------------------------------
       Tag                 Description            Shells   Functions and Types
 ---------------- ------------------------------  ------  ---------------------
 *                          cc-pvtz                   on all atoms 


                      Basis "ao basis" -> "ao basis" (cartesian)
                      -----
  C (Carbon)
  ----------
            Exponent  Coefficients 
       -------------- ---------------------------------------------------------
  1 S  8.23600000E+03  0.000531
  1 S  1.23500000E+03  0.004108
  1 S  2.80800000E+02  0.021087
  1 S  7.92700000E+01  0.081853
  1 S  2.55900000E+01  0.234817
  1 S  8.99700000E+00  0.434401
  1 S  3.31900000E+00  0.346129
  1 S  3.64300000E-01 -0.008983

  2 S  8.23600000E+03 -0.000113
  2 S  1.23500000E+03 -0.000878
  2 S  2.80800000E+02 -0.004540
  2 S  7.92700000E+01 -0.018133
  2 S  2.55900000E+01 -0.055760
  2 S  8.99700000E+00 -0.126895
  2 S  3.31900000E+00 -0.170352
  2 S  3.64300000E-01  0.598684

  3 S  9.05900000E-01  1.000000

  4 S  1.28500000E-01  1.000000

  5 P  1.87100000E+01  0.014031
  5 P  4.13300000E+00  0.086866
  5 P  1.20000000E+00  0.290216

  6 P  3.82700000E-01  1.000000

  7 P  1.20900000E-01  1.000000

  8 D  1.09700000E+00  1.000000

  9 D  3.18000000E-01  1.000000

 10 F  7.61000000E-01  1.000000

  H (Hydrogen)
  ------------
            Exponent  Coefficients 
       -------------- ---------------------------------------------------------
  1 S  3.38700000E+01  0.006068
  1 S  5.09500000E+00  0.045308
  1 S  1.15900000E+00  0.202822

  2 S  3.25800000E-01  1.000000

  3 S  1.02700000E-01  1.000000

  4 P  1.40700000E+00  1.000000

  5 P  3.88000000E-01  1.000000

  6 D  1.05700000E+00  1.000000



 Summary of "ao basis" -> "ao basis" (cartesian)
 ------------------------------------------------------------------------------
       Tag                 Description            Shells   Functions and Types
 ---------------- ------------------------------  ------  ---------------------
 C                          cc-pvtz                 10       35   4s3p2d1f
 H                          cc-pvtz                  6       15   3s2p1d


                                 NWChem SCF Module
                                 -----------------


                                     c2h4 test



  ao basis        = "ao basis"
  functions       =   130
  atoms           =     6
  closed shells   =     8
  open shells     =     0
  charge          =   0.00
  wavefunction    = RHF 
  input vectors   = atomic
  output vectors  = ./c2h4_dat.movecs
  use symmetry    = T
  symmetry adapt  = T


 Summary of "ao basis" -> "ao basis" (cartesian)
 ------------------------------------------------------------------------------
       Tag                 Description            Shells   Functions and Types
 ---------------- ------------------------------  ------  ---------------------
 C                          cc-pvtz                 10       35   4s3p2d1f
 H                          cc-pvtz                  6       15   3s2p1d


      Symmetry analysis of basis
      --------------------------

        a1         27
        a2          7
        b1          7
        b2         27
        e          62


 Forming initial guess at       0.1s


      Superposition of Atomic Density Guess
      -------------------------------------

 Sum of atomic energies:         -77.34023031

      Non-variational initial energy
      ------------------------------

 Total energy =     -78.253637
 1-e energy   =    -165.337771
 2-e energy   =      55.155097
 HOMO         =      -0.151636
 LUMO         =      -0.151636


 !!!!!!!!!!!!!!!!!!!!!!!!!!!!!!!!!!!!!!!!!!!!!!!!!!!!!!!!!!!!!!!!!!!!!!
 Warning - the HOMO and LUMO are degenerate and you are using symmetry.
 This can lead to non-variational energies and poor convergence.
 Modify the initial guess, or use an open-shell wavefunction, or turn
 off symmetry.
 !!!!!!!!!!!!!!!!!!!!!!!!!!!!!!!!!!!!!!!!!!!!!!!!!!!!!!!!!!!!!!!!!!!!!!


 Swapping RHF orbitals    10    8

      Symmetry analysis of molecular orbitals - initial
      -------------------------------------------------

  Numbering of irreducible representations: 

     1 a1          2 a2          3 b1          4 b2          5 e       

  Orbital symmetries:

     1 a1          2 b2          3 a1          4 b2          5 e       
     6 e           7 a1          8 a1          9 e          10 e       
    11 b2         12 e          13 e          14 b2         15 a1      
    16 e          17 e          18 b2      


 Starting SCF solution at       0.1s



 ----------------------------------------------
         Quadratically convergent ROHF

 Convergence threshold     :          1.000E-10
 Maximum no. of iterations :           30
 Final Fock-matrix accuracy:          1.000E-12
 ----------------------------------------------


 Integral file          = ./c2h4_dat.aoints.0
 Record size in doubles =  65536        No. of integs per rec  =  43688
 Max. records in memory =     47        Max. records in file   = 161725
 No. of bits per label  =      8        No. of bits per value  =     64


 #quartets = 1.222D+05 #integrals = 8.656D+06 #direct =  0.0% #cached =100.0%


File balance: exchanges=     2  moved=     2  time=   0.0


              iter       energy          gnorm     gmax       time
             ----- ------------------- --------- --------- --------
                 1      -77.3542979929  1.00D+00  2.99D-01      0.4
                 2      -77.4467181554  3.29D-01  9.20D-02      0.5
                 3      -77.4575545810  1.54D-02  4.13D-03      0.6
                 4      -77.4575892317  2.07D-04  8.87D-05      0.8
                 5      -77.4575892400  9.01D-09  4.80D-09      1.1
                 6      -77.4575892400  6.08D-12  1.66D-12      1.3


       Final RHF  results 
       ------------------ 

         Total SCF energy =    -77.457589240009
      One-electron energy =   -163.762386260642
      Two-electron energy =     54.375759287450
 Nuclear repulsion energy =     31.929037733183

        Time for solution =      1.1s



       Symmetry analysis of molecular orbitals - final
       -----------------------------------------------

  Numbering of irreducible representations: 

     1 a1          2 a2          3 b1          4 b2          5 e       

  Orbital symmetries:

     1 a1          2 b2          3 a1          4 b2          5 a1      
     6 e           7 e           8 a1          9 e          10 e       
    11 b2         12 e          13 e          14 b2         15 a1      
    16 e          17 e          18 b2      

             Final eigenvalues
             -----------------

              1      
    1  -11.4789
    2  -11.4779
    3   -1.2063
    4   -0.9782
    5   -0.7710
    6   -0.7595
    7   -0.7595
    8   -0.0742
    9   -0.0847
   10   -0.0847
   11    0.0943
   12    0.1412
   13    0.1412
   14    0.2367
   15    0.2701
   16    0.3743
   17    0.3743
   18    0.3751

                       ROHF Final Molecular Orbital Analysis
                       -------------------------------------

 Vector    1  Occ=2.000000D+00  E=-1.147890D+01  Symmetry=a1
              MO Center= -3.2D-19,  1.9D-18, -6.3D-16, r^2= 5.5D-01
   Bfn.  Coefficient  Atom+Function         Bfn.  Coefficient  Atom+Function  
  ----- ------------  ---------------      ----- ------------  ---------------
     1      0.691735  1 C  s                 36      0.691735  2 C  s          

 Vector    2  Occ=2.000000D+00  E=-1.147790D+01  Symmetry=b2
              MO Center= -3.5D-21,  1.8D-20,  2.7D-16, r^2= 5.5D-01
   Bfn.  Coefficient  Atom+Function         Bfn.  Coefficient  Atom+Function  
  ----- ------------  ---------------      ----- ------------  ---------------
     1      0.690663  1 C  s                 36     -0.690663  2 C  s          

 Vector    3  Occ=2.000000D+00  E=-1.206262D+00  Symmetry=a1
              MO Center= -1.1D-17, -3.3D-19,  6.9D-18, r^2= 1.0D+00
   Bfn.  Coefficient  Atom+Function         Bfn.  Coefficient  Atom+Function  
  ----- ------------  ---------------      ----- ------------  ---------------
     2      0.363811  1 C  s                 37      0.363811  2 C  s          

 Vector    4  Occ=2.000000D+00  E=-9.781589D-01  Symmetry=b2
              MO Center= -2.0D-16,  7.1D-17,  1.7D-15, r^2= 2.0D+00
   Bfn.  Coefficient  Atom+Function         Bfn.  Coefficient  Atom+Function  
  ----- ------------  ---------------      ----- ------------  ---------------
     2      0.318310  1 C  s                 37     -0.318310  2 C  s          

 Vector    5  Occ=2.000000D+00  E=-7.709806D-01  Symmetry=a1
              MO Center=  3.7D-19, -2.5D-17, -1.5D-15, r^2= 1.7D+00
   Bfn.  Coefficient  Atom+Function         Bfn.  Coefficient  Atom+Function  
  ----- ------------  ---------------      ----- ------------  ---------------
    10      0.280175  1 C  pz                45     -0.280175  2 C  pz         
     7      0.236878  1 C  pz                42     -0.236878  2 C  pz         

 Vector    6  Occ=2.000000D+00  E=-7.594936D-01  Symmetry=e
              MO Center=  2.0D-15,  2.3D-15,  8.6D-01, r^2= 1.1D+00
   Bfn.  Coefficient  Atom+Function         Bfn.  Coefficient  Atom+Function  
  ----- ------------  ---------------      ----- ------------  ---------------
    43      0.225685  2 C  px                44      0.217032  2 C  py         
    40      0.198599  2 C  px                41      0.192360  2 C  py         
   102     -0.186067  5 H  s                117      0.186067  6 H  s          

 Vector    7  Occ=2.000000D+00  E=-7.594936D-01  Symmetry=e
              MO Center= -1.6D-15,  2.1D-15, -8.6D-01, r^2= 1.1D+00
   Bfn.  Coefficient  Atom+Function         Bfn.  Coefficient  Atom+Function  
  ----- ------------  ---------------      ----- ------------  ---------------
     9     -0.225685  1 C  py                 8      0.217032  1 C  px         
     6     -0.198599  1 C  py                 5      0.192360  1 C  px         
    72     -0.186067  3 H  s                 87      0.186067  4 H  s          

 Vector    8  Occ=2.000000D+00  E=-7.423758D-02  Symmetry=a1
              MO Center=  2.2D-16, -4.3D-16,  2.9D-15, r^2= 6.5D+00
   Bfn.  Coefficient  Atom+Function         Bfn.  Coefficient  Atom+Function  
  ----- ------------  ---------------      ----- ------------  ---------------
     4      1.408997  1 C  s                 39      1.408997  2 C  s          
    73     -1.031405  3 H  s                 88     -1.031405  4 H  s          
   103     -1.031405  5 H  s                118     -1.031405  6 H  s          
    13     -0.530437  1 C  pz                48      0.530437  2 C  pz         
     2      0.189985  1 C  s                 37      0.189985  2 C  s          

 Vector    9  Occ=0.000000D+00  E=-8.470797D-02  Symmetry=e
              MO Center=  8.5D-16, -9.6D-16,  5.5D-01, r^2= 1.8D+00
   Bfn.  Coefficient  Atom+Function         Bfn.  Coefficient  Atom+Function  
  ----- ------------  ---------------      ----- ------------  ---------------
    46      0.383885  2 C  px                47     -0.371893  2 C  py         
    43      0.221445  2 C  px                44     -0.213923  2 C  py         
    40      0.200262  2 C  px                41     -0.192397  2 C  py         

 Vector   10  Occ=0.000000D+00  E=-8.470797D-02  Symmetry=e
              MO Center= -6.3D-16, -3.7D-16, -5.5D-01, r^2= 1.8D+00
   Bfn.  Coefficient  Atom+Function         Bfn.  Coefficient  Atom+Function  
  ----- ------------  ---------------      ----- ------------  ---------------
    12      0.383885  1 C  py                11      0.371893  1 C  px         
     9      0.221445  1 C  py                 8      0.213923  1 C  px         
     6      0.200262  1 C  py                 5      0.192397  1 C  px         

 Vector   11  Occ=0.000000D+00  E= 9.426701D-02  Symmetry=b2
              MO Center= -9.1D-16, -2.4D-16, -2.4D-15, r^2= 7.4D+00
   Bfn.  Coefficient  Atom+Function         Bfn.  Coefficient  Atom+Function  
  ----- ------------  ---------------      ----- ------------  ---------------
     4      2.872184  1 C  s                 39     -2.872184  2 C  s          
    73     -1.149241  3 H  s                 88     -1.149241  4 H  s          
   103      1.149241  5 H  s                118      1.149241  6 H  s          
     2      0.212701  1 C  s                 37     -0.212701  2 C  s          
    20     -0.202221  1 C  dxx               23     -0.202221  1 C  dyy        

 Vector   12  Occ=0.000000D+00  E= 1.412043D-01  Symmetry=e
              MO Center= -1.0D-14,  3.8D-14, -7.4D-01, r^2= 7.0D+00
   Bfn.  Coefficient  Atom+Function         Bfn.  Coefficient  Atom+Function  
  ----- ------------  ---------------      ----- ------------  ---------------
    73      1.918021  3 H  s                 88     -1.918021  4 H  s          
    11      1.158089  1 C  px               103     -1.081975  5 H  s          
   118      1.081975  6 H  s                 46     -0.883567  2 C  px         
    12     -0.777023  1 C  py                 9     -0.226676  1 C  py         
    44     -0.216714  2 C  py                47     -0.208050  2 C  py         

 Vector   13  Occ=0.000000D+00  E= 1.412043D-01  Symmetry=e
              MO Center= -4.5D-15, -1.1D-14,  7.4D-01, r^2= 7.0D+00
   Bfn.  Coefficient  Atom+Function         Bfn.  Coefficient  Atom+Function  
  ----- ------------  ---------------      ----- ------------  ---------------
   103      1.918021  5 H  s                118     -1.918021  6 H  s          
    47      1.158089  2 C  py                73      1.081975  3 H  s          
    88     -1.081975  4 H  s                 12     -0.883567  1 C  py         
    46      0.777023  2 C  px                43      0.226676  2 C  px         
     8      0.216714  1 C  px                11      0.208050  1 C  px         

 Vector   14  Occ=0.000000D+00  E= 2.366960D-01  Symmetry=b2
              MO Center=  6.4D-15,  6.5D-15, -5.0D-15, r^2= 5.0D+00
   Bfn.  Coefficient  Atom+Function         Bfn.  Coefficient  Atom+Function  
  ----- ------------  ---------------      ----- ------------  ---------------
    13      3.138082  1 C  pz                48      3.138082  2 C  pz         
     4      2.177372  1 C  s                 39     -2.177372  2 C  s          
    73      0.880770  3 H  s                 88      0.880770  4 H  s          
   103     -0.880770  5 H  s                118     -0.880770  6 H  s          
    72      0.344525  3 H  s                 87      0.344525  4 H  s          

 Vector   15  Occ=0.000000D+00  E= 2.700829D-01  Symmetry=a1
              MO Center=  6.5D-16, -4.8D-15, -4.4D-16, r^2= 5.3D+00
   Bfn.  Coefficient  Atom+Function         Bfn.  Coefficient  Atom+Function  
  ----- ------------  ---------------      ----- ------------  ---------------
     4      1.554037  1 C  s                 39      1.554037  2 C  s          
    13      0.997641  1 C  pz                48     -0.997641  2 C  pz         
    10     -0.594757  1 C  pz                45      0.594757  2 C  pz         
    20     -0.506109  1 C  dxx               23     -0.506109  1 C  dyy        
    55     -0.506109  2 C  dxx               58     -0.506109  2 C  dyy        

 Vector   16  Occ=0.000000D+00  E= 3.742753D-01  Symmetry=e
              MO Center=  2.3D-15, -2.7D-15,  5.9D-01, r^2= 4.2D+00
   Bfn.  Coefficient  Atom+Function         Bfn.  Coefficient  Atom+Function  
  ----- ------------  ---------------      ----- ------------  ---------------
    47      1.071535  2 C  py                46     -1.045954  2 C  px         
    43      1.035950  2 C  px                44     -1.013397  2 C  py         
    73     -0.862218  3 H  s                 88      0.862218  4 H  s          
    22      0.502724  1 C  dxz               24     -0.494799  1 C  dyz        
    12      0.265076  1 C  py                69      0.263431  2 C  fyzz       

 Vector   17  Occ=0.000000D+00  E= 3.742753D-01  Symmetry=e
              MO Center=  1.3D-15,  1.0D-15, -5.9D-01, r^2= 4.2D+00
   Bfn.  Coefficient  Atom+Function         Bfn.  Coefficient  Atom+Function  
  ----- ------------  ---------------      ----- ------------  ---------------
    11     -1.071535  1 C  px                12     -1.045954  1 C  py         
     9      1.035950  1 C  py                 8      1.013397  1 C  px         
   103     -0.862218  5 H  s                118      0.862218  6 H  s          
    59     -0.502724  2 C  dyz               57     -0.494799  2 C  dxz        
    46     -0.265076  2 C  px                31     -0.263431  1 C  fxzz       

 Vector   18  Occ=0.000000D+00  E= 3.750924D-01  Symmetry=b2
              MO Center= -2.8D-16, -2.9D-15,  1.8D-15, r^2= 3.2D+00
   Bfn.  Coefficient  Atom+Function         Bfn.  Coefficient  Atom+Function  
  ----- ------------  ---------------      ----- ------------  ---------------
     4      5.857593  1 C  s                 39     -5.857593  2 C  s          
    13      1.096409  1 C  pz                48      1.096409  2 C  pz         
    72     -1.064500  3 H  s                 87     -1.064500  4 H  s          
   102      1.064500  5 H  s                117      1.064500  6 H  s          
    25     -0.692758  1 C  dzz               60      0.692758  2 C  dzz        

 Vector   19  Occ=0.000000D+00  E= 3.844188D-01  Symmetry=a1
              MO Center=  1.7D-15, -1.1D-14,  1.2D-14, r^2= 5.0D+00
   Bfn.  Coefficient  Atom+Function         Bfn.  Coefficient  Atom+Function  
  ----- ------------  ---------------      ----- ------------  ---------------
     4      5.018435  1 C  s                 39      5.018435  2 C  s          
    13     -1.113244  1 C  pz                48      1.113244  2 C  pz         
    73     -1.093705  3 H  s                 88     -1.093705  4 H  s          
   103     -1.093705  5 H  s                118     -1.093705  6 H  s          
    72     -1.063283  3 H  s                 87     -1.063283  4 H  s          

 Vector   20  Occ=0.000000D+00  E= 4.115563D-01  Symmetry=e
              MO Center= -3.8D-15,  2.4D-15, -1.2D-01, r^2= 3.8D+00
   Bfn.  Coefficient  Atom+Function         Bfn.  Coefficient  Atom+Function  
  ----- ------------  ---------------      ----- ------------  ---------------
    11      2.427918  1 C  px                12     -1.937328  1 C  py         
    72      1.761859  3 H  s                 87     -1.761859  4 H  s          
    46     -1.471471  2 C  px                73      0.967239  3 H  s          
    88     -0.967239  4 H  s                102     -0.656017  5 H  s          
   117      0.656017  6 H  s                 22     -0.521135  1 C  dxz        

 Vector   21  Occ=0.000000D+00  E= 4.115563D-01  Symmetry=e
              MO Center=  1.3D-15, -4.3D-16,  1.2D-01, r^2= 3.8D+00
   Bfn.  Coefficient  Atom+Function         Bfn.  Coefficient  Atom+Function  
  ----- ------------  ---------------      ----- ------------  ---------------
    47      2.427918  2 C  py                46      1.937328  2 C  px         
   102      1.761859  5 H  s                117     -1.761859  6 H  s          
    12     -1.471471  1 C  py               103      0.967239  5 H  s          
   118     -0.967239  6 H  s                 72      0.656017  3 H  s          
    87     -0.656017  4 H  s                 59      0.521135  2 C  dyz        

 Vector   22  Occ=0.000000D+00  E= 4.873120D-01  Symmetry=b2
              MO Center= -8.1D-15, -6.9D-16,  2.9D-14, r^2= 6.2D+00
   Bfn.  Coefficient  Atom+Function         Bfn.  Coefficient  Atom+Function  
  ----- ------------  ---------------      ----- ------------  ---------------
     4     10.286013  1 C  s                 39    -10.286013  2 C  s          
    13      1.545151  1 C  pz                48      1.545151  2 C  pz         
    73     -1.383846  3 H  s                 88     -1.383846  4 H  s          
   103      1.383846  5 H  s                118      1.383846  6 H  s          
    20     -1.044849  1 C  dxx               23     -1.044849  1 C  dyy        

 Vector   23  Occ=0.000000D+00  E= 4.982030D-01  Symmetry=a1
              MO Center= -6.6D-14,  1.8D-13,  2.3D-13, r^2= 6.2D+00
   Bfn.  Coefficient  Atom+Function         Bfn.  Coefficient  Atom+Function  
  ----- ------------  ---------------      ----- ------------  ---------------
     4      4.817586  1 C  s                 39      4.817586  2 C  s          
    73     -1.690053  3 H  s                 88     -1.690053  4 H  s          
   103     -1.690053  5 H  s                118     -1.690053  6 H  s          
    13     -1.247278  1 C  pz                48      1.247278  2 C  pz         
    21     -0.730311  1 C  dxy               56      0.730311  2 C  dxy        

 Vector   24  Occ=0.000000D+00  E= 5.372660D-01  Symmetry=e
              MO Center= -7.2D-14, -5.9D-14,  1.1D+00, r^2= 4.4D+00
   Bfn.  Coefficient  Atom+Function         Bfn.  Coefficient  Atom+Function  
  ----- ------------  ---------------      ----- ------------  ---------------
    47      2.898450  2 C  py               103      2.908384  5 H  s          
   118     -2.908384  6 H  s                 46      2.744360  2 C  px         
    12     -0.996784  1 C  py                57      0.920602  2 C  dxz        
    59      0.875733  2 C  dyz              102      0.726450  5 H  s          
   117     -0.726450  6 H  s                109     -0.437656  5 H  pz         

 Vector   25  Occ=0.000000D+00  E= 5.372660D-01  Symmetry=e
              MO Center=  1.3D-13, -1.7D-13, -1.1D+00, r^2= 4.4D+00
   Bfn.  Coefficient  Atom+Function         Bfn.  Coefficient  Atom+Function  
  ----- ------------  ---------------      ----- ------------  ---------------
    11      2.898450  1 C  px                73      2.908384  3 H  s          
    88     -2.908384  4 H  s                 12     -2.744360  1 C  py         
    46     -0.996784  2 C  px                24      0.920602  1 C  dyz        
    22     -0.875733  1 C  dxz               72      0.726450  3 H  s          
    87     -0.726450  4 H  s                 79      0.437656  3 H  pz         

 Vector   26  Occ=0.000000D+00  E= 5.499977D-01  Symmetry=b1
              MO Center= -1.4D-15,  5.5D-16,  0.0D+00, r^2= 2.4D+00
   Bfn.  Coefficient  Atom+Function         Bfn.  Coefficient  Atom+Function  
  ----- ------------  ---------------      ----- ------------  ---------------
    20      0.401788  1 C  dxx               23     -0.401788  1 C  dyy        
    55      0.401788  2 C  dxx               58     -0.401788  2 C  dyy        

 Vector   27  Occ=0.000000D+00  E= 5.671739D-01  Symmetry=b2
              MO Center= -2.8D-16,  5.0D-15, -1.7D-13, r^2= 4.5D+00
   Bfn.  Coefficient  Atom+Function         Bfn.  Coefficient  Atom+Function  
  ----- ------------  ---------------      ----- ------------  ---------------
     4      7.270595  1 C  s                 39     -7.270595  2 C  s          
    13      4.817675  1 C  pz                48      4.817675  2 C  pz         
    73      1.117856  3 H  s                 88      1.117856  4 H  s          
   103     -1.117856  5 H  s                118     -1.117856  6 H  s          
    72     -0.538235  3 H  s                 87     -0.538235  4 H  s          

 Vector   28  Occ=0.000000D+00  E= 7.012756D-01  Symmetry=a2
              MO Center=  2.3D-16, -5.7D-17,  5.6D-17, r^2= 3.2D+00
   Bfn.  Coefficient  Atom+Function         Bfn.  Coefficient  Atom+Function  
  ----- ------------  ---------------      ----- ------------  ---------------
    77      0.300573  3 H  px                78      0.300573  3 H  py         
    92     -0.300573  4 H  px                93     -0.300573  4 H  py         
   107     -0.300573  5 H  px               108      0.300573  5 H  py         
   122      0.300573  6 H  px               123     -0.300573  6 H  py         
    20     -0.195981  1 C  dxx               23      0.195981  1 C  dyy        

 Vector   29  Occ=0.000000D+00  E= 8.910847D-01  Symmetry=b2
              MO Center=  4.5D-16,  2.1D-15, -3.1D-15, r^2= 3.4D+00
   Bfn.  Coefficient  Atom+Function         Bfn.  Coefficient  Atom+Function  
  ----- ------------  ---------------      ----- ------------  ---------------
     4      4.619445  1 C  s                 39     -4.619445  2 C  s          
    72     -1.264332  3 H  s                 87     -1.264332  4 H  s          
   102      1.264332  5 H  s                117      1.264332  6 H  s          
    21     -1.223734  1 C  dxy               56     -1.223734  2 C  dxy        
    20     -0.531069  1 C  dxx               23     -0.531069  1 C  dyy        

 Vector   30  Occ=0.000000D+00  E= 9.440187D-01  Symmetry=e
              MO Center=  3.7D-15, -1.2D-15,  1.5D-01, r^2= 3.5D+00
   Bfn.  Coefficient  Atom+Function         Bfn.  Coefficient  Atom+Function  
  ----- ------------  ---------------      ----- ------------  ---------------
    11      2.230100  1 C  px                46     -1.959272  2 C  px         
    72      1.717920  3 H  s                 87     -1.717920  4 H  s          
   102     -1.150746  5 H  s                117      1.150746  6 H  s          
    12     -1.099047  1 C  py                24      1.053578  1 C  dyz        
    59     -1.041842  2 C  dyz               73      0.542407  3 H  s          

 Vector   31  Occ=0.000000D+00  E= 9.440187D-01  Symmetry=e
              MO Center=  5.4D-16, -6.2D-15, -1.5D-01, r^2= 3.5D+00
   Bfn.  Coefficient  Atom+Function         Bfn.  Coefficient  Atom+Function  
  ----- ------------  ---------------      ----- ------------  ---------------
    47      2.230100  2 C  py                12     -1.959272  1 C  py         
   102      1.717920  5 H  s                117     -1.717920  6 H  s          
    72      1.150746  3 H  s                 87     -1.150746  4 H  s          
    46      1.099047  2 C  px                57      1.053578  2 C  dxz        
    22     -1.041842  1 C  dxz              103      0.542407  5 H  s          

 Vector   32  Occ=0.000000D+00  E= 9.986264D-01  Symmetry=a1
              MO Center= -5.0D-16,  1.6D-15,  5.4D-15, r^2= 3.8D+00
   Bfn.  Coefficient  Atom+Function         Bfn.  Coefficient  Atom+Function  
  ----- ------------  ---------------      ----- ------------  ---------------
     4      2.628111  1 C  s                 39      2.628111  2 C  s          
    20     -1.453142  1 C  dxx               23     -1.453142  1 C  dyy        
    55     -1.453142  2 C  dxx               58     -1.453142  2 C  dyy        
    13      1.136626  1 C  pz                48     -1.136626  2 C  pz         
     3     -0.779322  1 C  s                 38     -0.779322  2 C  s          

 Vector   33  Occ=0.000000D+00  E= 1.006073D+00  Symmetry=e
              MO Center=  1.3D-15,  7.0D-16,  9.8D-01, r^2= 2.8D+00
   Bfn.  Coefficient  Atom+Function         Bfn.  Coefficient  Atom+Function  
  ----- ------------  ---------------      ----- ------------  ---------------
   102      1.083669  5 H  s                117     -1.083669  6 H  s          
    46      1.076967  2 C  px                47      1.076837  2 C  py         
   109     -0.757422  5 H  pz               124      0.757422  6 H  pz         
    57      0.654223  2 C  dxz               59      0.625345  2 C  dyz        
   103      0.536360  5 H  s                118     -0.536360  6 H  s          

 Vector   34  Occ=0.000000D+00  E= 1.006073D+00  Symmetry=e
              MO Center=  7.2D-16, -3.4D-16, -9.8D-01, r^2= 2.8D+00
   Bfn.  Coefficient  Atom+Function         Bfn.  Coefficient  Atom+Function  
  ----- ------------  ---------------      ----- ------------  ---------------
    72      1.083669  3 H  s                 87     -1.083669  4 H  s          
    11      1.076837  1 C  px                12     -1.076967  1 C  py         
    79      0.757422  3 H  pz                94     -0.757422  4 H  pz         
    24      0.654223  1 C  dyz               22     -0.625345  1 C  dxz        
    73      0.536360  3 H  s                 88     -0.536360  4 H  s          

 Vector   35  Occ=0.000000D+00  E= 1.086928D+00  Symmetry=b1
              MO Center= -5.6D-16,  3.9D-16,  0.0D+00, r^2= 3.4D+00
   Bfn.  Coefficient  Atom+Function         Bfn.  Coefficient  Atom+Function  
  ----- ------------  ---------------      ----- ------------  ---------------
    20      0.737147  1 C  dxx               23     -0.737147  1 C  dyy        
    55      0.737147  2 C  dxx               58     -0.737147  2 C  dyy        
    77      0.585062  3 H  px                78      0.585062  3 H  py         
    92     -0.585062  4 H  px                93     -0.585062  4 H  py         
   107      0.585062  5 H  px               108     -0.585062  5 H  py         

 Vector   36  Occ=0.000000D+00  E= 1.115678D+00  Symmetry=e
              MO Center=  9.5D-15, -9.9D-15,  6.1D-01, r^2= 3.1D+00
   Bfn.  Coefficient  Atom+Function         Bfn.  Coefficient  Atom+Function  
  ----- ------------  ---------------      ----- ------------  ---------------
    59      1.194341  2 C  dyz               57     -0.953000  2 C  dxz        
    72     -0.854743  3 H  s                 87      0.854743  4 H  s          
    24     -0.831852  1 C  dyz              107      0.687990  5 H  px         
   108     -0.690662  5 H  py               122      0.687990  6 H  px         
   123     -0.690662  6 H  py                12      0.457610  1 C  py         

 Vector   37  Occ=0.000000D+00  E= 1.115678D+00  Symmetry=e
              MO Center=  3.3D-15,  9.3D-16, -6.1D-01, r^2= 3.1D+00
   Bfn.  Coefficient  Atom+Function         Bfn.  Coefficient  Atom+Function  
  ----- ------------  ---------------      ----- ------------  ---------------
    22      1.194341  1 C  dxz               24      0.953000  1 C  dyz        
   102     -0.854743  5 H  s                117      0.854743  6 H  s          
    57     -0.831852  2 C  dxz               77      0.690662  3 H  px         
    78      0.687990  3 H  py                92      0.690662  4 H  px         
    93      0.687990  4 H  py                46     -0.457610  2 C  px         

 Vector   38  Occ=0.000000D+00  E= 1.117544D+00  Symmetry=a1
              MO Center= -8.7D-15,  6.6D-15, -1.1D-16, r^2= 3.7D+00
   Bfn.  Coefficient  Atom+Function         Bfn.  Coefficient  Atom+Function  
  ----- ------------  ---------------      ----- ------------  ---------------
     4      3.306945  1 C  s                 39      3.306945  2 C  s          
    21     -1.555366  1 C  dxy               56      1.555366  2 C  dxy        
    72     -1.109195  3 H  s                 87     -1.109195  4 H  s          
   102     -1.109195  5 H  s                117     -1.109195  6 H  s          
    13     -0.895870  1 C  pz                48      0.895870  2 C  pz         

 Vector   39  Occ=0.000000D+00  E= 1.198553D+00  Symmetry=b2
              MO Center=  1.4D-15, -2.0D-15, -2.1D-14, r^2= 3.7D+00
   Bfn.  Coefficient  Atom+Function         Bfn.  Coefficient  Atom+Function  
  ----- ------------  ---------------      ----- ------------  ---------------
     4      6.093129  1 C  s                 39     -6.093129  2 C  s          
    13      3.891177  1 C  pz                48      3.891177  2 C  pz         
    10      1.820334  1 C  pz                45      1.820334  2 C  pz         
    25      1.636443  1 C  dzz               60     -1.636443  2 C  dzz        
    20     -0.579362  1 C  dxx               23     -0.579362  1 C  dyy        

 Vector   40  Occ=0.000000D+00  E= 1.226478D+00  Symmetry=a1
              MO Center=  8.7D-16,  9.6D-16,  3.7D-15, r^2= 2.9D+00
   Bfn.  Coefficient  Atom+Function         Bfn.  Coefficient  Atom+Function  
  ----- ------------  ---------------      ----- ------------  ---------------
     4      3.774062  1 C  s                 39      3.774062  2 C  s          
    21      1.965290  1 C  dxy               56     -1.965290  2 C  dxy        
    20     -1.925230  1 C  dxx               23     -1.925230  1 C  dyy        
    55     -1.925230  2 C  dxx               58     -1.925230  2 C  dyy        
    25     -1.784315  1 C  dzz               60     -1.784315  2 C  dzz        

 Vector   41  Occ=0.000000D+00  E= 1.320611D+00  Symmetry=b2
              MO Center= -2.0D-15,  8.7D-17, -3.6D-14, r^2= 3.9D+00
   Bfn.  Coefficient  Atom+Function         Bfn.  Coefficient  Atom+Function  
  ----- ------------  ---------------      ----- ------------  ---------------
     4     10.921817  1 C  s                 39    -10.921817  2 C  s          
    25     -3.131428  1 C  dzz               60      3.131428  2 C  dzz        
    20     -2.350316  1 C  dxx               23     -2.350316  1 C  dyy        
    55      2.350316  2 C  dxx               58      2.350316  2 C  dyy        
    13      1.823772  1 C  pz                48      1.823772  2 C  pz         

 Vector   42  Occ=0.000000D+00  E= 1.327174D+00  Symmetry=e
              MO Center=  2.5D-15, -4.0D-15,  6.2D-03, r^2= 3.4D+00
   Bfn.  Coefficient  Atom+Function         Bfn.  Coefficient  Atom+Function  
  ----- ------------  ---------------      ----- ------------  ---------------
    24      4.163205  1 C  dyz               72      3.151714  3 H  s          
    87     -3.151714  4 H  s                 59      3.078909  2 C  dyz        
    22     -2.942888  1 C  dxz                9     -1.003288  1 C  py         
   102      0.966891  5 H  s                117     -0.966891  6 H  s          
    77      0.916150  3 H  px                92      0.916150  4 H  px         

 Vector   43  Occ=0.000000D+00  E= 1.327174D+00  Symmetry=e
              MO Center=  5.0D-16,  1.0D-15, -6.2D-03, r^2= 3.4D+00
   Bfn.  Coefficient  Atom+Function         Bfn.  Coefficient  Atom+Function  
  ----- ------------  ---------------      ----- ------------  ---------------
    57      4.163205  2 C  dxz              102      3.151714  5 H  s          
   117     -3.151714  6 H  s                 22      3.078909  1 C  dxz        
    59      2.942888  2 C  dyz               43      1.003288  2 C  px         
    72     -0.966891  3 H  s                 87      0.966891  4 H  s          
   108      0.916150  5 H  py               123      0.916150  6 H  py         

 Vector   44  Occ=0.000000D+00  E= 1.415357D+00  Symmetry=e
              MO Center=  1.0D-14, -5.2D-15, -1.2D+00, r^2= 3.0D+00
   Bfn.  Coefficient  Atom+Function         Bfn.  Coefficient  Atom+Function  
  ----- ------------  ---------------      ----- ------------  ---------------
    72      4.508749  3 H  s                 87     -4.508749  4 H  s          
     8      3.140763  1 C  px                 9     -3.131736  1 C  py         
    22     -2.921640  1 C  dxz               24      2.926604  1 C  dyz        
    11      1.988175  1 C  px                12     -1.979295  1 C  py         
    73      1.911942  3 H  s                 88     -1.911942  4 H  s          

 Vector   45  Occ=0.000000D+00  E= 1.415357D+00  Symmetry=e
              MO Center=  1.9D-14,  1.4D-14,  1.2D+00, r^2= 3.0D+00
   Bfn.  Coefficient  Atom+Function         Bfn.  Coefficient  Atom+Function  
  ----- ------------  ---------------      ----- ------------  ---------------
   102      4.508749  5 H  s                117     -4.508749  6 H  s          
    43      3.131736  2 C  px                44      3.140763  2 C  py         
    57      2.926604  2 C  dxz               59      2.921640  2 C  dyz        
    46      1.979295  2 C  px                47      1.988175  2 C  py         
   103      1.911942  5 H  s                118     -1.911942  6 H  s          

 Vector   46  Occ=0.000000D+00  E= 1.428048D+00  Symmetry=a2
              MO Center= -1.1D-16,  5.3D-17, -1.1D-16, r^2= 3.2D+00
   Bfn.  Coefficient  Atom+Function         Bfn.  Coefficient  Atom+Function  
  ----- ------------  ---------------      ----- ------------  ---------------
    20      1.372119  1 C  dxx               23     -1.372119  1 C  dyy        
    55     -1.372119  2 C  dxx               58      1.372119  2 C  dyy        
    77      0.684246  3 H  px                78      0.684246  3 H  py         
    92     -0.684246  4 H  px                93     -0.684246  4 H  py         
   107     -0.684246  5 H  px               108      0.684246  5 H  py         

 Vector   47  Occ=0.000000D+00  E= 1.440305D+00  Symmetry=a1
              MO Center=  2.7D-16, -9.0D-17,  5.5D-15, r^2= 3.9D+00
   Bfn.  Coefficient  Atom+Function         Bfn.  Coefficient  Atom+Function  
  ----- ------------  ---------------      ----- ------------  ---------------
    25      2.045090  1 C  dzz               60      2.045090  2 C  dzz        
    10     -1.270173  1 C  pz                45      1.270173  2 C  pz         
    77     -0.695291  3 H  px                78      0.695291  3 H  py         
    92      0.695291  4 H  px                93     -0.695291  4 H  py         
   107     -0.695291  5 H  px               108     -0.695291  5 H  py         

 Vector   48  Occ=0.000000D+00  E= 1.549472D+00  Symmetry=b2
              MO Center=  1.8D-15,  3.3D-15, -1.3D-14, r^2= 4.2D+00
   Bfn.  Coefficient  Atom+Function         Bfn.  Coefficient  Atom+Function  
  ----- ------------  ---------------      ----- ------------  ---------------
    13      2.028104  1 C  pz                48      2.028104  2 C  pz         
     4      1.850565  1 C  s                 39     -1.850565  2 C  s          
    72     -1.617051  3 H  s                 87     -1.617051  4 H  s          
   102      1.617051  5 H  s                117      1.617051  6 H  s          
    21     -1.038184  1 C  dxy               56     -1.038184  2 C  dxy        

 Vector   49  Occ=0.000000D+00  E= 1.624144D+00  Symmetry=a1
              MO Center=  3.3D-15,  8.0D-16,  3.7D-15, r^2= 3.9D+00
   Bfn.  Coefficient  Atom+Function         Bfn.  Coefficient  Atom+Function  
  ----- ------------  ---------------      ----- ------------  ---------------
     4      2.904632  1 C  s                 39      2.904632  2 C  s          
    21     -1.561167  1 C  dxy               56      1.561167  2 C  dxy        
    25     -0.899087  1 C  dzz               60     -0.899087  2 C  dzz        
     2      0.885892  1 C  s                 37      0.885892  2 C  s          
    73     -0.850604  3 H  s                 88     -0.850604  4 H  s          

 Vector   50  Occ=0.000000D+00  E= 1.659144D+00  Symmetry=b2
              MO Center= -5.8D-16,  7.8D-16, -7.9D-15, r^2= 3.6D+00
   Bfn.  Coefficient  Atom+Function         Bfn.  Coefficient  Atom+Function  
  ----- ------------  ---------------      ----- ------------  ---------------
     4      2.537930  1 C  s                 39     -2.537930  2 C  s          
    20     -2.243856  1 C  dxx               21      2.241579  1 C  dxy        
    23     -2.243856  1 C  dyy               55      2.243856  2 C  dxx        
    56      2.241579  2 C  dxy               58      2.243856  2 C  dyy        
    10      1.865171  1 C  pz                45      1.865171  2 C  pz         

 Vector   51  Occ=0.000000D+00  E= 1.907131D+00  Symmetry=e
              MO Center= -3.7D-15, -4.5D-15, -1.6D-01, r^2= 2.8D+00
   Bfn.  Coefficient  Atom+Function         Bfn.  Coefficient  Atom+Function  
  ----- ------------  ---------------      ----- ------------  ---------------
     8      2.861849  1 C  px               102      2.844875  5 H  s          
   117     -2.844875  6 H  s                  9      2.761777  1 C  py         
    34     -1.315177  1 C  fyzz              31     -1.270496  1 C  fxzz       
    47      1.037581  2 C  py                32     -1.032339  1 C  fyyy       
    26     -1.011731  1 C  fxxx              27     -0.988304  1 C  fxxy       

 Vector   52  Occ=0.000000D+00  E= 1.907131D+00  Symmetry=e
              MO Center=  6.7D-15, -6.0D-15,  1.6D-01, r^2= 2.8D+00
   Bfn.  Coefficient  Atom+Function         Bfn.  Coefficient  Atom+Function  
  ----- ------------  ---------------      ----- ------------  ---------------
    44     -2.861849  2 C  py                72      2.844875  3 H  s          
    87     -2.844875  4 H  s                 43      2.761777  2 C  px         
    66     -1.315177  2 C  fxzz              69      1.270496  2 C  fyzz       
    11      1.037581  1 C  px                61     -1.032339  2 C  fxxx       
    67      1.011731  2 C  fyyy              64     -0.988304  2 C  fxyy       

 Vector   53  Occ=0.000000D+00  E= 2.182809D+00  Symmetry=e
              MO Center= -2.3D-15,  1.4D-17,  1.5D-01, r^2= 2.8D+00
   Bfn.  Coefficient  Atom+Function         Bfn.  Coefficient  Atom+Function  
  ----- ------------  ---------------      ----- ------------  ---------------
    59      2.486195  2 C  dyz               24      2.272712  1 C  dyz        
     8      1.920253  1 C  px                 9      1.618844  1 C  py         
    43      1.488182  2 C  px               102     -1.440825  5 H  s          
   117      1.440825  6 H  s                 47     -1.347611  2 C  py         
    12      1.066885  1 C  py                44     -1.071433  2 C  py         

 Vector   54  Occ=0.000000D+00  E= 2.182809D+00  Symmetry=e
              MO Center=  4.5D-17,  2.0D-15, -1.5D-01, r^2= 2.8D+00
   Bfn.  Coefficient  Atom+Function         Bfn.  Coefficient  Atom+Function  
  ----- ------------  ---------------      ----- ------------  ---------------
    22      2.486195  1 C  dxz               57      2.272712  2 C  dxz        
    44      1.920253  2 C  py                43     -1.618844  2 C  px         
     9      1.488182  1 C  py                72      1.440825  3 H  s          
    87     -1.440825  4 H  s                 11      1.347611  1 C  px         
     8      1.071433  1 C  px                12     -1.067857  1 C  py         

 Vector   55  Occ=0.000000D+00  E= 2.194106D+00  Symmetry=a1
              MO Center= -1.3D-16,  5.6D-16, -6.3D-15, r^2= 3.3D+00
   Bfn.  Coefficient  Atom+Function         Bfn.  Coefficient  Atom+Function  
  ----- ------------  ---------------      ----- ------------  ---------------
    72      2.941937  3 H  s                 87      2.941937  4 H  s          
   102      2.941937  5 H  s                117      2.941937  6 H  s          
    25     -1.591346  1 C  dzz               60     -1.591346  2 C  dzz        
    71     -0.777918  3 H  s                 86     -0.777918  4 H  s          
   101     -0.777918  5 H  s                116     -0.777918  6 H  s          

 Vector   56  Occ=0.000000D+00  E= 2.583029D+00  Symmetry=e
              MO Center= -5.7D-16,  4.1D-15, -2.0D-01, r^2= 1.8D+00
   Bfn.  Coefficient  Atom+Function         Bfn.  Coefficient  Atom+Function  
  ----- ------------  ---------------      ----- ------------  ---------------
     8      3.496641  1 C  px                72      3.480963  3 H  s          
    87     -3.480963  4 H  s                  9     -3.082733  1 C  py         
    43      2.700957  2 C  px               102      2.560264  5 H  s          
   117     -2.560264  6 H  s                 22     -2.136345  1 C  dxz        
    44      2.138203  2 C  py                24      1.936519  1 C  dyz        

 Vector   57  Occ=0.000000D+00  E= 2.583029D+00  Symmetry=e
              MO Center=  1.5D-16,  7.7D-16,  2.0D-01, r^2= 1.8D+00
   Bfn.  Coefficient  Atom+Function         Bfn.  Coefficient  Atom+Function  
  ----- ------------  ---------------      ----- ------------  ---------------
    44      3.496641  2 C  py               102      3.480963  5 H  s          
   117     -3.480963  6 H  s                 43      3.082733  2 C  px         
     9      2.700957  1 C  py                72     -2.560264  3 H  s          
    87      2.560264  4 H  s                  8     -2.138203  1 C  px         
    59      2.136345  2 C  dyz               57      1.936519  2 C  dxz        

 Vector   58  Occ=0.000000D+00  E= 2.617410D+00  Symmetry=b2
              MO Center= -3.3D-15, -1.8D-15, -6.4D-15, r^2= 2.8D+00
   Bfn.  Coefficient  Atom+Function         Bfn.  Coefficient  Atom+Function  
  ----- ------------  ---------------      ----- ------------  ---------------
     4      5.185918  1 C  s                 39     -5.185918  2 C  s          
    72      4.155133  3 H  s                 87      4.155133  4 H  s          
   102     -4.155133  5 H  s                117     -4.155133  6 H  s          
    20     -2.698035  1 C  dxx               23     -2.698035  1 C  dyy        
    55      2.698035  2 C  dxx               58      2.698035  2 C  dyy        

 Vector   59  Occ=0.000000D+00  E= 2.731866D+00  Symmetry=b1
              MO Center=  3.5D-18,  2.8D-16,  1.7D-16, r^2= 1.9D+00
   Bfn.  Coefficient  Atom+Function         Bfn.  Coefficient  Atom+Function  
  ----- ------------  ---------------      ----- ------------  ---------------
    28      0.645672  1 C  fxxz              33     -0.645672  1 C  fyyz       
    63     -0.645672  2 C  fxxz              68      0.645672  2 C  fyyz       
    14     -0.370791  1 C  dxx               17      0.370791  1 C  dyy        
    49     -0.370791  2 C  dxx               52      0.370791  2 C  dyy        
    77     -0.156651  3 H  px                78     -0.156651  3 H  py         

 Vector   60  Occ=0.000000D+00  E= 2.746719D+00  Symmetry=e
              MO Center=  5.3D-17,  2.2D-16, -2.6D-02, r^2= 1.7D+00
   Bfn.  Coefficient  Atom+Function         Bfn.  Coefficient  Atom+Function  
  ----- ------------  ---------------      ----- ------------  ---------------
     8      1.497940  1 C  px                 9     -1.455889  1 C  py         
    34      1.342616  1 C  fyzz              31     -1.315856  1 C  fxzz       
    72      1.115221  3 H  s                 87     -1.115221  4 H  s          
    22      0.781815  1 C  dxz               24     -0.780322  1 C  dyz        
    79      0.698263  3 H  pz                94     -0.698263  4 H  pz         

 Vector   61  Occ=0.000000D+00  E= 2.746719D+00  Symmetry=e
              MO Center= -1.4D-15, -1.8D-15,  2.6D-02, r^2= 1.7D+00
   Bfn.  Coefficient  Atom+Function         Bfn.  Coefficient  Atom+Function  
  ----- ------------  ---------------      ----- ------------  ---------------
    44      1.497940  2 C  py                43      1.455889  2 C  px         
    66     -1.342616  2 C  fxzz              69     -1.315856  2 C  fyzz       
   102      1.115221  5 H  s                117     -1.115221  6 H  s          
    57     -0.780322  2 C  dxz               59     -0.781815  2 C  dyz        
   109     -0.698263  5 H  pz               124      0.698263  6 H  pz         

 Vector   62  Occ=0.000000D+00  E= 2.842132D+00  Symmetry=b2
              MO Center=  1.8D-16, -1.1D-15,  2.1D-15, r^2= 2.0D+00
   Bfn.  Coefficient  Atom+Function         Bfn.  Coefficient  Atom+Function  
  ----- ------------  ---------------      ----- ------------  ---------------
     4      1.933083  1 C  s                 39     -1.933083  2 C  s          
    20     -1.446973  1 C  dxx               23     -1.446973  1 C  dyy        
    55      1.446973  2 C  dxx               58      1.446973  2 C  dyy        
    25     -1.407935  1 C  dzz               60      1.407935  2 C  dzz        
    72      1.333623  3 H  s                 87      1.333623  4 H  s          

 Vector   63  Occ=0.000000D+00  E= 2.871993D+00  Symmetry=a1
              MO Center= -6.5D-16, -1.2D-16,  4.8D-15, r^2= 1.7D+00
   Bfn.  Coefficient  Atom+Function         Bfn.  Coefficient  Atom+Function  
  ----- ------------  ---------------      ----- ------------  ---------------
    72      1.244043  3 H  s                 87      1.244043  4 H  s          
   102      1.244043  5 H  s                117      1.244043  6 H  s          
    10      1.235638  1 C  pz                45     -1.235638  2 C  pz         
    25     -1.199891  1 C  dzz               60     -1.199891  2 C  dzz        
    19      0.718543  1 C  dzz               54      0.718543  2 C  dzz        

 Vector   64  Occ=0.000000D+00  E= 2.934294D+00  Symmetry=b1
              MO Center= -5.5D-17,  7.6D-17,  2.6D-16, r^2= 1.3D+00
   Bfn.  Coefficient  Atom+Function         Bfn.  Coefficient  Atom+Function  
  ----- ------------  ---------------      ----- ------------  ---------------
    28      1.253325  1 C  fxxz              33     -1.253325  1 C  fyyz       
    63     -1.253325  2 C  fxxz              68      1.253325  2 C  fyyz       
    20     -0.695464  1 C  dxx               23      0.695464  1 C  dyy        
    55     -0.695464  2 C  dxx               58      0.695464  2 C  dyy        
    14      0.445667  1 C  dxx               17     -0.445667  1 C  dyy        

 Vector   65  Occ=0.000000D+00  E= 2.946006D+00  Symmetry=b2
              MO Center=  8.8D-16,  1.7D-15, -3.0D-15, r^2= 2.1D+00
   Bfn.  Coefficient  Atom+Function         Bfn.  Coefficient  Atom+Function  
  ----- ------------  ---------------      ----- ------------  ---------------
    25      1.842997  1 C  dzz               60     -1.842997  2 C  dzz        
    21      1.772431  1 C  dxy               56      1.772431  2 C  dxy        
    10      1.569073  1 C  pz                45      1.569073  2 C  pz         
    30     -1.552522  1 C  fxyz              65      1.552522  2 C  fxyz       
    13      1.394776  1 C  pz                48      1.394776  2 C  pz         

 Vector   66  Occ=0.000000D+00  E= 2.946731D+00  Symmetry=a2
              MO Center=  9.7D-17, -1.2D-17, -2.2D-16, r^2= 2.1D+00
   Bfn.  Coefficient  Atom+Function         Bfn.  Coefficient  Atom+Function  
  ----- ------------  ---------------      ----- ------------  ---------------
    28      0.611147  1 C  fxxz              33     -0.611147  1 C  fyyz       
    63      0.611147  2 C  fxxz              68     -0.611147  2 C  fyyz       
    20      0.487779  1 C  dxx               23     -0.487779  1 C  dyy        
    55     -0.487779  2 C  dxx               58      0.487779  2 C  dyy        
    14     -0.404432  1 C  dxx               17      0.404432  1 C  dyy        

 Vector   67  Occ=0.000000D+00  E= 3.002190D+00  Symmetry=e
              MO Center= -3.6D-16, -8.8D-17,  3.3D-01, r^2= 1.8D+00
   Bfn.  Coefficient  Atom+Function         Bfn.  Coefficient  Atom+Function  
  ----- ------------  ---------------      ----- ------------  ---------------
    72      1.788503  3 H  s                 87     -1.788503  4 H  s          
     9     -1.386721  1 C  py                 8      1.360731  1 C  px         
    64      1.357814  2 C  fxyy              62     -1.140941  2 C  fxxy       
    24      0.928659  1 C  dyz               29      0.761179  1 C  fxyy       
    59      0.747463  2 C  dyz               31     -0.706338  1 C  fxzz       

 Vector   68  Occ=0.000000D+00  E= 3.002190D+00  Symmetry=e
              MO Center=  2.0D-15,  1.2D-15, -3.3D-01, r^2= 1.8D+00
   Bfn.  Coefficient  Atom+Function         Bfn.  Coefficient  Atom+Function  
  ----- ------------  ---------------      ----- ------------  ---------------
   102      1.788503  5 H  s                117     -1.788503  6 H  s          
    43      1.386721  2 C  px                27      1.357814  1 C  fxxy       
    44      1.360731  2 C  py                29      1.140941  1 C  fxyy       
    57      0.928659  2 C  dxz               62      0.761179  2 C  fxxy       
    22      0.747463  1 C  dxz               69     -0.706338  2 C  fyzz       

 Vector   69  Occ=0.000000D+00  E= 3.059769D+00  Symmetry=a1
              MO Center= -7.8D-16,  6.4D-15,  1.1D-14, r^2= 1.7D+00
   Bfn.  Coefficient  Atom+Function         Bfn.  Coefficient  Atom+Function  
  ----- ------------  ---------------      ----- ------------  ---------------
    72      3.197724  3 H  s                 87      3.197724  4 H  s          
   102      3.197724  5 H  s                117      3.197724  6 H  s          
    10      2.271218  1 C  pz                45     -2.271218  2 C  pz         
    20     -2.231973  1 C  dxx               23     -2.231973  1 C  dyy        
    55     -2.231973  2 C  dxx               58     -2.231973  2 C  dyy        

 Vector   70  Occ=0.000000D+00  E= 3.106888D+00  Symmetry=e
              MO Center=  6.7D-16,  5.8D-16, -5.5D-02, r^2= 1.9D+00
   Bfn.  Coefficient  Atom+Function         Bfn.  Coefficient  Atom+Function  
  ----- ------------  ---------------      ----- ------------  ---------------
    24      2.314330  1 C  dyz               59      2.213559  2 C  dyz        
    22     -1.261948  1 C  dxz               29      1.080005  1 C  fxyy       
    57      1.065942  2 C  dxz               64      1.017758  2 C  fxyy       
    27     -0.764390  1 C  fxxy              18     -0.722238  1 C  dyz        
    62      0.673581  2 C  fxxy              53     -0.667420  2 C  dyz        

 Vector   71  Occ=0.000000D+00  E= 3.106888D+00  Symmetry=e
              MO Center= -2.5D-15, -1.5D-15,  5.5D-02, r^2= 1.9D+00
   Bfn.  Coefficient  Atom+Function         Bfn.  Coefficient  Atom+Function  
  ----- ------------  ---------------      ----- ------------  ---------------
    57      2.314330  2 C  dxz               22      2.213559  1 C  dxz        
    59      1.261948  2 C  dyz               62      1.080005  2 C  fxxy       
    24     -1.065942  1 C  dyz               27      1.017758  1 C  fxxy       
    64      0.764390  2 C  fxyy              51     -0.722238  2 C  dxz        
    29     -0.673581  1 C  fxyy              16     -0.667420  1 C  dxz        

 Vector   72  Occ=0.000000D+00  E= 3.165194D+00  Symmetry=a1
              MO Center=  2.8D-15, -1.9D-16,  3.9D-14, r^2= 1.5D+00
   Bfn.  Coefficient  Atom+Function         Bfn.  Coefficient  Atom+Function  
  ----- ------------  ---------------      ----- ------------  ---------------
    21      2.599358  1 C  dxy               56     -2.599358  2 C  dxy        
    72      1.574401  3 H  s                 87      1.574401  4 H  s          
   102      1.574401  5 H  s                117      1.574401  6 H  s          
    30     -1.107856  1 C  fxyz              65     -1.107856  2 C  fxyz       
    28      1.094965  1 C  fxxz              33      1.094965  1 C  fyyz       

 Vector   73  Occ=0.000000D+00  E= 3.183625D+00  Symmetry=b2
              MO Center= -4.5D-16, -2.4D-15, -3.1D-14, r^2= 2.8D+00
   Bfn.  Coefficient  Atom+Function         Bfn.  Coefficient  Atom+Function  
  ----- ------------  ---------------      ----- ------------  ---------------
    25      2.308168  1 C  dzz               60     -2.308168  2 C  dzz        
    72     -2.115074  3 H  s                 87     -2.115074  4 H  s          
   102      2.115074  5 H  s                117      2.115074  6 H  s          
    13      1.459159  1 C  pz                48      1.459159  2 C  pz         
     4      1.436617  1 C  s                 39     -1.436617  2 C  s          

 Vector   74  Occ=0.000000D+00  E= 3.281114D+00  Symmetry=e
              MO Center=  4.1D-15,  1.3D-15,  1.7D-02, r^2= 2.6D+00
   Bfn.  Coefficient  Atom+Function         Bfn.  Coefficient  Atom+Function  
  ----- ------------  ---------------      ----- ------------  ---------------
    24     -1.493663  1 C  dyz               59      1.467910  2 C  dyz        
   102      1.441271  5 H  s                117     -1.441271  6 H  s          
    44      1.432010  2 C  py                 9      1.361135  1 C  py         
    72     -1.337916  3 H  s                 87      1.337916  4 H  s          
    64      1.306775  2 C  fxyy              29     -1.263747  1 C  fxyy       

 Vector   75  Occ=0.000000D+00  E= 3.281114D+00  Symmetry=e
              MO Center= -2.0D-15,  2.0D-15, -1.7D-02, r^2= 2.6D+00
   Bfn.  Coefficient  Atom+Function         Bfn.  Coefficient  Atom+Function  
  ----- ------------  ---------------      ----- ------------  ---------------
    57      1.493663  2 C  dxz               22     -1.467910  1 C  dxz        
    72      1.441271  3 H  s                 87     -1.441271  4 H  s          
     8      1.432010  1 C  px                43      1.361135  2 C  px         
   102      1.337916  5 H  s                117     -1.337916  6 H  s          
    27     -1.306775  1 C  fxxy              62      1.263747  2 C  fxxy       

 Vector   76  Occ=0.000000D+00  E= 3.298328D+00  Symmetry=a2
              MO Center= -1.7D-16,  4.9D-16, -1.7D-16, r^2= 1.9D+00
   Bfn.  Coefficient  Atom+Function         Bfn.  Coefficient  Atom+Function  
  ----- ------------  ---------------      ----- ------------  ---------------
    20      0.900516  1 C  dxx               23     -0.900516  1 C  dyy        
    55     -0.900516  2 C  dxx               58      0.900516  2 C  dyy        
    28     -0.846677  1 C  fxxz              33      0.846677  1 C  fyyz       
    63     -0.846677  2 C  fxxz              68      0.846677  2 C  fyyz       
    14     -0.495304  1 C  dxx               17      0.495304  1 C  dyy        

 Vector   77  Occ=0.000000D+00  E= 3.362102D+00  Symmetry=e
              MO Center=  1.6D-16,  1.2D-16,  1.3D-02, r^2= 2.5D+00
   Bfn.  Coefficient  Atom+Function         Bfn.  Coefficient  Atom+Function  
  ----- ------------  ---------------      ----- ------------  ---------------
    57      2.886779  2 C  dxz               59      2.651822  2 C  dyz        
   102      2.055372  5 H  s                117     -2.055372  6 H  s          
    22      1.715085  1 C  dxz               43      1.635721  2 C  px         
    44      1.537395  2 C  py                62      1.316602  2 C  fxxy       
    24      1.280695  1 C  dyz               34      1.236307  1 C  fyzz       

 Vector   78  Occ=0.000000D+00  E= 3.362102D+00  Symmetry=e
              MO Center=  3.5D-15, -2.4D-15, -1.3D-02, r^2= 2.5D+00
   Bfn.  Coefficient  Atom+Function         Bfn.  Coefficient  Atom+Function  
  ----- ------------  ---------------      ----- ------------  ---------------
    24     -2.886779  1 C  dyz               22      2.651822  1 C  dxz        
    72     -2.055372  3 H  s                 87      2.055372  4 H  s          
    59     -1.715085  2 C  dyz                9      1.635721  1 C  py         
     8     -1.537395  1 C  px                29     -1.316602  1 C  fxyy       
    57      1.280695  2 C  dxz               66     -1.236307  2 C  fxzz       

 Vector   79  Occ=0.000000D+00  E= 3.464803D+00  Symmetry=b1
              MO Center=  0.0D+00, -1.9D-16,  2.2D-16, r^2= 2.9D+00
   Bfn.  Coefficient  Atom+Function         Bfn.  Coefficient  Atom+Function  
  ----- ------------  ---------------      ----- ------------  ---------------
    82      0.494936  3 H  dxz               84      0.494936  3 H  dyz        
    97     -0.494936  4 H  dxz               99     -0.494936  4 H  dyz        
   112     -0.494936  5 H  dxz              114      0.494936  5 H  dyz        
   127      0.494936  6 H  dxz              129     -0.494936  6 H  dyz        
    28      0.292800  1 C  fxxz              33     -0.292800  1 C  fyyz       

 Vector   80  Occ=0.000000D+00  E= 3.510015D+00  Symmetry=a1
              MO Center=  5.3D-16, -6.2D-16, -2.4D-15, r^2= 2.6D+00
   Bfn.  Coefficient  Atom+Function         Bfn.  Coefficient  Atom+Function  
  ----- ------------  ---------------      ----- ------------  ---------------
    30      2.824371  1 C  fxyz              65      2.824371  2 C  fxyz       
    72      0.601157  3 H  s                 87      0.601157  4 H  s          
   102      0.601157  5 H  s                117      0.601157  6 H  s          
    21      0.547131  1 C  dxy               56     -0.547131  2 C  dxy        
    15     -0.524101  1 C  dxy               50      0.524101  2 C  dxy        

 Vector   81  Occ=0.000000D+00  E= 3.514966D+00  Symmetry=b2
              MO Center= -4.2D-15,  1.2D-15,  1.3D-14, r^2= 2.1D+00
   Bfn.  Coefficient  Atom+Function         Bfn.  Coefficient  Atom+Function  
  ----- ------------  ---------------      ----- ------------  ---------------
     4      5.045521  1 C  s                 39     -5.045521  2 C  s          
    20     -3.601977  1 C  dxx               23     -3.601977  1 C  dyy        
    25     -3.602705  1 C  dzz               55      3.601977  2 C  dxx        
    58      3.601977  2 C  dyy               60      3.602705  2 C  dzz        
    72      3.368211  3 H  s                 87      3.368211  4 H  s          

 Vector   82  Occ=0.000000D+00  E= 3.638787D+00  Symmetry=e
              MO Center=  1.3D-15,  3.1D-16,  4.0D-01, r^2= 2.3D+00
   Bfn.  Coefficient  Atom+Function         Bfn.  Coefficient  Atom+Function  
  ----- ------------  ---------------      ----- ------------  ---------------
   102      1.133302  5 H  s                117     -1.133302  6 H  s          
    69      1.080286  2 C  fyzz              34     -0.863701  1 C  fyzz       
    66      0.786723  2 C  fxzz              27      0.688340  1 C  fxxy       
    57      0.671475  2 C  dxz               29      0.553228  1 C  fxyy       
    59      0.531648  2 C  dyz               44      0.507611  2 C  py         

 Vector   83  Occ=0.000000D+00  E= 3.638787D+00  Symmetry=e
              MO Center=  8.3D-16, -8.3D-16, -4.0D-01, r^2= 2.3D+00
   Bfn.  Coefficient  Atom+Function         Bfn.  Coefficient  Atom+Function  
  ----- ------------  ---------------      ----- ------------  ---------------
    72      1.133302  3 H  s                 87     -1.133302  4 H  s          
    31      1.080286  1 C  fxzz              66     -0.863701  2 C  fxzz       
    34     -0.786723  1 C  fyzz              64      0.688340  2 C  fxyy       
    24      0.671475  1 C  dyz               62     -0.553228  2 C  fxxy       
    22     -0.531648  1 C  dxz                8      0.507611  1 C  px         

 Vector   84  Occ=0.000000D+00  E= 3.700508D+00  Symmetry=a2
              MO Center=  5.0D-16, -7.6D-17, -5.6D-17, r^2= 2.6D+00
   Bfn.  Coefficient  Atom+Function         Bfn.  Coefficient  Atom+Function  
  ----- ------------  ---------------      ----- ------------  ---------------
    28      0.887925  1 C  fxxz              33     -0.887925  1 C  fyyz       
    63      0.887925  2 C  fxxz              68     -0.887925  2 C  fyyz       
    77     -0.307520  3 H  px                78     -0.307520  3 H  py         
    92      0.307520  4 H  px                93      0.307520  4 H  py         
   107      0.307520  5 H  px               108     -0.307520  5 H  py         

 Vector   85  Occ=0.000000D+00  E= 3.800672D+00  Symmetry=a1
              MO Center=  1.2D-15, -6.2D-16,  1.2D-14, r^2= 2.8D+00
   Bfn.  Coefficient  Atom+Function         Bfn.  Coefficient  Atom+Function  
  ----- ------------  ---------------      ----- ------------  ---------------
    25      1.979208  1 C  dzz               60      1.979208  2 C  dzz        
    10     -1.786124  1 C  pz                45      1.786124  2 C  pz         
    72     -1.672892  3 H  s                 87     -1.672892  4 H  s          
   102     -1.672892  5 H  s                117     -1.672892  6 H  s          
    21     -1.126069  1 C  dxy               56      1.126069  2 C  dxy        

 Vector   86  Occ=0.000000D+00  E= 3.875132D+00  Symmetry=e
              MO Center= -8.0D-16, -7.8D-16, -4.0D-01, r^2= 2.4D+00
   Bfn.  Coefficient  Atom+Function         Bfn.  Coefficient  Atom+Function  
  ----- ------------  ---------------      ----- ------------  ---------------
     8      2.522840  1 C  px                 9      2.485235  1 C  py         
    26     -1.745892  1 C  fxxx              32     -1.675299  1 C  fyyy       
    27     -1.543669  1 C  fxxy              29     -1.433799  1 C  fxyy       
    34     -0.980497  1 C  fyzz              31     -0.880360  1 C  fxzz       
    62      0.613851  2 C  fxxy              69      0.503479  2 C  fyzz       

 Vector   87  Occ=0.000000D+00  E= 3.875132D+00  Symmetry=e
              MO Center= -4.2D-17,  3.8D-16,  4.0D-01, r^2= 2.4D+00
   Bfn.  Coefficient  Atom+Function         Bfn.  Coefficient  Atom+Function  
  ----- ------------  ---------------      ----- ------------  ---------------
    44     -2.522840  2 C  py                43      2.485235  2 C  px         
    67      1.745892  2 C  fyyy              61     -1.675299  2 C  fxxx       
    64     -1.543669  2 C  fxyy              62      1.433799  2 C  fxxy       
    66     -0.980497  2 C  fxzz              69      0.880360  2 C  fyzz       
    29      0.613851  1 C  fxyy              31      0.503479  1 C  fxzz       

 Vector   88  Occ=0.000000D+00  E= 3.887851D+00  Symmetry=b2
              MO Center= -9.0D-16, -7.9D-16, -2.2D-15, r^2= 2.8D+00
   Bfn.  Coefficient  Atom+Function         Bfn.  Coefficient  Atom+Function  
  ----- ------------  ---------------      ----- ------------  ---------------
    10      1.709858  1 C  pz                45      1.709858  2 C  pz         
    25      0.864478  1 C  dzz               60     -0.864478  2 C  dzz        
    28      0.673240  1 C  fxxz              33      0.673240  1 C  fyyz       
    63      0.673240  2 C  fxxz              68      0.673240  2 C  fyyz       
     4     -0.592688  1 C  s                 39      0.592688  2 C  s          

 Vector   89  Occ=0.000000D+00  E= 3.986152D+00  Symmetry=a1
              MO Center=  1.6D-16,  2.1D-16, -2.9D-15, r^2= 2.5D+00
   Bfn.  Coefficient  Atom+Function         Bfn.  Coefficient  Atom+Function  
  ----- ------------  ---------------      ----- ------------  ---------------
    10      2.033733  1 C  pz                45     -2.033733  2 C  pz         
     4      1.585755  1 C  s                 39      1.585755  2 C  s          
    35     -1.435314  1 C  fzzz              70      1.435314  2 C  fzzz       
    30     -1.063585  1 C  fxyz              65     -1.063585  2 C  fxyz       
    25     -0.848481  1 C  dzz               60     -0.848481  2 C  dzz        

 Vector   90  Occ=0.000000D+00  E= 4.000272D+00  Symmetry=e
              MO Center=  8.1D-17, -1.9D-16,  4.4D-01, r^2= 2.8D+00
   Bfn.  Coefficient  Atom+Function         Bfn.  Coefficient  Atom+Function  
  ----- ------------  ---------------      ----- ------------  ---------------
     9      1.062925  1 C  py                57      1.043905  2 C  dxz        
     8      1.037742  1 C  px                66     -0.984258  2 C  fxzz       
    59      0.871969  2 C  dyz               69     -0.872844  2 C  fyzz       
    22      0.837758  1 C  dxz               27     -0.763941  1 C  fxxy       
   111     -0.765043  5 H  dxy              126      0.765043  6 H  dxy        

 Vector   91  Occ=0.000000D+00  E= 4.000272D+00  Symmetry=e
              MO Center= -5.3D-16,  3.6D-15, -4.4D-01, r^2= 2.8D+00
   Bfn.  Coefficient  Atom+Function         Bfn.  Coefficient  Atom+Function  
  ----- ------------  ---------------      ----- ------------  ---------------
    43      1.062925  2 C  px                24      1.043905  1 C  dyz        
    44     -1.037742  2 C  py                34      0.984258  1 C  fyzz       
    22     -0.871969  1 C  dxz               31     -0.872844  1 C  fxzz       
    59      0.837758  2 C  dyz               64     -0.763941  2 C  fxyy       
    81      0.765043  3 H  dxy               96     -0.765043  4 H  dxy        

 Vector   92  Occ=0.000000D+00  E= 4.048200D+00  Symmetry=b1
              MO Center= -1.3D-15, -1.2D-15,  0.0D+00, r^2= 3.3D+00
   Bfn.  Coefficient  Atom+Function         Bfn.  Coefficient  Atom+Function  
  ----- ------------  ---------------      ----- ------------  ---------------
    74      0.409795  3 H  px                75      0.409795  3 H  py         
    89     -0.409795  4 H  px                90     -0.409795  4 H  py         
   104      0.409795  5 H  px               105     -0.409795  5 H  py         
   119     -0.409795  6 H  px               120      0.409795  6 H  py         
    77     -0.383888  3 H  px                78     -0.383888  3 H  py         

 Vector   93  Occ=0.000000D+00  E= 4.095201D+00  Symmetry=e
              MO Center=  2.8D-16, -7.6D-17, -7.1D-01, r^2= 2.1D+00
   Bfn.  Coefficient  Atom+Function         Bfn.  Coefficient  Atom+Function  
  ----- ------------  ---------------      ----- ------------  ---------------
     9      4.703805  1 C  py                 8      4.650333  1 C  px         
    29     -2.607815  1 C  fxyy              57      2.567769  2 C  dxz        
    27     -2.495748  1 C  fxxy              59      2.410941  2 C  dyz        
    26     -2.332982  1 C  fxxx              32     -2.272135  1 C  fyyy       
    31     -2.188330  1 C  fxzz              34     -2.123647  1 C  fyzz       

 Vector   94  Occ=0.000000D+00  E= 4.095201D+00  Symmetry=e
              MO Center= -1.4D-15,  1.3D-15,  7.1D-01, r^2= 2.1D+00
   Bfn.  Coefficient  Atom+Function         Bfn.  Coefficient  Atom+Function  
  ----- ------------  ---------------      ----- ------------  ---------------
    43      4.703805  2 C  px                44     -4.650333  2 C  py         
    62      2.607815  2 C  fxxy              24      2.567769  1 C  dyz        
    64     -2.495748  2 C  fxyy              22     -2.410941  1 C  dxz        
    67      2.332982  2 C  fyyy              61     -2.272135  2 C  fxxx       
    69      2.188330  2 C  fyzz              66     -2.123647  2 C  fxzz       

 Vector   95  Occ=0.000000D+00  E= 4.220683D+00  Symmetry=a1
              MO Center= -2.3D-16,  4.0D-16,  8.9D-16, r^2= 2.9D+00
   Bfn.  Coefficient  Atom+Function         Bfn.  Coefficient  Atom+Function  
  ----- ------------  ---------------      ----- ------------  ---------------
    25      0.839842  1 C  dzz               60      0.839842  2 C  dzz        
    79      0.541704  3 H  pz                94      0.541704  4 H  pz         
   109     -0.541704  5 H  pz               124     -0.541704  6 H  pz         
    35      0.471758  1 C  fzzz              70     -0.471758  2 C  fzzz       
    76     -0.409754  3 H  pz                91     -0.409754  4 H  pz         

 Vector   96  Occ=0.000000D+00  E= 4.233134D+00  Symmetry=b2
              MO Center=  4.9D-15, -5.7D-15,  2.3D-15, r^2= 3.1D+00
   Bfn.  Coefficient  Atom+Function         Bfn.  Coefficient  Atom+Function  
  ----- ------------  ---------------      ----- ------------  ---------------
     4      2.511879  1 C  s                 39     -2.511879  2 C  s          
    13      1.703328  1 C  pz                48      1.703328  2 C  pz         
    21     -1.262492  1 C  dxy               56     -1.262492  2 C  dxy        
[...]
              MO Center=  8.0D-17,  2.3D-16,  3.6D-01, r^2= 2.6D+00
   Bfn.  Coefficient  Atom+Function         Bfn.  Coefficient  Atom+Function  
  ----- ------------  ---------------      ----- ------------  ---------------
    72      1.742601  3 H  s                 87     -1.742601  4 H  s          
     9     -1.104139  1 C  py                62      1.087193  2 C  fxxy       
     8      1.077674  1 C  px                64     -0.961931  2 C  fxyy       
    61      0.763506  2 C  fxxx              67     -0.713850  2 C  fyyy       
    77      0.649613  3 H  px                92      0.649613  4 H  px         

 Vector  109  Occ=0.000000D+00  E= 5.021621D+00  Symmetry=b1
              MO Center=  5.9D-16,  2.7D-16, -4.3D-16, r^2= 2.4D+00
   Bfn.  Coefficient  Atom+Function         Bfn.  Coefficient  Atom+Function  
  ----- ------------  ---------------      ----- ------------  ---------------
    28      1.157594  1 C  fxxz              33     -1.157594  1 C  fyyz       
    63     -1.157594  2 C  fxxz              68      1.157594  2 C  fyyz       
    14     -0.555042  1 C  dxx               17      0.555042  1 C  dyy        
    49     -0.555042  2 C  dxx               52      0.555042  2 C  dyy        
    80     -0.495025  3 H  dxx               83      0.495025  3 H  dyy        

 Vector  110  Occ=0.000000D+00  E= 5.079946D+00  Symmetry=a1
              MO Center=  3.7D-15, -2.3D-16,  4.7D-15, r^2= 3.0D+00
   Bfn.  Coefficient  Atom+Function         Bfn.  Coefficient  Atom+Function  
  ----- ------------  ---------------      ----- ------------  ---------------
    72      2.409129  3 H  s                 87      2.409129  4 H  s          
   102      2.409129  5 H  s                117      2.409129  6 H  s          
    10     -1.457418  1 C  pz                45      1.457418  2 C  pz         
    28      1.450127  1 C  fxxz              33      1.450127  1 C  fyyz       
    63     -1.450127  2 C  fxxz              68     -1.450127  2 C  fyyz       

 Vector  111  Occ=0.000000D+00  E= 5.159156D+00  Symmetry=b2
              MO Center= -3.3D-15,  4.2D-15, -1.3D-15, r^2= 2.6D+00
   Bfn.  Coefficient  Atom+Function         Bfn.  Coefficient  Atom+Function  
  ----- ------------  ---------------      ----- ------------  ---------------
    72      2.808115  3 H  s                 87      2.808115  4 H  s          
   102     -2.808115  5 H  s                117     -2.808115  6 H  s          
    21      1.799117  1 C  dxy               56      1.799117  2 C  dxy        
    20     -1.640207  1 C  dxx               23     -1.640207  1 C  dyy        
    55      1.640207  2 C  dxx               58      1.640207  2 C  dyy        

 Vector  112  Occ=0.000000D+00  E= 5.174688D+00  Symmetry=e
              MO Center= -1.1D-15, -1.3D-15,  2.7D-01, r^2= 2.7D+00
   Bfn.  Coefficient  Atom+Function         Bfn.  Coefficient  Atom+Function  
  ----- ------------  ---------------      ----- ------------  ---------------
   102      2.151805  5 H  s                117     -2.151805  6 H  s          
    44      1.976755  2 C  py                 9     -1.594363  1 C  py         
    27      1.498502  1 C  fxxy              62     -1.461061  2 C  fxxy       
    72      1.256053  3 H  s                 87     -1.256053  4 H  s          
    43      1.196732  2 C  px               109     -0.937954  5 H  pz         

 Vector  113  Occ=0.000000D+00  E= 5.174688D+00  Symmetry=e
              MO Center= -2.7D-15,  1.4D-15, -2.7D-01, r^2= 2.7D+00
   Bfn.  Coefficient  Atom+Function         Bfn.  Coefficient  Atom+Function  
  ----- ------------  ---------------      ----- ------------  ---------------
    72      2.151805  3 H  s                 87     -2.151805  4 H  s          
     8      1.976755  1 C  px                43     -1.594363  2 C  px         
    64      1.498502  2 C  fxyy              29     -1.461061  1 C  fxyy       
   102     -1.256053  5 H  s                117      1.256053  6 H  s          
     9     -1.196732  1 C  py                79      0.937954  3 H  pz         

 Vector  114  Occ=0.000000D+00  E= 5.229973D+00  Symmetry=a1
              MO Center= -2.0D-16, -1.4D-16,  2.8D-15, r^2= 2.7D+00
   Bfn.  Coefficient  Atom+Function         Bfn.  Coefficient  Atom+Function  
  ----- ------------  ---------------      ----- ------------  ---------------
    30      1.314556  1 C  fxyz              65      1.314556  2 C  fxyz       
    21      0.915482  1 C  dxy               56     -0.915482  2 C  dxy        
    25      0.906807  1 C  dzz               60      0.906807  2 C  dzz        
    35     -0.816853  1 C  fzzz              70      0.816853  2 C  fzzz       
    81      0.689623  3 H  dxy               96      0.689623  4 H  dxy        

 Vector  115  Occ=0.000000D+00  E= 5.284398D+00  Symmetry=a2
              MO Center=  9.1D-17, -1.8D-16,  3.6D-16, r^2= 2.3D+00
   Bfn.  Coefficient  Atom+Function         Bfn.  Coefficient  Atom+Function  
  ----- ------------  ---------------      ----- ------------  ---------------
    28      1.851723  1 C  fxxz              33     -1.851723  1 C  fyyz       
    63      1.851723  2 C  fxxz              68     -1.851723  2 C  fyyz       
    80     -0.535537  3 H  dxx               83      0.535537  3 H  dyy        
    95     -0.535537  4 H  dxx               98      0.535537  4 H  dyy        
   110      0.535537  5 H  dxx              113     -0.535537  5 H  dyy        

 Vector  116  Occ=0.000000D+00  E= 5.551900D+00  Symmetry=b2
              MO Center= -4.9D-15, -6.4D-15,  1.1D-14, r^2= 2.8D+00
   Bfn.  Coefficient  Atom+Function         Bfn.  Coefficient  Atom+Function  
  ----- ------------  ---------------      ----- ------------  ---------------
    10      4.773048  1 C  pz                45      4.773048  2 C  pz         
    72      3.742041  3 H  s                 87      3.742041  4 H  s          
   102     -3.742041  5 H  s                117     -3.742041  6 H  s          
     4      3.146878  1 C  s                 39     -3.146878  2 C  s          
     3     -2.142636  1 C  s                 38      2.142636  2 C  s          

 Vector  117  Occ=0.000000D+00  E= 5.598890D+00  Symmetry=a1
              MO Center= -4.4D-17,  1.5D-15, -1.3D-14, r^2= 2.6D+00
   Bfn.  Coefficient  Atom+Function         Bfn.  Coefficient  Atom+Function  
  ----- ------------  ---------------      ----- ------------  ---------------
    30      1.665151  1 C  fxyz              65      1.665151  2 C  fxyz       
    72      1.338707  3 H  s                 87      1.338707  4 H  s          
   102      1.338707  5 H  s                117      1.338707  6 H  s          
     3     -1.031577  1 C  s                 38     -1.031577  2 C  s          
    81     -0.924320  3 H  dxy               96     -0.924320  4 H  dxy        

 Vector  118  Occ=0.000000D+00  E= 5.885270D+00  Symmetry=e
              MO Center= -1.2D-14,  1.2D-14, -7.7D-01, r^2= 1.6D+00
   Bfn.  Coefficient  Atom+Function         Bfn.  Coefficient  Atom+Function  
  ----- ------------  ---------------      ----- ------------  ---------------
     8      6.892374  1 C  px                 9     -6.886217  1 C  py         
    72      4.452951  3 H  s                 87     -4.452951  4 H  s          
    31     -4.130715  1 C  fxzz              34      3.960897  1 C  fyzz       
    22     -3.258342  1 C  dxz               24      3.210339  1 C  dyz        
    66      1.477126  2 C  fxzz              26     -1.394383  1 C  fxxx       

 Vector  119  Occ=0.000000D+00  E= 5.885270D+00  Symmetry=e
              MO Center= -2.2D-15,  1.1D-14,  7.7D-01, r^2= 1.6D+00
   Bfn.  Coefficient  Atom+Function         Bfn.  Coefficient  Atom+Function  
  ----- ------------  ---------------      ----- ------------  ---------------
    43      6.886217  2 C  px                44      6.892374  2 C  py         
   102      4.452951  5 H  s                117     -4.452951  6 H  s          
    69     -4.130715  2 C  fyzz              66     -3.960897  2 C  fxzz       
    59      3.258342  2 C  dyz               57      3.210339  2 C  dxz        
    34      1.477126  1 C  fyzz              67     -1.394383  2 C  fyyy       

 Vector  120  Occ=0.000000D+00  E= 6.201395D+00  Symmetry=b2
              MO Center= -2.6D-16,  1.3D-15,  3.0D-16, r^2= 2.3D+00
   Bfn.  Coefficient  Atom+Function         Bfn.  Coefficient  Atom+Function  
  ----- ------------  ---------------      ----- ------------  ---------------
    25      2.057308  1 C  dzz               60     -2.057308  2 C  dzz        
    30     -2.011170  1 C  fxyz              65      2.011170  2 C  fxyz       
    72     -1.595657  3 H  s                 87     -1.595657  4 H  s          
   102      1.595657  5 H  s                117      1.595657  6 H  s          
    28      1.541435  1 C  fxxz              33      1.541435  1 C  fyyz       

 Vector  121  Occ=0.000000D+00  E= 6.218310D+00  Symmetry=e
              MO Center=  2.2D-14,  2.3D-14,  3.6D-01, r^2= 2.4D+00
   Bfn.  Coefficient  Atom+Function         Bfn.  Coefficient  Atom+Function  
  ----- ------------  ---------------      ----- ------------  ---------------
    43     11.768800  2 C  px                44     10.802008  2 C  py         
     8      8.274462  1 C  px                 9     -6.829745  1 C  py         
   102      6.837800  5 H  s                117     -6.837800  6 H  s          
    59      5.150236  2 C  dyz               57      4.935366  2 C  dxz        
    72      4.575802  3 H  s                 87     -4.575802  4 H  s          

 Vector  122  Occ=0.000000D+00  E= 6.218310D+00  Symmetry=e
              MO Center=  3.3D-15, -3.2D-14, -3.6D-01, r^2= 2.4D+00
   Bfn.  Coefficient  Atom+Function         Bfn.  Coefficient  Atom+Function  
  ----- ------------  ---------------      ----- ------------  ---------------
     9    -11.768800  1 C  py                 8     10.802008  1 C  px         
    44     -8.274462  2 C  py                43     -6.829745  2 C  px         
    72      6.837800  3 H  s                 87     -6.837800  4 H  s          
    22     -5.150236  1 C  dxz               24      4.935366  1 C  dyz        
   102     -4.575802  5 H  s                117      4.575802  6 H  s          

 Vector  123  Occ=0.000000D+00  E= 6.693580D+00  Symmetry=e
              MO Center=  1.2D-16, -1.5D-15, -4.1D-01, r^2= 2.0D+00
   Bfn.  Coefficient  Atom+Function         Bfn.  Coefficient  Atom+Function  
  ----- ------------  ---------------      ----- ------------  ---------------
     8      5.444013  1 C  px                 9     -4.977935  1 C  py         
    31     -3.624748  1 C  fxzz              43     -3.597211  2 C  px         
    29     -3.199320  1 C  fxyy              34      3.184246  1 C  fyzz       
    27      2.845275  1 C  fxxy              44     -2.842971  2 C  py         
    26     -2.561416  1 C  fxxx              32      2.468901  1 C  fyyy       

 Vector  124  Occ=0.000000D+00  E= 6.693580D+00  Symmetry=e
              MO Center=  5.8D-15,  5.9D-15,  4.1D-01, r^2= 2.0D+00
   Bfn.  Coefficient  Atom+Function         Bfn.  Coefficient  Atom+Function  
  ----- ------------  ---------------      ----- ------------  ---------------
    44      5.444013  2 C  py                43      4.977935  2 C  px         
    69     -3.624748  2 C  fyzz               9     -3.597211  1 C  py         
    62     -3.199320  2 C  fxxy              66     -3.184246  2 C  fxzz       
     8      2.842971  1 C  px                64     -2.845275  2 C  fxyy       
    67     -2.561416  2 C  fyyy              34      2.460214  1 C  fyzz       

 Vector  125  Occ=0.000000D+00  E= 7.123413D+00  Symmetry=a1
              MO Center=  4.4D-15, -2.7D-16,  5.8D-15, r^2= 2.3D+00
   Bfn.  Coefficient  Atom+Function         Bfn.  Coefficient  Atom+Function  
  ----- ------------  ---------------      ----- ------------  ---------------
    10      7.453224  1 C  pz                45     -7.453224  2 C  pz         
    28     -4.786161  1 C  fxxz              33     -4.786161  1 C  fyyz       
    63      4.786161  2 C  fxxz              68      4.786161  2 C  fyyz       
    72      3.243929  3 H  s                 87      3.243929  4 H  s          
   102      3.243929  5 H  s                117      3.243929  6 H  s          

 Vector  126  Occ=0.000000D+00  E= 7.813796D+00  Symmetry=b2
              MO Center=  2.2D-15, -7.3D-15, -3.3D-14, r^2= 2.0D+00
   Bfn.  Coefficient  Atom+Function         Bfn.  Coefficient  Atom+Function  
  ----- ------------  ---------------      ----- ------------  ---------------
    10     18.504916  1 C  pz                45     18.504916  2 C  pz         
    35     -6.150581  1 C  fzzz              70     -6.150581  2 C  fzzz       
    28     -5.369406  1 C  fxxz              33     -5.369406  1 C  fyyz       
    63     -5.369406  2 C  fxxz              68     -5.369406  2 C  fyyz       
    25      5.019962  1 C  dzz               60     -5.019962  2 C  dzz        

 Vector  127  Occ=0.000000D+00  E= 8.045261D+00  Symmetry=a1
              MO Center= -1.9D-15, -2.2D-16,  1.8D-14, r^2= 1.3D+00
   Bfn.  Coefficient  Atom+Function         Bfn.  Coefficient  Atom+Function  
  ----- ------------  ---------------      ----- ------------  ---------------
     2      6.117691  1 C  s                 37      6.117691  2 C  s          
     4      2.689504  1 C  s                 39      2.689504  2 C  s          
    14     -2.596600  1 C  dxx               17     -2.596600  1 C  dyy        
    19     -2.597719  1 C  dzz               49     -2.596600  2 C  dxx        
    52     -2.596600  2 C  dyy               54     -2.597719  2 C  dzz        

 Vector  128  Occ=0.000000D+00  E= 8.299313D+00  Symmetry=b2
              MO Center=  2.2D-15,  1.8D-15,  3.9D-15, r^2= 1.3D+00
   Bfn.  Coefficient  Atom+Function         Bfn.  Coefficient  Atom+Function  
  ----- ------------  ---------------      ----- ------------  ---------------
     2      6.637238  1 C  s                 37     -6.637238  2 C  s          
     4      4.647922  1 C  s                 39     -4.647922  2 C  s          
    14     -2.731924  1 C  dxx               17     -2.731924  1 C  dyy        
    49      2.731924  2 C  dxx               52      2.731924  2 C  dyy        
    20     -2.674498  1 C  dxx               23     -2.674498  1 C  dyy        

 Vector  129  Occ=0.000000D+00  E= 1.778080D+01  Symmetry=b2
              MO Center= -1.6D-14,  9.0D-15,  1.2D-14, r^2= 2.3D+00
   Bfn.  Coefficient  Atom+Function         Bfn.  Coefficient  Atom+Function  
  ----- ------------  ---------------      ----- ------------  ---------------
     2     15.493681  1 C  s                 37    -15.493681  2 C  s          
     1      7.729551  1 C  s                 36     -7.729551  2 C  s          
    72     -6.137551  3 H  s                 87     -6.137551  4 H  s          
   102      6.137551  5 H  s                117      6.137551  6 H  s          
     4      6.037260  1 C  s                 39     -6.037260  2 C  s          

 Vector  130  Occ=0.000000D+00  E= 1.818397D+01  Symmetry=a1
              MO Center= -3.7D-14, -1.1D-14,  3.0D-14, r^2= 2.6D+00
   Bfn.  Coefficient  Atom+Function         Bfn.  Coefficient  Atom+Function  
  ----- ------------  ---------------      ----- ------------  ---------------
     2     15.822010  1 C  s                 37     15.822010  2 C  s          
    10    -10.798490  1 C  pz                45     10.798490  2 C  pz         
    72     -7.953953  3 H  s                 87     -7.953953  4 H  s          
   102     -7.953953  5 H  s                117     -7.953953  6 H  s          
     1      7.831115  1 C  s                 36      7.831115  2 C  s          


------------------------------------------------------------
EAF file 0: "./c2h4_dat.aoints.0" size=3145728 bytes
------------------------------------------------------------
               write      read    awrite     aread      wait
               -----      ----    ------     -----      ----
     calls:        7         1         0         0         0
   data(b): 3.67e+06  5.24e+05  0.00e+00  0.00e+00
   time(s): 0.00e+00  0.00e+00  0.00e+00  0.00e+00  0.00e+00
rate(mb/s): 0.00e+00  0.00e+00
------------------------------------------------------------


 Parallel integral file used     200 records with       0 large values


 Task  times  cpu:        0.4s     wall:        0.5s


                                NWChem Input Module
                                -------------------


 Summary of allocated global arrays
-----------------------------------
  No active global arrays



                         GA Statistics for process    0
                         ------------------------------

       create   destroy   get      put      acc     scatter   gather  read&inc
calls: 1054     1054     2.37e+04 1.15e+04 1.19e+04    4        0      790     
number of processes/call 1.51e+00 1.29e+00 1.10e+00 0.00e+00 0.00e+00
bytes total:             1.27e+08 4.18e+07 6.17e+07 0.00e+00 0.00e+00 6.32e+03
bytes remote:            6.78e+07 1.00e+07 3.01e+07 -5.63e+03 0.00e+00 0.00e+00
Max memory consumed for GA by this process: 1090632 bytes

MA_summarize_allocated_blocks: starting scan ...
MA_summarize_allocated_blocks: scan completed: 0 heap blocks, 0 stack blocks
MA usage statistics:

	allocation statistics:
					      heap	     stack
					      ----	     -----
	current number of blocks	         0	         0
	maximum number of blocks	        18	        15
	current total bytes		         0	         0
	maximum total bytes		  24781384	  22513368
	maximum total K-bytes		     24782	     22514
	maximum total M-bytes		        25	        23


                                     CITATION
                                     --------
                Please cite the following reference when publishing
                           results obtained with NWChem:

                 M. Valiev, E.J. Bylaska, N. Govind, K. Kowalski,
              T.P. Straatsma, H.J.J. van Dam, D. Wang, J. Nieplocha,
                        E. Apra, T.L. Windus, W.A. de Jong
                 "NWChem: a comprehensive and scalable open-source
                  solution for large scale molecular simulations"
                      Comput. Phys. Commun. 181, 1477 (2010)
                           doi:10.1016/j.cpc.2010.04.018

                                      AUTHORS
                                      -------
          E. Apra, E. J. Bylaska, W. A. de Jong, N. Govind, K. Kowalski,
       T. P. Straatsma, M. Valiev, H. J. J. van Dam, D. Wang, T. L. Windus,
        J. Hammond, J. Autschbach, K. Bhaskaran-Nair, J. Brabec, K. Lopata,
    S. A. Fischer, S. Krishnamoorthy, M. Jacquelin, W. Ma, M. Klemm, O. Villa,
      Y. Chen, V. Anisimov, F. Aquino, S. Hirata, M. T. Hackler, V. Konjkov,
            D. Mejia-Rodriguez, T. Risthaus, M. Malagoli, A. Marenich,
   A. Otero-de-la-Roza, J. Mullin, P. Nichols, R. Peverati, J. Pittner, Y. Zhao,
        P.-D. Fan, A. Fonari, M. J. Williamson, R. J. Harrison, J. R. Rehr,
      M. Dupuis, D. Silverstein, D. M. A. Smith, J. Nieplocha, V. Tipparaju,
    M. Krishnan, B. E. Van Kuiken, A. Vazquez-Mayagoitia, L. Jensen, M. Swart,
      Q. Wu, T. Van Voorhis, A. A. Auer, M. Nooijen, L. D. Crosby, E. Brown,
      G. Cisneros, G. I. Fann, H. Fruchtl, J. Garza, K. Hirao, R. A. Kendall,
      J. A. Nichols, K. Tsemekhman, K. Wolinski, J. Anchell, D. E. Bernholdt,
      P. Borowski, T. Clark, D. Clerc, H. Dachsel, M. J. O. Deegan, K. Dyall,
    D. Elwood, E. Glendening, M. Gutowski, A. C. Hess, J. Jaffe, B. G. Johnson,
     J. Ju, R. Kobayashi, R. Kutteh, Z. Lin, R. Littlefield, X. Long, B. Meng,
      T. Nakajima, S. Niu, L. Pollack, M. Rosing, K. Glaesemann, G. Sandrone,
      M. Stave, H. Taylor, G. Thomas, J. H. van Lenthe, A. T. Wong, Z. Zhang.

 Total times  cpu:        2.9s     wall:        3.1s
[0] ARMCI Warning: Freed 1 leaked allocations
