 argument  1 = /home/list1234/source/nwchem-6.8.1-release/QA/tests/c60_ecp/c60_ecp.nw



============================== echo of input deck ==============================
# $Id$
echo

title "c60 with ECPs"

start c60

geometry
  symmetry Ih
  C -1.2287651 0.0 3.3143121   # bonds = 1.4445 and 1.3945 Angstrom
end

basis
  C library SBKJC_VDZ_ECP
end

ecp
  C library SBKJC_ECP
end

task scf
================================================================================


                                         
                                         


              Northwest Computational Chemistry Package (NWChem) 6.8
              ------------------------------------------------------


                    Environmental Molecular Sciences Laboratory
                       Pacific Northwest National Laboratory
                                Richland, WA 99352

                              Copyright (c) 1994-2018
                       Pacific Northwest National Laboratory
                            Battelle Memorial Institute

             NWChem is an open-source computational chemistry package
                        distributed under the terms of the
                      Educational Community License (ECL) 2.0
             A copy of the license is included with this distribution
                              in the LICENSE.TXT file

                                  ACKNOWLEDGMENT
                                  --------------

            This software and its documentation were developed at the
            EMSL at Pacific Northwest National Laboratory, a multiprogram
            national laboratory, operated for the U.S. Department of Energy
            by Battelle under Contract Number DE-AC05-76RL01830. Support
            for this work was provided by the Department of Energy Office
            of Biological and Environmental Research, Office of Basic
            Energy Sciences, and the Office of Advanced Scientific Computing.


           Job information
           ---------------

    hostname        = list1234-B360M-H
    program         = /home/list1234/source/nwchem-6.8.1-release/bin/LINUX64/nwchem
    date            = Sun Jun 30 13:26:32 2019

    compiled        = Sun_Jun_30_11:55:59_2019
    source          = /home/list1234/source/nwchem-6.8.1-release
    nwchem branch   = Development
    nwchem revision = N/A
    ga revision     = 5.6.5
    use scalapack   = T
    input           = /home/list1234/source/nwchem-6.8.1-release/QA/tests/c60_ecp/c60_ecp.nw
    prefix          = c60.
    data base       = ./c60.db
    status          = startup
    nproc           =        4
    time left       =     -1s



           Memory information
           ------------------

    heap     =   86247162 doubles =    658.0 Mbytes
    stack    =   86247167 doubles =    658.0 Mbytes
    global   =  172494336 doubles =   1316.0 Mbytes (distinct from heap & stack)
    total    =  344988665 doubles =   2632.1 Mbytes
    verify   = yes
    hardfail = no 


           Directory information
           ---------------------

  0 permanent = .
  0 scratch   = .




                                NWChem Input Module
                                -------------------


                                   c60 with ECPs
                                   -------------

 Scaling coordinates for geometry "geometry" by  1.889725989
 (inverse scale =  0.529177249)



                             Geometry "geometry" -> ""
                             -------------------------

 Output coordinates in angstroms (scale by  1.889725989 to convert to a.u.)

  No.       Tag          Charge          X              Y              Z
 ---- ---------------- ---------- -------------- -------------- --------------
    1 C                    6.0000    -1.22876510    -0.00000000     3.31431210
    2 C                    6.0000    -0.37970930    -1.16862506     3.31431210
    3 C                    6.0000     0.99409185    -0.72225000     3.31431210
    4 C                    6.0000     0.99409185     0.72225000     3.31431210
    5 C                    6.0000    -0.37970930     1.16862506     3.31431210
    6 C                    6.0000     1.57397808    -2.58806202     1.82182775
    7 C                    6.0000     2.33339667    -2.58806202     0.59306265
    8 C                    6.0000     3.18245248    -1.41943696     0.59306265
    9 C                    6.0000     2.94777922    -0.69718696     1.82182775
   10 C                    6.0000     1.95368738    -1.41943696     2.58124635
   11 C                    6.0000     2.79459970    -1.16862506    -1.82182775
   12 C                    6.0000     2.41489040    -0.00000000    -2.58124635
   13 C                    6.0000     2.79459970     1.16862506    -1.82182775
   14 C                    6.0000     3.40898225     0.72225000    -0.59306265
   15 C                    6.0000     3.40898225    -0.72225000    -0.59306265
   16 C                    6.0000     0.74624217     2.29669725    -2.58124635
   17 C                    6.0000    -2.33339667    -2.58806202    -0.59306265
   18 C                    6.0000    -3.18245248    -1.41943696    -0.59306265
   19 C                    6.0000    -2.94777922    -0.69718696    -1.82182775
   20 C                    6.0000    -1.95368738    -1.41943696    -2.58124635
   21 C                    6.0000    -1.57397808    -2.58806202    -1.82182775
   22 C                    6.0000    -3.18245248     1.41943696    -0.59306265
   23 C                    6.0000    -2.33339667     2.58806202    -0.59306265
   24 C                    6.0000    -1.57397808     2.58806202    -1.82182775
   25 C                    6.0000    -1.95368738     1.41943696    -2.58124635
   26 C                    6.0000    -2.94777922     0.69718696    -1.82182775
   27 C                    6.0000     0.36653288     3.46532231    -0.59306265
   28 C                    6.0000     1.74033402     3.01894726    -0.59306265
   29 C                    6.0000     1.97500727     2.29669725    -1.82182775
   30 C                    6.0000    -0.24784967     3.01894726    -1.82182775
   31 C                    6.0000    -0.74624217    -2.29669725     2.58124635
   32 C                    6.0000    -1.97500727    -2.29669725     1.82182775
   33 C                    6.0000    -1.74033402    -3.01894726     0.59306265
   34 C                    6.0000    -0.36653288    -3.46532231     0.59306265
   35 C                    6.0000     0.24784967    -3.01894726     1.82182775
   36 C                    6.0000    -0.99409185     0.72225000    -3.31431210
   37 C                    6.0000     0.37970930     1.16862506    -3.31431210
   38 C                    6.0000     1.22876510     0.00000000    -3.31431210
   39 C                    6.0000     0.37970930    -1.16862506    -3.31431210
   40 C                    6.0000    -0.99409185    -0.72225000    -3.31431210
   41 C                    6.0000    -1.97500727     2.29669725     1.82182775
   42 C                    6.0000    -0.74624217     2.29669725     2.58124635
   43 C                    6.0000     0.24784967     3.01894726     1.82182775
   44 C                    6.0000    -0.36653288     3.46532231     0.59306265
   45 C                    6.0000    -1.74033402     3.01894726     0.59306265
   46 C                    6.0000     1.95368738     1.41943696     2.58124635
   47 C                    6.0000     2.94777922     0.69718696     1.82182775
   48 C                    6.0000     3.18245248     1.41943696     0.59306265
   49 C                    6.0000     2.33339667     2.58806202     0.59306265
   50 C                    6.0000     1.57397808     2.58806202     1.82182775
   51 C                    6.0000    -2.79459970    -1.16862506     1.82182775
   52 C                    6.0000    -2.41489040     0.00000000     2.58124635
   53 C                    6.0000    -2.79459970     1.16862506     1.82182775
   54 C                    6.0000    -3.40898225     0.72225000     0.59306265
   55 C                    6.0000    -3.40898225    -0.72225000     0.59306265
   56 C                    6.0000     0.36653288    -3.46532231    -0.59306265
   57 C                    6.0000    -0.24784967    -3.01894726    -1.82182775
   58 C                    6.0000     0.74624217    -2.29669725    -2.58124635
   59 C                    6.0000     1.97500727    -2.29669725    -1.82182775
   60 C                    6.0000     1.74033402    -3.01894726    -0.59306265

      Atomic Mass 
      ----------- 

      C                 12.000000


 Effective nuclear repulsion energy (a.u.)    8362.6760611738

            Nuclear Dipole moment (a.u.) 
            ----------------------------
        X                 Y               Z
 ---------------- ---------------- ----------------
     0.0000000000     0.0000000000     0.0000000000

      Symmetry information
      --------------------

 Group name              Ih       
 Group number             46
 Group order             120
 No. of unique centers     1

      Symmetry unique atoms

     1


            XYZ format geometry
            -------------------
    60
 geometry
 C                    -1.22876510    -0.00000000     3.31431210
 C                    -0.37970930    -1.16862506     3.31431210
 C                     0.99409185    -0.72225000     3.31431210
 C                     0.99409185     0.72225000     3.31431210
 C                    -0.37970930     1.16862506     3.31431210
 C                     1.57397808    -2.58806202     1.82182775
 C                     2.33339667    -2.58806202     0.59306265
 C                     3.18245248    -1.41943696     0.59306265
 C                     2.94777922    -0.69718696     1.82182775
 C                     1.95368738    -1.41943696     2.58124635
 C                     2.79459970    -1.16862506    -1.82182775
 C                     2.41489040    -0.00000000    -2.58124635
 C                     2.79459970     1.16862506    -1.82182775
 C                     3.40898225     0.72225000    -0.59306265
 C                     3.40898225    -0.72225000    -0.59306265
 C                     0.74624217     2.29669725    -2.58124635
 C                    -2.33339667    -2.58806202    -0.59306265
 C                    -3.18245248    -1.41943696    -0.59306265
 C                    -2.94777922    -0.69718696    -1.82182775
 C                    -1.95368738    -1.41943696    -2.58124635
 C                    -1.57397808    -2.58806202    -1.82182775
 C                    -3.18245248     1.41943696    -0.59306265
 C                    -2.33339667     2.58806202    -0.59306265
 C                    -1.57397808     2.58806202    -1.82182775
 C                    -1.95368738     1.41943696    -2.58124635
 C                    -2.94777922     0.69718696    -1.82182775
 C                     0.36653288     3.46532231    -0.59306265
 C                     1.74033402     3.01894726    -0.59306265
 C                     1.97500727     2.29669725    -1.82182775
 C                    -0.24784967     3.01894726    -1.82182775
 C                    -0.74624217    -2.29669725     2.58124635
 C                    -1.97500727    -2.29669725     1.82182775
 C                    -1.74033402    -3.01894726     0.59306265
 C                    -0.36653288    -3.46532231     0.59306265
 C                     0.24784967    -3.01894726     1.82182775
 C                    -0.99409185     0.72225000    -3.31431210
 C                     0.37970930     1.16862506    -3.31431210
 C                     1.22876510     0.00000000    -3.31431210
 C                     0.37970930    -1.16862506    -3.31431210
 C                    -0.99409185    -0.72225000    -3.31431210
 C                    -1.97500727     2.29669725     1.82182775
 C                    -0.74624217     2.29669725     2.58124635
 C                     0.24784967     3.01894726     1.82182775
 C                    -0.36653288     3.46532231     0.59306265
 C                    -1.74033402     3.01894726     0.59306265
 C                     1.95368738     1.41943696     2.58124635
 C                     2.94777922     0.69718696     1.82182775
 C                     3.18245248     1.41943696     0.59306265
 C                     2.33339667     2.58806202     0.59306265
 C                     1.57397808     2.58806202     1.82182775
 C                    -2.79459970    -1.16862506     1.82182775
 C                    -2.41489040     0.00000000     2.58124635
 C                    -2.79459970     1.16862506     1.82182775
 C                    -3.40898225     0.72225000     0.59306265
 C                    -3.40898225    -0.72225000     0.59306265
 C                     0.36653288    -3.46532231    -0.59306265
 C                    -0.24784967    -3.01894726    -1.82182775
 C                     0.74624217    -2.29669725    -2.58124635
 C                     1.97500727    -2.29669725    -1.82182775
 C                     1.74033402    -3.01894726    -0.59306265

 ==============================================================================
                                internuclear distances
 ------------------------------------------------------------------------------
       center one      |      center two      | atomic units |  angstroms
 ------------------------------------------------------------------------------
    2 C                |   1 C                |     2.72971  |     1.44450
    3 C                |   2 C                |     2.72971  |     1.44450
    4 C                |   3 C                |     2.72971  |     1.44450
    5 C                |   1 C                |     2.72971  |     1.44450
    5 C                |   4 C                |     2.72971  |     1.44450
    7 C                |   6 C                |     2.72971  |     1.44450
    8 C                |   7 C                |     2.72971  |     1.44450
    9 C                |   8 C                |     2.72971  |     1.44450
   10 C                |   3 C                |     2.63498  |     1.39437
   10 C                |   6 C                |     2.72971  |     1.44450
   10 C                |   9 C                |     2.72971  |     1.44450
   12 C                |  11 C                |     2.72971  |     1.44450
   13 C                |  12 C                |     2.72971  |     1.44450
   14 C                |  13 C                |     2.72971  |     1.44450
   15 C                |   8 C                |     2.63498  |     1.39437
   15 C                |  11 C                |     2.72971  |     1.44450
   15 C                |  14 C                |     2.72971  |     1.44450
   18 C                |  17 C                |     2.72971  |     1.44450
   19 C                |  18 C                |     2.72971  |     1.44450
   20 C                |  19 C                |     2.72971  |     1.44450
   21 C                |  17 C                |     2.72971  |     1.44450
   21 C                |  20 C                |     2.72971  |     1.44450
   23 C                |  22 C                |     2.72971  |     1.44450
   24 C                |  23 C                |     2.72971  |     1.44450
   25 C                |  24 C                |     2.72971  |     1.44450
   26 C                |  19 C                |     2.63498  |     1.39437
   26 C                |  22 C                |     2.72971  |     1.44450
   26 C                |  25 C                |     2.72971  |     1.44450
   28 C                |  27 C                |     2.72971  |     1.44450
   29 C                |  13 C                |     2.63498  |     1.39437
   29 C                |  16 C                |     2.72971  |     1.44450
   29 C                |  28 C                |     2.72971  |     1.44450
   30 C                |  16 C                |     2.72971  |     1.44450
   30 C                |  24 C                |     2.63498  |     1.39437
   30 C                |  27 C                |     2.72971  |     1.44450
   31 C                |   2 C                |     2.63498  |     1.39437
   32 C                |  31 C                |     2.72971  |     1.44450
   33 C                |  17 C                |     2.63498  |     1.39437
   33 C                |  32 C                |     2.72971  |     1.44450
   34 C                |  33 C                |     2.72971  |     1.44450
   35 C                |   6 C                |     2.63498  |     1.39437
   35 C                |  31 C                |     2.72971  |     1.44450
   35 C                |  34 C                |     2.72971  |     1.44450
   36 C                |  25 C                |     2.63498  |     1.39437
   37 C                |  16 C                |     2.63498  |     1.39437
   37 C                |  36 C                |     2.72971  |     1.44450
   38 C                |  12 C                |     2.63498  |     1.39437
   38 C                |  37 C                |     2.72971  |     1.44450
   39 C                |  38 C                |     2.72971  |     1.44450
   40 C                |  20 C                |     2.63498  |     1.39437
   40 C                |  36 C                |     2.72971  |     1.44450
   40 C                |  39 C                |     2.72971  |     1.44450
   42 C                |   5 C                |     2.63498  |     1.39437
   42 C                |  41 C                |     2.72971  |     1.44450
   43 C                |  42 C                |     2.72971  |     1.44450
   44 C                |  27 C                |     2.63498  |     1.39437
   44 C                |  43 C                |     2.72971  |     1.44450
   45 C                |  23 C                |     2.63498  |     1.39437
   45 C                |  41 C                |     2.72971  |     1.44450
   45 C                |  44 C                |     2.72971  |     1.44450
   46 C                |   4 C                |     2.63498  |     1.39437
   47 C                |   9 C                |     2.63498  |     1.39437
   47 C                |  46 C                |     2.72971  |     1.44450
   48 C                |  14 C                |     2.63498  |     1.39437
   48 C                |  47 C                |     2.72971  |     1.44450
   49 C                |  28 C                |     2.63498  |     1.39437
   49 C                |  48 C                |     2.72971  |     1.44450
   50 C                |  43 C                |     2.63498  |     1.39437
   50 C                |  46 C                |     2.72971  |     1.44450
   50 C                |  49 C                |     2.72971  |     1.44450
   51 C                |  32 C                |     2.63498  |     1.39437
   52 C                |   1 C                |     2.63498  |     1.39437
   52 C                |  51 C                |     2.72971  |     1.44450
   53 C                |  41 C                |     2.63498  |     1.39437
   53 C                |  52 C                |     2.72971  |     1.44450
   54 C                |  22 C                |     2.63498  |     1.39437
   54 C                |  53 C                |     2.72971  |     1.44450
   55 C                |  18 C                |     2.63498  |     1.39437
   55 C                |  51 C                |     2.72971  |     1.44450
   55 C                |  54 C                |     2.72971  |     1.44450
   56 C                |  34 C                |     2.63498  |     1.39437
   57 C                |  21 C                |     2.63498  |     1.39437
   57 C                |  56 C                |     2.72971  |     1.44450
   58 C                |  39 C                |     2.63498  |     1.39437
   58 C                |  57 C                |     2.72971  |     1.44450
   59 C                |  11 C                |     2.63498  |     1.39437
   59 C                |  58 C                |     2.72971  |     1.44450
   60 C                |   7 C                |     2.63498  |     1.39437
   60 C                |  56 C                |     2.72971  |     1.44450
   60 C                |  59 C                |     2.72971  |     1.44450
 ------------------------------------------------------------------------------
                         number of included internuclear distances:         90
 ==============================================================================



 ==============================================================================
                                 internuclear angles
 ------------------------------------------------------------------------------
        center 1       |       center 2       |       center 3       |  degrees
 ------------------------------------------------------------------------------
    2 C                |   1 C                |   5 C                |   108.00
    2 C                |   1 C                |  52 C                |   120.00
    5 C                |   1 C                |  52 C                |   120.00
    1 C                |   2 C                |   3 C                |   108.00
    1 C                |   2 C                |  31 C                |   120.00
    3 C                |   2 C                |  31 C                |   120.00
    2 C                |   3 C                |   4 C                |   108.00
    2 C                |   3 C                |  10 C                |   120.00
    4 C                |   3 C                |  10 C                |   120.00
    3 C                |   4 C                |   5 C                |   108.00
    3 C                |   4 C                |  46 C                |   120.00
    5 C                |   4 C                |  46 C                |   120.00
    1 C                |   5 C                |   4 C                |   108.00
    1 C                |   5 C                |  42 C                |   120.00
    4 C                |   5 C                |  42 C                |   120.00
    7 C                |   6 C                |  10 C                |   108.00
    7 C                |   6 C                |  35 C                |   120.00
   10 C                |   6 C                |  35 C                |   120.00
    6 C                |   7 C                |   8 C                |   108.00
    6 C                |   7 C                |  60 C                |   120.00
    8 C                |   7 C                |  60 C                |   120.00
    7 C                |   8 C                |   9 C                |   108.00
    7 C                |   8 C                |  15 C                |   120.00
    9 C                |   8 C                |  15 C                |   120.00
    8 C                |   9 C                |  10 C                |   108.00
    8 C                |   9 C                |  47 C                |   120.00
   10 C                |   9 C                |  47 C                |   120.00
    3 C                |  10 C                |   6 C                |   120.00
    3 C                |  10 C                |   9 C                |   120.00
    6 C                |  10 C                |   9 C                |   108.00
   12 C                |  11 C                |  15 C                |   108.00
   12 C                |  11 C                |  59 C                |   120.00
   15 C                |  11 C                |  59 C                |   120.00
   11 C                |  12 C                |  13 C                |   108.00
   11 C                |  12 C                |  38 C                |   120.00
   13 C                |  12 C                |  38 C                |   120.00
   12 C                |  13 C                |  14 C                |   108.00
   12 C                |  13 C                |  29 C                |   120.00
   14 C                |  13 C                |  29 C                |   120.00
   13 C                |  14 C                |  15 C                |   108.00
   13 C                |  14 C                |  48 C                |   120.00
   15 C                |  14 C                |  48 C                |   120.00
    8 C                |  15 C                |  11 C                |   120.00
    8 C                |  15 C                |  14 C                |   120.00
   11 C                |  15 C                |  14 C                |   108.00
   29 C                |  16 C                |  30 C                |   108.00
   29 C                |  16 C                |  37 C                |   120.00
   30 C                |  16 C                |  37 C                |   120.00
   18 C                |  17 C                |  21 C                |   108.00
   18 C                |  17 C                |  33 C                |   120.00
   21 C                |  17 C                |  33 C                |   120.00
   17 C                |  18 C                |  19 C                |   108.00
   17 C                |  18 C                |  55 C                |   120.00
   19 C                |  18 C                |  55 C                |   120.00
   18 C                |  19 C                |  20 C                |   108.00
   18 C                |  19 C                |  26 C                |   120.00
   20 C                |  19 C                |  26 C                |   120.00
   19 C                |  20 C                |  21 C                |   108.00
   19 C                |  20 C                |  40 C                |   120.00
   21 C                |  20 C                |  40 C                |   120.00
   17 C                |  21 C                |  20 C                |   108.00
   17 C                |  21 C                |  57 C                |   120.00
   20 C                |  21 C                |  57 C                |   120.00
   23 C                |  22 C                |  26 C                |   108.00
   23 C                |  22 C                |  54 C                |   120.00
   26 C                |  22 C                |  54 C                |   120.00
   22 C                |  23 C                |  24 C                |   108.00
   22 C                |  23 C                |  45 C                |   120.00
   24 C                |  23 C                |  45 C                |   120.00
   23 C                |  24 C                |  25 C                |   108.00
   23 C                |  24 C                |  30 C                |   120.00
   25 C                |  24 C                |  30 C                |   120.00
   24 C                |  25 C                |  26 C                |   108.00
   24 C                |  25 C                |  36 C                |   120.00
   26 C                |  25 C                |  36 C                |   120.00
   19 C                |  26 C                |  22 C                |   120.00
   19 C                |  26 C                |  25 C                |   120.00
   22 C                |  26 C                |  25 C                |   108.00
   28 C                |  27 C                |  30 C                |   108.00
   28 C                |  27 C                |  44 C                |   120.00
   30 C                |  27 C                |  44 C                |   120.00
   27 C                |  28 C                |  29 C                |   108.00
   27 C                |  28 C                |  49 C                |   120.00
   29 C                |  28 C                |  49 C                |   120.00
   13 C                |  29 C                |  16 C                |   120.00
   13 C                |  29 C                |  28 C                |   120.00
   16 C                |  29 C                |  28 C                |   108.00
   16 C                |  30 C                |  24 C                |   120.00
   16 C                |  30 C                |  27 C                |   108.00
   24 C                |  30 C                |  27 C                |   120.00
    2 C                |  31 C                |  32 C                |   120.00
    2 C                |  31 C                |  35 C                |   120.00
   32 C                |  31 C                |  35 C                |   108.00
   31 C                |  32 C                |  33 C                |   108.00
   31 C                |  32 C                |  51 C                |   120.00
   33 C                |  32 C                |  51 C                |   120.00
   17 C                |  33 C                |  32 C                |   120.00
   17 C                |  33 C                |  34 C                |   120.00
   32 C                |  33 C                |  34 C                |   108.00
   33 C                |  34 C                |  35 C                |   108.00
   33 C                |  34 C                |  56 C                |   120.00
   35 C                |  34 C                |  56 C                |   120.00
    6 C                |  35 C                |  31 C                |   120.00
    6 C                |  35 C                |  34 C                |   120.00
   31 C                |  35 C                |  34 C                |   108.00
   25 C                |  36 C                |  37 C                |   120.00
   25 C                |  36 C                |  40 C                |   120.00
   37 C                |  36 C                |  40 C                |   108.00
   16 C                |  37 C                |  36 C                |   120.00
   16 C                |  37 C                |  38 C                |   120.00
   36 C                |  37 C                |  38 C                |   108.00
   12 C                |  38 C                |  37 C                |   120.00
   12 C                |  38 C                |  39 C                |   120.00
   37 C                |  38 C                |  39 C                |   108.00
   38 C                |  39 C                |  40 C                |   108.00
   38 C                |  39 C                |  58 C                |   120.00
   40 C                |  39 C                |  58 C                |   120.00
   20 C                |  40 C                |  36 C                |   120.00
   20 C                |  40 C                |  39 C                |   120.00
   36 C                |  40 C                |  39 C                |   108.00
   42 C                |  41 C                |  45 C                |   108.00
   42 C                |  41 C                |  53 C                |   120.00
   45 C                |  41 C                |  53 C                |   120.00
    5 C                |  42 C                |  41 C                |   120.00
    5 C                |  42 C                |  43 C                |   120.00
   41 C                |  42 C                |  43 C                |   108.00
   42 C                |  43 C                |  44 C                |   108.00
   42 C                |  43 C                |  50 C                |   120.00
   44 C                |  43 C                |  50 C                |   120.00
   27 C                |  44 C                |  43 C                |   120.00
   27 C                |  44 C                |  45 C                |   120.00
   43 C                |  44 C                |  45 C                |   108.00
   23 C                |  45 C                |  41 C                |   120.00
   23 C                |  45 C                |  44 C                |   120.00
   41 C                |  45 C                |  44 C                |   108.00
    4 C                |  46 C                |  47 C                |   120.00
    4 C                |  46 C                |  50 C                |   120.00
   47 C                |  46 C                |  50 C                |   108.00
    9 C                |  47 C                |  46 C                |   120.00
    9 C                |  47 C                |  48 C                |   120.00
   46 C                |  47 C                |  48 C                |   108.00
   14 C                |  48 C                |  47 C                |   120.00
   14 C                |  48 C                |  49 C                |   120.00
   47 C                |  48 C                |  49 C                |   108.00
   28 C                |  49 C                |  48 C                |   120.00
   28 C                |  49 C                |  50 C                |   120.00
   48 C                |  49 C                |  50 C                |   108.00
   43 C                |  50 C                |  46 C                |   120.00
   43 C                |  50 C                |  49 C                |   120.00
   46 C                |  50 C                |  49 C                |   108.00
   32 C                |  51 C                |  52 C                |   120.00
   32 C                |  51 C                |  55 C                |   120.00
   52 C                |  51 C                |  55 C                |   108.00
    1 C                |  52 C                |  51 C                |   120.00
    1 C                |  52 C                |  53 C                |   120.00
   51 C                |  52 C                |  53 C                |   108.00
   41 C                |  53 C                |  52 C                |   120.00
   41 C                |  53 C                |  54 C                |   120.00
   52 C                |  53 C                |  54 C                |   108.00
   22 C                |  54 C                |  53 C                |   120.00
   22 C                |  54 C                |  55 C                |   120.00
   53 C                |  54 C                |  55 C                |   108.00
   18 C                |  55 C                |  51 C                |   120.00
   18 C                |  55 C                |  54 C                |   120.00
   51 C                |  55 C                |  54 C                |   108.00
   34 C                |  56 C                |  57 C                |   120.00
   34 C                |  56 C                |  60 C                |   120.00
   57 C                |  56 C                |  60 C                |   108.00
   21 C                |  57 C                |  56 C                |   120.00
   21 C                |  57 C                |  58 C                |   120.00
   56 C                |  57 C                |  58 C                |   108.00
   39 C                |  58 C                |  57 C                |   120.00
   39 C                |  58 C                |  59 C                |   120.00
   57 C                |  58 C                |  59 C                |   108.00
   11 C                |  59 C                |  58 C                |   120.00
   11 C                |  59 C                |  60 C                |   120.00
   58 C                |  59 C                |  60 C                |   108.00
    7 C                |  60 C                |  56 C                |   120.00
    7 C                |  60 C                |  59 C                |   120.00
   56 C                |  60 C                |  59 C                |   108.00
 ------------------------------------------------------------------------------
                            number of included internuclear angles:        180
 ==============================================================================



                      Basis "ao basis" -> "" (cartesian)
                      -----
  C (Carbon)
  ----------
            Exponent  Coefficients 
       -------------- ---------------------------------------------------------
  1 S  4.28600000E+00 -0.147220
  1 S  1.04600000E+00  0.081250
  1 S  3.44700000E-01  0.713600

  2 P  4.28600000E+00  0.102570
  2 P  1.04600000E+00  0.329870
  2 P  3.44700000E-01  0.482120

  3 S  1.12800000E-01  0.315210

  4 P  1.12800000E-01  0.315930



 Summary of "ao basis" -> "" (cartesian)
 ------------------------------------------------------------------------------
       Tag                 Description            Shells   Functions and Types
 ---------------- ------------------------------  ------  ---------------------
 C                       SBKJC VDZ ECP               4        8   2s2p


                 ECP       "ecp basis" -> "" (cartesian)
                -----
  C (Carbon) Replaces     2 electrons
  -----------------------------------
             Channel    R-exponent     Exponent     Coefficients
         ------------ ---------------------------------------------------------
  1 U L       Both         1.00        8.564680      -0.893710

  2 U-s       Both         0.00        2.814970       1.929260
  2 U-s       Both         2.00        8.112960      14.881990

                                 NWChem SCF Module
                                 -----------------


                                   c60 with ECPs



  ao basis        = "ao basis"
  functions       =   480
  atoms           =    60
  closed shells   =   120
  open shells     =     0
  charge          =   0.00
  wavefunction    = RHF 
  input vectors   = atomic
  output vectors  = ./c60.movecs
  use symmetry    = T
  symmetry adapt  = T


 Summary of "ao basis" -> "ao basis" (cartesian)
 ------------------------------------------------------------------------------
       Tag                 Description            Shells   Functions and Types
 ---------------- ------------------------------  ------  ---------------------
 C                       SBKJC VDZ ECP               4        8   2s2p


      Symmetry analysis of basis
      --------------------------

        ag          6
        t1g        30
        t2g        30
        gg         64
        hg        110
        au          2
        t1u        42
        t2u        42
        gu         64
        hu         90


 Forming initial guess at       1.6s


      Superposition of Atomic Density Guess
      -------------------------------------

 Sum of atomic energies:        -351.29503998

      Non-variational initial energy
      ------------------------------

 Total energy =    -348.418130
 1-e energy   =   -7891.509271
 2-e energy   =    3826.346225
 HOMO         =      -0.205530
 LUMO         =      -0.107496


      Symmetry analysis of molecular orbitals - initial
      -------------------------------------------------

  Numbering of irreducible representations: 

     1 ag          2 t1g         3 t2g         4 gg          5 hg      
     6 au          7 t1u         8 t2u         9 gu         10 hu      

  Orbital symmetries:

     1 ag          2 t1u         3 t1u         4 t1u         5 hg      
     6 hg          7 hg          8 hg          9 hg         10 t2u     
    11 t2u        12 t2u        13 gu         14 gu         15 gu      
    16 gu         17 hg         18 hg         19 hg         20 hg      
    21 hg         22 gg         23 gg         24 gg         25 gg      
    26 hu         27 hu         28 hu         29 hu         30 hu      
    31 t1u        32 t1u        33 t1u        34 t2u        35 t2u     
    36 t2u        37 t1g        38 t1g        39 t1g        40 hg      
    41 hg         42 hg         43 hg         44 hg         45 ag      
    46 gg         47 gg         48 gg         49 gg         50 hu      
    51 hu         52 hu         53 hu         54 hu         55 ag      
    56 t1u        57 t1u        58 t1u        59 t1u        60 t1u     
    61 t1u        62 t2u        63 t2u        64 t2u        65 gu      
    66 gu         67 gu         68 gu         69 hg         70 hg      
    71 hg         72 hg         73 hg         74 hg         75 hg      
    76 hg         77 hg         78 hg         79 gg         80 gg      
    81 gg         82 gg         83 t2g        84 t2g        85 t2g     
    86 t2u        87 t2u        88 t2u        89 gu         90 gu      
    91 gu         92 gu         93 gu         94 gu         95 gu      
    96 gu         97 hg         98 hg         99 hg        100 hg      
   101 hg        102 hu        103 hu        104 hu        105 hu      
   106 hu        107 hg        108 hg        109 hg        110 hg      
   111 hg        112 gg        113 gg        114 gg        115 gg      
   116 hu        117 hu        118 hu        119 hu        120 hu      
   121 t1u       122 t1u       123 t1u       124 t1g       125 t1g     
   126 t1g       127 t2u       128 t2u       129 t2u       130 hg      


 Starting SCF solution at       5.6s



 ----------------------------------------------
         Quadratically convergent ROHF

 Convergence threshold     :          1.000E-04
 Maximum no. of iterations :           30
 Final Fock-matrix accuracy:          1.000E-07
 ----------------------------------------------


 Integral file          = ./c60.aoints.0
 Record size in doubles =  65536        No. of integs per rec  =  32766
 Max. records in memory =    555        Max. records in file   = 161668
 No. of bits per label  =     16        No. of bits per value  =     64


 #quartets = 2.878D+06 #integrals = 4.199D+07 #direct =  0.0% #cached =100.0%


File balance: exchanges=     4  moved=    40  time=   0.0


              iter       energy          gnorm     gmax       time
             ----- ------------------- --------- --------- --------
                 1     -327.2681075948  2.30D+00  2.79D-01     10.9
                 2     -327.8207020265  6.54D-01  6.23D-02     12.3
                 3     -327.8684915749  2.45D-02  3.60D-03     15.0
                 4     -327.8686449942  3.86D-04  4.97D-05     18.2
                 5     -327.8686450206  7.80D-06  1.31D-06     21.3


       Final RHF  results 
       ------------------ 

         Total SCF energy =   -327.868645020642
      One-electron energy =  -7905.184449198438
      Two-electron energy =   3860.570888100596
 Nuclear repulsion energy =   3716.744916077200

        Time for solution =     16.0s



       Symmetry analysis of molecular orbitals - final
       -----------------------------------------------

  Numbering of irreducible representations: 

     1 ag          2 t1g         3 t2g         4 gg          5 hg      
     6 au          7 t1u         8 t2u         9 gu         10 hu      

  Orbital symmetries:

     1 ag          2 t1u         3 t1u         4 t1u         5 hg      
     6 hg          7 hg          8 hg          9 hg         10 t2u     
    11 t2u        12 t2u        13 gu         14 gu         15 gu      
    16 gu         17 hg         18 hg         19 hg         20 hg      
    21 hg         22 gg         23 gg         24 gg         25 gg      
    26 hu         27 hu         28 hu         29 hu         30 hu      
    31 t1u        32 t1u        33 t1u        34 t2u        35 t2u     
    36 t2u        37 t1g        38 t1g        39 t1g        40 hg      
    41 hg         42 hg         43 hg         44 hg         45 ag      
    46 gg         47 gg         48 gg         49 gg         50 hu      
    51 hu         52 hu         53 hu         54 hu         55 t1u     
    56 t1u        57 t1u        58 t2u        59 t2u        60 t2u     
    61 ag         62 gu         63 gu         64 gu         65 gu      
    66 t1u        67 t1u        68 t1u        69 hg         70 hg      
    71 hg         72 hg         73 hg         74 gg         75 gg      
    76 gg         77 gg         78 t2g        79 t2g        80 t2g     
    81 gu         82 gu         83 gu         84 gu         85 hg      
    86 hg         87 hg         88 hg         89 hg         90 hg      
    91 hg         92 hg         93 hg         94 hg         95 hu      
    96 hu         97 hu         98 hu         99 hu        100 t2u     
   101 t2u       102 t2u       103 gu        104 gu        105 gu      
   106 gu        107 gg        108 gg        109 gg        110 gg      
   111 hg        112 hg        113 hg        114 hg        115 hg      
   116 hu        117 hu        118 hu        119 hu        120 hu      
   121 t1u       122 t1u       123 t1u       124 t1g       125 t1g     
   126 t1g       127 t2u       128 t2u       129 t2u       130 hg      

             Final eigenvalues
             -----------------

              1      
    1   -1.3460
    2   -1.3209
    3   -1.3209
    4   -1.3209
    5   -1.2723
    6   -1.2723
    7   -1.2723
    8   -1.2723
    9   -1.2723
   10   -1.2211
   11   -1.2211
   12   -1.2211
   13   -1.1788
   14   -1.1788
   15   -1.1788
   16   -1.1788
   17   -1.1129
   18   -1.1129
   19   -1.1129
   20   -1.1129
   21   -1.1129
   22   -1.0924
   23   -1.0924
   24   -1.0924
   25   -1.0924
   26   -1.0225
   27   -1.0225
   28   -1.0225
   29   -1.0225
   30   -1.0225
   31   -0.9936
   32   -0.9936
   33   -0.9936
   34   -0.9295
   35   -0.9295
   36   -0.9295
   37   -0.8939
   38   -0.8939
   39   -0.8939
   40   -0.8874
   41   -0.8874
   42   -0.8874
   43   -0.8874
   44   -0.8874
   45   -0.8367
   46   -0.7911
   47   -0.7911
   48   -0.7911
   49   -0.7911
   50   -0.7679
   51   -0.7679
   52   -0.7679
   53   -0.7679
   54   -0.7679
   55   -0.7383
   56   -0.7383
   57   -0.7383
   58   -0.6991
   59   -0.6991
   60   -0.6991
   61   -0.6799
   62   -0.6715
   63   -0.6715
   64   -0.6715
   65   -0.6715
   66   -0.6479
   67   -0.6479
   68   -0.6479
   69   -0.6475
   70   -0.6475
   71   -0.6475
   72   -0.6475
   73   -0.6475
   74   -0.6291
   75   -0.6291
   76   -0.6291
   77   -0.6291
   78   -0.6168
   79   -0.6168
   80   -0.6168
   81   -0.5922
   82   -0.5922
   83   -0.5922
   84   -0.5922
   85   -0.5856
   86   -0.5856
   87   -0.5856
   88   -0.5856
   89   -0.5856
   90   -0.5330
   91   -0.5330
   92   -0.5330
   93   -0.5330
   94   -0.5330
   95   -0.5192
   96   -0.5192
   97   -0.5192
   98   -0.5192
   99   -0.5192
  100   -0.5039
  101   -0.5039
  102   -0.5039
  103   -0.4843
  104   -0.4843
  105   -0.4843
  106   -0.4843
  107   -0.3850
  108   -0.3850
  109   -0.3850
  110   -0.3850
  111   -0.3755
  112   -0.3755
  113   -0.3755
  114   -0.3755
  115   -0.3755
  116   -0.3094
  117   -0.3094
  118   -0.3094
  119   -0.3094
  120   -0.3094
  121   -0.0474
  122   -0.0474
  123   -0.0474
  124    0.0146
  125    0.0146
  126    0.0146
  127    0.0780
  128    0.0780
  129    0.0780
  130    0.0796

                       ROHF Final Molecular Orbital Analysis
                       -------------------------------------

 Vector    1  Occ=2.000000D+00  E=-1.345958D+00  Symmetry=ag
              MO Center= -8.3D-17, -1.2D-16, -5.5D-16, r^2= 1.2D+01
   Bfn.  Coefficient  Atom+Function         Bfn.  Coefficient  Atom+Function  
  ----- ------------  ---------------      ----- ------------  ---------------
     1      0.083921   1 C  s                 9      0.083921   2 C  s         
    17      0.083921   3 C  s                25      0.083921   4 C  s         
    33      0.083921   5 C  s                41      0.083921   6 C  s         
    49      0.083921   7 C  s                57      0.083921   8 C  s         
    65      0.083921   9 C  s                73      0.083921  10 C  s         

 Vector    2  Occ=2.000000D+00  E=-1.320874D+00  Symmetry=t1u
              MO Center=  8.3D-17,  9.0D-17,  4.4D-16, r^2= 1.2D+01
   Bfn.  Coefficient  Atom+Function         Bfn.  Coefficient  Atom+Function  
  ----- ------------  ---------------      ----- ------------  ---------------
    33      0.144573   5 C  s               305     -0.144573  39 C  s         
     1      0.143461   1 C  s               297     -0.143461  38 C  s         
    25      0.132745   4 C  s               313     -0.132745  40 C  s         
     9      0.130947   2 C  s               289     -0.130947  37 C  s         

 Vector    3  Occ=2.000000D+00  E=-1.320874D+00  Symmetry=t1u
              MO Center=  2.4D-15,  8.5D-16, -2.5D-15, r^2= 1.2D+01
   Bfn.  Coefficient  Atom+Function         Bfn.  Coefficient  Atom+Function  
  ----- ------------  ---------------      ----- ------------  ---------------
   137     -0.137804  18 C  s               377      0.137804  48 C  s         
   105      0.136101  14 C  s               433     -0.136101  55 C  s         
   145     -0.134594  19 C  s               369      0.134594  47 C  s         
   113      0.131533  15 C  s               425     -0.131533  54 C  s         
    65      0.128867   9 C  s               201     -0.128867  26 C  s         

 Vector    4  Occ=2.000000D+00  E=-1.320874D+00  Symmetry=t1u
              MO Center= -1.5D-16,  5.8D-16,  8.3D-17, r^2= 1.2D+01
   Bfn.  Coefficient  Atom+Function         Bfn.  Coefficient  Atom+Function  
  ----- ------------  ---------------      ----- ------------  ---------------
   209      0.144225  27 C  s               265     -0.144225  34 C  s         
   233      0.136764  30 C  s               273     -0.136764  35 C  s         
   345      0.136528  44 C  s               441     -0.136528  56 C  s         

 Vector    5  Occ=2.000000D+00  E=-1.272275D+00  Symmetry=hg
              MO Center=  3.5D-16, -3.3D-16,  6.9D-16, r^2= 1.2D+01
   Bfn.  Coefficient  Atom+Function         Bfn.  Coefficient  Atom+Function  
  ----- ------------  ---------------      ----- ------------  ---------------
     1      0.175369   1 C  s               297      0.175369  38 C  s         

 Vector    6  Occ=2.000000D+00  E=-1.272275D+00  Symmetry=hg
              MO Center=  2.8D-16,  6.9D-16,  2.9D-16, r^2= 1.2D+01
   Bfn.  Coefficient  Atom+Function         Bfn.  Coefficient  Atom+Function  
  ----- ------------  ---------------      ----- ------------  ---------------
   321      0.174329  41 C  s               465      0.174329  59 C  s         

 Vector    7  Occ=2.000000D+00  E=-1.272275D+00  Symmetry=hg
              MO Center= -1.4D-15, -4.2D-16,  1.1D-15, r^2= 1.2D+01
   Bfn.  Coefficient  Atom+Function         Bfn.  Coefficient  Atom+Function  
  ----- ------------  ---------------      ----- ------------  ---------------
   105      0.167515  14 C  s               433      0.167515  55 C  s         
    97      0.157546  13 C  s               401      0.157546  51 C  s         
    25     -0.152657   4 C  s               313     -0.152657  40 C  s         

 Vector    8  Occ=2.000000D+00  E=-1.272275D+00  Symmetry=hg
              MO Center= -1.6D-15, -3.5D-15, -6.8D-15, r^2= 1.2D+01
   Bfn.  Coefficient  Atom+Function         Bfn.  Coefficient  Atom+Function  
  ----- ------------  ---------------      ----- ------------  ---------------
   161      0.178277  21 C  s               393      0.178277  50 C  s         
   129      0.159562  17 C  s               385      0.159562  49 C  s         

 Vector    9  Occ=2.000000D+00  E=-1.272275D+00  Symmetry=hg
              MO Center=  7.2D-16, -1.2D-15, -3.3D-15, r^2= 1.2D+01
   Bfn.  Coefficient  Atom+Function         Bfn.  Coefficient  Atom+Function  
  ----- ------------  ---------------      ----- ------------  ---------------
   345      0.168505  44 C  s               441      0.168505  56 C  s         
   209      0.167095  27 C  s               265      0.167095  34 C  s         

 Vector   10  Occ=2.000000D+00  E=-1.221089D+00  Symmetry=t2u
              MO Center=  2.8D-16, -5.6D-16, -5.0D-16, r^2= 1.2D+01
   Bfn.  Coefficient  Atom+Function         Bfn.  Coefficient  Atom+Function  
  ----- ------------  ---------------      ----- ------------  ---------------
    97      0.139392  13 C  s               401     -0.139392  51 C  s         
    81      0.138022  11 C  s               417     -0.138022  53 C  s         
    33      0.137303   5 C  s               305     -0.137303  39 C  s         
     9      0.135933   2 C  s               289     -0.135933  37 C  s         

 Vector   11  Occ=2.000000D+00  E=-1.221089D+00  Symmetry=t2u
              MO Center=  7.5D-15,  3.2D-15,  4.4D-15, r^2= 1.2D+01
   Bfn.  Coefficient  Atom+Function         Bfn.  Coefficient  Atom+Function  
  ----- ------------  ---------------      ----- ------------  ---------------
    73      0.139991  10 C  s               193     -0.139991  25 C  s         
    57      0.138131   8 C  s               169     -0.138131  22 C  s         
   137      0.137019  18 C  s               377     -0.137019  48 C  s         
   153      0.135160  20 C  s               361     -0.135160  46 C  s         

 Vector   12  Occ=2.000000D+00  E=-1.221089D+00  Symmetry=t2u
              MO Center= -2.2D-15,  1.9D-15,  2.9D-15, r^2= 1.2D+01
   Bfn.  Coefficient  Atom+Function         Bfn.  Coefficient  Atom+Function  
  ----- ------------  ---------------      ----- ------------  ---------------
   337     -0.140147  43 C  s               449      0.140147  57 C  s         
   353     -0.139156  45 C  s               473      0.139156  60 C  s         
   233      0.136057  30 C  s               273     -0.136057  35 C  s         
   217      0.135067  28 C  s               257     -0.135067  33 C  s         

 Vector   13  Occ=2.000000D+00  E=-1.178805D+00  Symmetry=gu
              MO Center= -1.1D-15, -2.0D-15,  4.1D-15, r^2= 1.2D+01
   Bfn.  Coefficient  Atom+Function         Bfn.  Coefficient  Atom+Function  
  ----- ------------  ---------------      ----- ------------  ---------------
    33      0.169335   5 C  s               305     -0.169335  39 C  s         
   329      0.160724  42 C  s               457     -0.160724  58 C  s         

 Vector   14  Occ=2.000000D+00  E=-1.178805D+00  Symmetry=gu
              MO Center= -9.7D-17, -1.1D-16,  6.7D-16, r^2= 1.2D+01
   Bfn.  Coefficient  Atom+Function         Bfn.  Coefficient  Atom+Function  
  ----- ------------  ---------------      ----- ------------  ---------------
     1      0.167818   1 C  s               297     -0.167818  38 C  s         
    89     -0.163184  12 C  s               409      0.163184  52 C  s         
    25     -0.156470   4 C  s               313      0.156470  40 C  s         

 Vector   15  Occ=2.000000D+00  E=-1.178805D+00  Symmetry=gu
              MO Center= -1.6D-15,  3.6D-16,  5.8D-16, r^2= 1.2D+01
   Bfn.  Coefficient  Atom+Function         Bfn.  Coefficient  Atom+Function  
  ----- ------------  ---------------      ----- ------------  ---------------
    97     -0.164663  13 C  s               401      0.164663  51 C  s         
    81      0.160049  11 C  s               225     -0.159849  29 C  s         
   249      0.159849  32 C  s               417     -0.160049  53 C  s         
   321     -0.151382  41 C  s               465      0.151382  59 C  s         

 Vector   16  Occ=2.000000D+00  E=-1.178805D+00  Symmetry=gu
              MO Center= -5.3D-16,  1.2D-15, -5.3D-16, r^2= 1.2D+01
   Bfn.  Coefficient  Atom+Function         Bfn.  Coefficient  Atom+Function  
  ----- ------------  ---------------      ----- ------------  ---------------
   145     -0.170288  19 C  s               369      0.170288  47 C  s         
    65      0.168917   9 C  s               201     -0.168917  26 C  s         

 Vector   17  Occ=2.000000D+00  E=-1.112910D+00  Symmetry=hg
              MO Center=  9.9D-15,  1.4D-14, -9.5D-15, r^2= 1.3D+01
   Bfn.  Coefficient  Atom+Function         Bfn.  Coefficient  Atom+Function  
  ----- ------------  ---------------      ----- ------------  ---------------
   113      0.153727  15 C  s               425      0.153727  54 C  s         

 Vector   18  Occ=2.000000D+00  E=-1.112910D+00  Symmetry=hg
              MO Center= -2.2D-15, -4.4D-15, -1.2D-15, r^2= 1.3D+01
   Bfn.  Coefficient  Atom+Function         Bfn.  Coefficient  Atom+Function  
  ----- ------------  ---------------      ----- ------------  ---------------
   137      0.134565  18 C  s               377      0.134565  48 C  s         
   153     -0.133104  20 C  s               361     -0.133104  46 C  s         
     1      0.126118   1 C  s               297      0.126118  38 C  s         
     9      0.121368   2 C  s               289      0.121368  37 C  s         

 Vector   19  Occ=2.000000D+00  E=-1.112910D+00  Symmetry=hg
              MO Center= -2.2D-15,  9.8D-16, -1.4D-16, r^2= 1.3D+01
   Bfn.  Coefficient  Atom+Function         Bfn.  Coefficient  Atom+Function  
  ----- ------------  ---------------      ----- ------------  ---------------
    33     -0.149893   5 C  s               305     -0.149893  39 C  s         
    17      0.136339   3 C  s               281      0.136339  36 C  s         

 Vector   20  Occ=2.000000D+00  E=-1.112910D+00  Symmetry=hg
              MO Center= -5.1D-15, -5.1D-15, -1.1D-14, r^2= 1.3D+01
   Bfn.  Coefficient  Atom+Function         Bfn.  Coefficient  Atom+Function  
  ----- ------------  ---------------      ----- ------------  ---------------
    65      0.130986   9 C  s               201      0.130986  26 C  s         
    41     -0.117898   6 C  s               185     -0.117898  24 C  s         

 Vector   21  Occ=2.000000D+00  E=-1.112910D+00  Symmetry=hg
              MO Center=  3.5D-16,  6.6D-15, -3.0D-15, r^2= 1.3D+01
   Bfn.  Coefficient  Atom+Function         Bfn.  Coefficient  Atom+Function  
  ----- ------------  ---------------      ----- ------------  ---------------
   321      0.170639  41 C  s               465      0.170639  59 C  s         
   121      0.168203  16 C  s               241      0.168203  31 C  s         
   145      0.159352  19 C  s               369      0.159352  47 C  s         

 Vector   22  Occ=2.000000D+00  E=-1.092450D+00  Symmetry=gg
              MO Center=  9.7D-17,  9.8D-15, -3.9D-15, r^2= 1.3D+01
   Bfn.  Coefficient  Atom+Function         Bfn.  Coefficient  Atom+Function  
  ----- ------------  ---------------      ----- ------------  ---------------
    73     -0.146282  10 C  s               193     -0.146282  25 C  s         
    57      0.136944   8 C  s               169      0.136944  22 C  s         

 Vector   23  Occ=2.000000D+00  E=-1.092450D+00  Symmetry=gg
              MO Center=  3.8D-16, -2.5D-16, -1.5D-16, r^2= 1.3D+01
   Bfn.  Coefficient  Atom+Function         Bfn.  Coefficient  Atom+Function  
  ----- ------------  ---------------      ----- ------------  ---------------
    89      0.166147  12 C  s               409      0.166147  52 C  s         
    65      0.160818   9 C  s               201      0.160818  26 C  s         

 Vector   24  Occ=2.000000D+00  E=-1.092450D+00  Symmetry=gg
              MO Center= -5.1D-16,  6.1D-16,  1.9D-16, r^2= 1.3D+01
   Bfn.  Coefficient  Atom+Function         Bfn.  Coefficient  Atom+Function  
  ----- ------------  ---------------      ----- ------------  ---------------
     9      0.140285   2 C  s               289      0.140285  37 C  s         
   161      0.134348  21 C  s               393      0.134348  50 C  s         
   113      0.133661  15 C  s               425      0.133661  54 C  s         

 Vector   25  Occ=2.000000D+00  E=-1.092450D+00  Symmetry=gg
              MO Center= -1.9D-16,  4.2D-16, -1.3D-16, r^2= 1.3D+01
   Bfn.  Coefficient  Atom+Function         Bfn.  Coefficient  Atom+Function  
  ----- ------------  ---------------      ----- ------------  ---------------
    25      0.141775   4 C  s               225      0.142004  29 C  s         
   249      0.142004  32 C  s               313      0.141775  40 C  s         
   353      0.142311  45 C  s               473      0.142311  60 C  s         

 Vector   26  Occ=2.000000D+00  E=-1.022544D+00  Symmetry=hu
              MO Center=  4.4D-16,  2.2D-15,  1.2D-15, r^2= 1.3D+01
   Bfn.  Coefficient  Atom+Function         Bfn.  Coefficient  Atom+Function  
  ----- ------------  ---------------      ----- ------------  ---------------
     9      0.186901   2 C  s               289     -0.186901  37 C  s         
    97      0.183090  13 C  s               401     -0.183090  51 C  s         

 Vector   27  Occ=2.000000D+00  E=-1.022544D+00  Symmetry=hu
              MO Center= -1.6D-15, -1.3D-14, -4.9D-15, r^2= 1.3D+01
   Bfn.  Coefficient  Atom+Function         Bfn.  Coefficient  Atom+Function  
  ----- ------------  ---------------      ----- ------------  ---------------
   145      0.180864  19 C  s               369     -0.180864  47 C  s         
    17      0.164041   3 C  s               281     -0.164041  36 C  s         
    33     -0.154263   5 C  s               305      0.154263  39 C  s         
    65     -0.151098   9 C  s               201      0.151098  26 C  s         

 Vector   28  Occ=2.000000D+00  E=-1.022544D+00  Symmetry=hu
              MO Center=  2.7D-16,  1.7D-16,  2.5D-15, r^2= 1.3D+01
   Bfn.  Coefficient  Atom+Function         Bfn.  Coefficient  Atom+Function  
  ----- ------------  ---------------      ----- ------------  ---------------
   329      0.169836  42 C  s               457     -0.169836  58 C  s         
   233      0.168363  30 C  s               273     -0.168363  35 C  s         
   353     -0.152090  45 C  s               473      0.152090  60 C  s         
   225     -0.150153  29 C  s               249      0.150153  32 C  s         

 Vector   29  Occ=2.000000D+00  E=-1.022544D+00  Symmetry=hu
              MO Center= -5.7D-15, -9.9D-15, -5.6D-15, r^2= 1.3D+01
   Bfn.  Coefficient  Atom+Function         Bfn.  Coefficient  Atom+Function  
  ----- ------------  ---------------      ----- ------------  ---------------
    25      0.183488   4 C  s               313     -0.183488  40 C  s         
   337     -0.169538  43 C  s               449      0.169538  57 C  s         
   209      0.166312  27 C  s               265     -0.166312  34 C  s         

 Vector   30  Occ=2.000000D+00  E=-1.022544D+00  Symmetry=hu
              MO Center= -3.4D-15, -7.3D-15,  2.5D-16, r^2= 1.3D+01
   Bfn.  Coefficient  Atom+Function         Bfn.  Coefficient  Atom+Function  
  ----- ------------  ---------------      ----- ------------  ---------------
    57      0.172014   8 C  s               169     -0.172014  22 C  s         
   345     -0.157921  44 C  s               441      0.157921  56 C  s         
   217      0.156821  28 C  s               257     -0.156821  33 C  s         

 Vector   31  Occ=2.000000D+00  E=-9.936326D-01  Symmetry=t1u
              MO Center=  3.9D-15,  5.5D-15,  8.9D-15, r^2= 1.3D+01
   Bfn.  Coefficient  Atom+Function         Bfn.  Coefficient  Atom+Function  
  ----- ------------  ---------------      ----- ------------  ---------------
    89      0.127292  12 C  s               217     -0.127222  28 C  s         
   257      0.127222  33 C  s               409     -0.127292  52 C  s         
   353      0.121461  45 C  s               473     -0.121461  60 C  s         

 Vector   32  Occ=2.000000D+00  E=-9.936326D-01  Symmetry=t1u
              MO Center= -2.1D-14, -7.5D-15, -1.2D-14, r^2= 1.3D+01
   Bfn.  Coefficient  Atom+Function         Bfn.  Coefficient  Atom+Function  
  ----- ------------  ---------------      ----- ------------  ---------------
    73      0.128626  10 C  s               193     -0.128626  25 C  s         
   209      0.129125  27 C  s               265     -0.129125  34 C  s         
   137      0.124587  18 C  s               377     -0.124587  48 C  s         

 Vector   33  Occ=2.000000D+00  E=-9.936326D-01  Symmetry=t1u
              MO Center= -1.2D-15, -6.6D-15,  6.7D-16, r^2= 1.3D+01
   Bfn.  Coefficient  Atom+Function         Bfn.  Coefficient  Atom+Function  
  ----- ------------  ---------------      ----- ------------  ---------------
    65     -0.128338   9 C  s                81      0.128961  11 C  s         
   201      0.128338  26 C  s               417     -0.128961  53 C  s         
     9      0.124126   2 C  s               289     -0.124126  37 C  s         

 Vector   34  Occ=2.000000D+00  E=-9.294570D-01  Symmetry=t2u
              MO Center= -1.1D-14, -1.4D-16,  5.1D-15, r^2= 1.3D+01
   Bfn.  Coefficient  Atom+Function         Bfn.  Coefficient  Atom+Function  
  ----- ------------  ---------------      ----- ------------  ---------------
    25     -0.100873   4 C  s               113      0.100385  15 C  s         
   313      0.100873  40 C  s               425     -0.100385  54 C  s         
    17      0.098503   3 C  s               105     -0.098991  14 C  s         
   281     -0.098503  36 C  s               433      0.098991  55 C  s         

 Vector   35  Occ=2.000000D+00  E=-9.294570D-01  Symmetry=t2u
              MO Center= -5.1D-16, -3.2D-15, -9.0D-17, r^2= 1.3D+01
   Bfn.  Coefficient  Atom+Function         Bfn.  Coefficient  Atom+Function  
  ----- ------------  ---------------      ----- ------------  ---------------
   129      0.102634  17 C  s               385     -0.102634  49 C  s         
    49     -0.099954   7 C  s               177      0.099954  23 C  s         
    41      0.098285   6 C  s               185     -0.098285  24 C  s         
   161     -0.095605  21 C  s               393      0.095605  50 C  s         

 Vector   36  Occ=2.000000D+00  E=-9.294570D-01  Symmetry=t2u
              MO Center=  1.8D-16, -5.2D-16,  9.9D-16, r^2= 1.3D+01
   Bfn.  Coefficient  Atom+Function         Bfn.  Coefficient  Atom+Function  
  ----- ------------  ---------------      ----- ------------  ---------------
   121      0.102360  16 C  s               241     -0.102360  31 C  s         
   329     -0.102216  42 C  s               457      0.102216  58 C  s         
   225     -0.096091  29 C  s               249      0.096091  32 C  s         
   321      0.096236  41 C  s               465     -0.096236  59 C  s         

 Vector   37  Occ=2.000000D+00  E=-8.939114D-01  Symmetry=t1g
              MO Center=  6.8D-15,  2.0D-15, -2.2D-15, r^2= 1.3D+01
   Bfn.  Coefficient  Atom+Function         Bfn.  Coefficient  Atom+Function  
  ----- ------------  ---------------      ----- ------------  ---------------
    65     -0.145352   9 C  s               145      0.145352  19 C  s         
   201     -0.145352  26 C  s               369      0.145352  47 C  s         
    41      0.135050   6 C  s               185      0.135050  24 C  s         
   233     -0.135050  30 C  s               273     -0.135050  35 C  s         

 Vector   38  Occ=2.000000D+00  E=-8.939114D-01  Symmetry=t1g
              MO Center=  3.6D-16,  3.6D-15, -1.4D-15, r^2= 1.3D+01
   Bfn.  Coefficient  Atom+Function         Bfn.  Coefficient  Atom+Function  
  ----- ------------  ---------------      ----- ------------  ---------------
   209      0.147083  27 C  s               265      0.147083  34 C  s         
   345     -0.147083  44 C  s               441     -0.147083  56 C  s         

 Vector   39  Occ=2.000000D+00  E=-8.939114D-01  Symmetry=t1g
              MO Center=  2.3D-14, -7.0D-15,  1.0D-14, r^2= 1.3D+01
   Bfn.  Coefficient  Atom+Function         Bfn.  Coefficient  Atom+Function  
  ----- ------------  ---------------      ----- ------------  ---------------
     1      0.146673   1 C  s                89     -0.146673  12 C  s         
   297      0.146673  38 C  s               409     -0.146673  52 C  s         

 Vector   40  Occ=2.000000D+00  E=-8.874388D-01  Symmetry=hg
              MO Center=  5.4D-15, -2.4D-15,  4.0D-15, r^2= 1.3D+01
   Bfn.  Coefficient  Atom+Function         Bfn.  Coefficient  Atom+Function  
  ----- ------------  ---------------      ----- ------------  ---------------
    17      0.155416   3 C  s               281      0.155416  36 C  s         
    25     -0.150909   4 C  s               313     -0.150909  40 C  s         

 Vector   41  Occ=2.000000D+00  E=-8.874388D-01  Symmetry=hg
              MO Center=  9.2D-16,  1.1D-14, -2.8D-14, r^2= 1.3D+01
   Bfn.  Coefficient  Atom+Function         Bfn.  Coefficient  Atom+Function  
  ----- ------------  ---------------      ----- ------------  ---------------
    81      0.136283  11 C  s               417      0.136283  53 C  s         
   113     -0.135109  15 C  s               425     -0.135109  54 C  s         

 Vector   42  Occ=2.000000D+00  E=-8.874388D-01  Symmetry=hg
              MO Center= -7.7D-15,  7.8D-15,  1.4D-15, r^2= 1.3D+01
   Bfn.  Coefficient  Atom+Function         Bfn.  Coefficient  Atom+Function  
  ----- ------------  ---------------      ----- ------------  ---------------
   337      0.143380  43 C  s               449      0.143380  57 C  s         
   345     -0.141881  44 C  s               441     -0.141881  56 C  s         

 Vector   43  Occ=2.000000D+00  E=-8.874388D-01  Symmetry=hg
              MO Center= -1.9D-14,  1.7D-14, -1.1D-14, r^2= 1.3D+01
   Bfn.  Coefficient  Atom+Function         Bfn.  Coefficient  Atom+Function  
  ----- ------------  ---------------      ----- ------------  ---------------
   145      0.145566  19 C  s               369      0.145566  47 C  s         
    65      0.135453   9 C  s               201      0.135453  26 C  s         

 Vector   44  Occ=2.000000D+00  E=-8.874388D-01  Symmetry=hg
              MO Center=  1.1D-15,  1.5D-15,  9.3D-16, r^2= 1.3D+01
   Bfn.  Coefficient  Atom+Function         Bfn.  Coefficient  Atom+Function  
  ----- ------------  ---------------      ----- ------------  ---------------
   121      0.133065  16 C  s               241      0.133065  31 C  s         
   225     -0.128623  29 C  s               249     -0.128623  32 C  s         
   321     -0.127510  41 C  s               465     -0.127510  59 C  s         

 Vector   45  Occ=2.000000D+00  E=-8.367051D-01  Symmetry=ag
              MO Center= -9.3D-15, -5.8D-16, -3.2D-15, r^2= 1.3D+01
   Bfn.  Coefficient  Atom+Function         Bfn.  Coefficient  Atom+Function  
  ----- ------------  ---------------      ----- ------------  ---------------
    67     -0.089831   9 C  py              147     -0.089831  19 C  py        
   203      0.089831  26 C  py              234      0.089602  30 C  px        
   274     -0.089602  35 C  px              338     -0.089602  43 C  px        
   371      0.089831  47 C  py              450      0.089602  57 C  px        
     2      0.084750   1 C  px              298     -0.084750  38 C  px        

 Vector   46  Occ=2.000000D+00  E=-7.910820D-01  Symmetry=gg
              MO Center= -1.1D-14, -9.8D-15, -1.8D-14, r^2= 1.3D+01
   Bfn.  Coefficient  Atom+Function         Bfn.  Coefficient  Atom+Function  
  ----- ------------  ---------------      ----- ------------  ---------------
     3      0.142223   1 C  py              299     -0.142223  38 C  py        
    91     -0.129818  12 C  py              411      0.129818  52 C  py        

 Vector   47  Occ=2.000000D+00  E=-7.910820D-01  Symmetry=gg
              MO Center=  1.1D-14, -6.4D-15, -1.8D-14, r^2= 1.3D+01
   Bfn.  Coefficient  Atom+Function         Bfn.  Coefficient  Atom+Function  
  ----- ------------  ---------------      ----- ------------  ---------------
   148      0.120360  19 C  pz              372     -0.120360  47 C  pz        
    68     -0.109711   9 C  pz              204      0.109711  26 C  pz        
   221      0.109941  28 C  s               261      0.109941  33 C  s         
   341     -0.108379  43 C  s               453     -0.108379  57 C  s         

 Vector   48  Occ=2.000000D+00  E=-7.910820D-01  Symmetry=gg
              MO Center=  4.9D-16, -7.8D-16,  1.1D-16, r^2= 1.3D+01
   Bfn.  Coefficient  Atom+Function         Bfn.  Coefficient  Atom+Function  
  ----- ------------  ---------------      ----- ------------  ---------------
   210     -0.120198  27 C  px              266      0.120198  34 C  px        
   346     -0.116030  44 C  px              442      0.116030  56 C  px        
    13      0.112876   2 C  s               293      0.112876  37 C  s         
    37     -0.108229   5 C  s               309     -0.108229  39 C  s         

 Vector   49  Occ=2.000000D+00  E=-7.910820D-01  Symmetry=gg
              MO Center= -1.0D-15,  2.8D-16, -2.2D-16, r^2= 1.3D+01
   Bfn.  Coefficient  Atom+Function         Bfn.  Coefficient  Atom+Function  
  ----- ------------  ---------------      ----- ------------  ---------------
     5      0.140571   1 C  s               301      0.140571  38 C  s         
   149      0.135241  19 C  s               373      0.135241  47 C  s         
   213      0.133845  27 C  s               269      0.133845  34 C  s         
   349      0.134351  44 C  s               445      0.134351  56 C  s         
    69      0.132955   9 C  s               205      0.132955  26 C  s         

 Vector   50  Occ=2.000000D+00  E=-7.678543D-01  Symmetry=hu
              MO Center=  5.2D-15, -1.2D-16,  3.1D-15, r^2= 1.3D+01
   Bfn.  Coefficient  Atom+Function         Bfn.  Coefficient  Atom+Function  
  ----- ------------  ---------------      ----- ------------  ---------------
   161      0.144013  21 C  s               393     -0.144013  50 C  s         
    41      0.133170   6 C  s               185     -0.133170  24 C  s         

 Vector   51  Occ=2.000000D+00  E=-7.678543D-01  Symmetry=hu
              MO Center=  8.2D-15,  2.1D-14,  1.1D-15, r^2= 1.3D+01
   Bfn.  Coefficient  Atom+Function         Bfn.  Coefficient  Atom+Function  
  ----- ------------  ---------------      ----- ------------  ---------------
   145      0.140866  19 C  s               369     -0.140866  47 C  s         
    65      0.129220   9 C  s               201     -0.129220  26 C  s         

 Vector   52  Occ=2.000000D+00  E=-7.678543D-01  Symmetry=hu
              MO Center=  2.2D-14,  1.6D-15,  1.3D-16, r^2= 1.3D+01
   Bfn.  Coefficient  Atom+Function         Bfn.  Coefficient  Atom+Function  
  ----- ------------  ---------------      ----- ------------  ---------------
   153     -0.130707  20 C  s               361      0.130707  46 C  s         
   209     -0.127971  27 C  s               265      0.127971  34 C  s         
   345      0.124212  44 C  s               441     -0.124212  56 C  s         
     2      0.120170   1 C  px               89      0.120233  12 C  s         
   298      0.120170  38 C  px              409     -0.120233  52 C  s         

 Vector   53  Occ=2.000000D+00  E=-7.678543D-01  Symmetry=hu
              MO Center=  4.2D-15, -2.0D-14, -2.4D-14, r^2= 1.3D+01
   Bfn.  Coefficient  Atom+Function         Bfn.  Coefficient  Atom+Function  
  ----- ------------  ---------------      ----- ------------  ---------------
    57      0.156330   8 C  s               169     -0.156330  22 C  s         

 Vector   54  Occ=2.000000D+00  E=-7.678543D-01  Symmetry=hu
              MO Center=  8.6D-15,  3.2D-15,  9.0D-15, r^2= 1.3D+01
   Bfn.  Coefficient  Atom+Function         Bfn.  Coefficient  Atom+Function  
  ----- ------------  ---------------      ----- ------------  ---------------
   137      0.136722  18 C  s               377     -0.136722  48 C  s         
   321     -0.128687  41 C  s               465      0.128687  59 C  s         

 Vector   55  Occ=2.000000D+00  E=-7.382850D-01  Symmetry=t1u
              MO Center=  1.5D-16,  8.7D-16, -2.1D-16, r^2= 1.3D+01
   Bfn.  Coefficient  Atom+Function         Bfn.  Coefficient  Atom+Function  
  ----- ------------  ---------------      ----- ------------  ---------------
   212      0.127832  27 C  pz              268      0.127832  34 C  pz        
   348     -0.125270  44 C  pz              444     -0.125270  56 C  pz        
    52      0.124170   7 C  pz              180      0.124170  23 C  pz        
   132     -0.120574  17 C  pz              388     -0.120574  49 C  pz        
   162     -0.119033  21 C  px              394     -0.119033  50 C  px        

 Vector   56  Occ=2.000000D+00  E=-7.382850D-01  Symmetry=t1u
              MO Center=  3.3D-15,  2.8D-15, -3.6D-15, r^2= 1.3D+01
   Bfn.  Coefficient  Atom+Function         Bfn.  Coefficient  Atom+Function  
  ----- ------------  ---------------      ----- ------------  ---------------
     2      0.130009   1 C  px              298      0.130009  38 C  px        

 Vector   57  Occ=2.000000D+00  E=-7.382850D-01  Symmetry=t1u
              MO Center=  1.4D-15, -2.2D-15,  1.9D-15, r^2= 1.3D+01
   Bfn.  Coefficient  Atom+Function         Bfn.  Coefficient  Atom+Function  
  ----- ------------  ---------------      ----- ------------  ---------------
    67      0.127297   9 C  py              147     -0.127534  19 C  py        
   203      0.127297  26 C  py              371     -0.127534  47 C  py        

 Vector   58  Occ=2.000000D+00  E=-6.990943D-01  Symmetry=t2u
              MO Center= -3.2D-16,  4.9D-16,  2.0D-15, r^2= 1.3D+01
   Bfn.  Coefficient  Atom+Function         Bfn.  Coefficient  Atom+Function  
  ----- ------------  ---------------      ----- ------------  ---------------
     3      0.125079   1 C  py               91      0.125079  12 C  py        
   299      0.125079  38 C  py              411      0.125079  52 C  py        
   330     -0.115298  42 C  px              458     -0.115298  58 C  px        

 Vector   59  Occ=2.000000D+00  E=-6.990943D-01  Symmetry=t2u
              MO Center=  6.0D-16, -1.4D-15,  2.2D-15, r^2= 1.3D+01
   Bfn.  Coefficient  Atom+Function         Bfn.  Coefficient  Atom+Function  
  ----- ------------  ---------------      ----- ------------  ---------------
   132      0.109626  17 C  pz              346      0.110004  44 C  px        
   388      0.109626  49 C  pz              442      0.110004  56 C  px        
    52      0.108882   7 C  pz              180      0.108882  23 C  pz        
   147      0.106533  19 C  py              371      0.106533  47 C  py        
    67     -0.104687   9 C  py              203     -0.104687  26 C  py        

 Vector   60  Occ=2.000000D+00  E=-6.990943D-01  Symmetry=t2u
              MO Center=  6.0D-15, -2.3D-15, -7.7D-15, r^2= 1.3D+01
   Bfn.  Coefficient  Atom+Function         Bfn.  Coefficient  Atom+Function  
  ----- ------------  ---------------      ----- ------------  ---------------
   115     -0.118729  15 C  py              427     -0.118729  54 C  py        
   107      0.116349  14 C  py              435      0.116349  55 C  py        
    27     -0.111096   4 C  py              315     -0.111096  40 C  py        
    19      0.108716   3 C  py              234      0.108365  30 C  px        
   274      0.108365  35 C  px              283      0.108716  36 C  py        

 Vector   61  Occ=2.000000D+00  E=-6.798965D-01  Symmetry=ag
              MO Center= -6.9D-15,  5.3D-16, -5.1D-15, r^2= 1.4D+01
   Bfn.  Coefficient  Atom+Function         Bfn.  Coefficient  Atom+Function  
  ----- ------------  ---------------      ----- ------------  ---------------
   211      0.074656  27 C  py              267     -0.074656  34 C  py        
   347      0.074656  44 C  py              443     -0.074656  56 C  py        
   106      0.073120  14 C  px              114      0.073120  15 C  px        
   426     -0.073120  54 C  px              434     -0.073120  55 C  px        
     4      0.070358   1 C  pz               12      0.070358   2 C  pz        

 Vector   62  Occ=2.000000D+00  E=-6.715107D-01  Symmetry=gu
              MO Center= -2.3D-14,  4.4D-15, -9.0D-15, r^2= 1.3D+01
   Bfn.  Coefficient  Atom+Function         Bfn.  Coefficient  Atom+Function  
  ----- ------------  ---------------      ----- ------------  ---------------
    91      0.165638  12 C  py              411      0.165638  52 C  py        

 Vector   63  Occ=2.000000D+00  E=-6.715107D-01  Symmetry=gu
              MO Center=  1.3D-14, -3.4D-15, -7.1D-15, r^2= 1.3D+01
   Bfn.  Coefficient  Atom+Function         Bfn.  Coefficient  Atom+Function  
  ----- ------------  ---------------      ----- ------------  ---------------
     3      0.172251   1 C  py              299      0.172251  38 C  py        

 Vector   64  Occ=2.000000D+00  E=-6.715107D-01  Symmetry=gu
              MO Center=  1.8D-15, -2.3D-14,  5.7D-15, r^2= 1.3D+01
   Bfn.  Coefficient  Atom+Function         Bfn.  Coefficient  Atom+Function  
  ----- ------------  ---------------      ----- ------------  ---------------
   330      0.177134  42 C  px              458      0.177134  58 C  px        
   122      0.154763  16 C  px              242      0.154763  31 C  px        

[...]
  ----- ------------  ---------------      ----- ------------  ---------------
    13      1.215189   2 C  s               293     -1.215189  37 C  s         
    69     -1.159198   9 C  s               205      1.159198  26 C  s         
    29      1.143943   4 C  s               317     -1.143943  40 C  s         
    45     -1.087951   6 C  s                85      1.092842  11 C  s         
   189      1.087951  24 C  s               421     -1.092842  53 C  s         

 Vector  183  Occ=0.000000D+00  E= 4.181015D-01  Symmetry=t2u
              MO Center=  1.0D-14,  1.2D-16,  1.6D-14, r^2= 2.0D+01
   Bfn.  Coefficient  Atom+Function         Bfn.  Coefficient  Atom+Function  
  ----- ------------  ---------------      ----- ------------  ---------------
   141      1.217184  18 C  s               381     -1.217184  48 C  s         
   165      1.122635  21 C  s               397     -1.122635  50 C  s         
   157      1.094919  20 C  s               213      1.091243  27 C  s         
   269     -1.091243  34 C  s               365     -1.094919  46 C  s         
    77      1.078816  10 C  s               197     -1.078816  25 C  s         

 Vector  184  Occ=0.000000D+00  E= 4.181015D-01  Symmetry=t2u
              MO Center=  3.3D-14,  7.1D-15,  8.4D-15, r^2= 2.0D+01
   Bfn.  Coefficient  Atom+Function         Bfn.  Coefficient  Atom+Function  
  ----- ------------  ---------------      ----- ------------  ---------------
   357      1.220781  45 C  s               477     -1.220781  60 C  s         
    93      1.187591  12 C  s               413     -1.187591  52 C  s         
   221     -1.179368  28 C  s               261      1.179368  33 C  s         
   333      1.038798  42 C  s               461     -1.038798  58 C  s         
   341      1.020457  43 C  s               453     -1.020457  57 C  s         

 Vector  185  Occ=0.000000D+00  E= 4.246047D-01  Symmetry=t1u
              MO Center=  1.2D-14, -4.0D-15,  2.5D-14, r^2= 1.9D+01
   Bfn.  Coefficient  Atom+Function         Bfn.  Coefficient  Atom+Function  
  ----- ------------  ---------------      ----- ------------  ---------------
    61      1.348834   8 C  s               173     -1.348834  22 C  s         
   117     -1.339928  15 C  s               429      1.339928  54 C  s         
   221     -1.268374  28 C  s               261      1.268374  33 C  s         
   213     -1.222283  27 C  s               269      1.222283  34 C  s         
   133     -1.209025  17 C  s               389      1.209025  49 C  s         

 Vector  186  Occ=0.000000D+00  E= 4.246047D-01  Symmetry=t1u
              MO Center=  4.2D-16,  4.4D-16, -2.0D-14, r^2= 1.9D+01
   Bfn.  Coefficient  Atom+Function         Bfn.  Coefficient  Atom+Function  
  ----- ------------  ---------------      ----- ------------  ---------------
    45      1.408527   6 C  s               189     -1.408527  24 C  s         
   237      1.367223  30 C  s               277     -1.367223  35 C  s         
    93      1.296316  12 C  s               413     -1.296316  52 C  s         
   165     -1.289614  21 C  s               397      1.289614  50 C  s         
     5      1.184662   1 C  s               301     -1.184662  38 C  s         

 Vector  187  Occ=0.000000D+00  E= 4.246047D-01  Symmetry=t1u
              MO Center= -1.6D-14,  3.1D-14,  1.8D-14, r^2= 1.9D+01
   Bfn.  Coefficient  Atom+Function         Bfn.  Coefficient  Atom+Function  
  ----- ------------  ---------------      ----- ------------  ---------------
    69      1.342281   9 C  s               205     -1.342281  26 C  s         
   149      1.331538  19 C  s               373     -1.331538  47 C  s         
   229     -1.272037  29 C  s               253      1.272037  32 C  s         
   101      1.217256  13 C  s               125     -1.216435  16 C  s         
   245      1.216435  31 C  s               405     -1.217256  51 C  s         

 Vector  188  Occ=0.000000D+00  E= 4.818201D-01  Symmetry=ag
              MO Center=  2.6D-15,  2.2D-14, -3.3D-14, r^2= 2.0D+01
   Bfn.  Coefficient  Atom+Function         Bfn.  Coefficient  Atom+Function  
  ----- ------------  ---------------      ----- ------------  ---------------
    71     -0.156789   9 C  py              151     -0.156789  19 C  py        
   207      0.156789  26 C  py              238      0.156086  30 C  px        
   278     -0.156086  35 C  px              342     -0.156086  43 C  px        
   375      0.156789  47 C  py              454      0.156086  57 C  px        

 Vector  189  Occ=0.000000D+00  E= 4.830315D-01  Symmetry=hg
              MO Center=  1.2D-13, -6.5D-14, -4.4D-14, r^2= 1.8D+01
   Bfn.  Coefficient  Atom+Function         Bfn.  Coefficient  Atom+Function  
  ----- ------------  ---------------      ----- ------------  ---------------
   357      0.404434  45 C  s               477      0.404434  60 C  s         
   149     -0.357708  19 C  s               373     -0.357708  47 C  s         
    21     -0.336877   3 C  s               285     -0.336877  36 C  s         
    37     -0.306561   5 C  s               309     -0.306561  39 C  s         
    29     -0.283891   4 C  s               317     -0.283891  40 C  s         

 Vector  190  Occ=0.000000D+00  E= 4.830315D-01  Symmetry=hg
              MO Center=  2.4D-13,  3.4D-13,  2.6D-14, r^2= 1.8D+01
   Bfn.  Coefficient  Atom+Function         Bfn.  Coefficient  Atom+Function  
  ----- ------------  ---------------      ----- ------------  ---------------
    69      0.385552   9 C  s               205      0.385552  26 C  s         
    61      0.352545   8 C  s                77      0.353067  10 C  s         
   173      0.352545  22 C  s               197      0.353067  25 C  s         
    53      0.349249   7 C  s               181      0.349249  23 C  s         
    45      0.308423   6 C  s               189      0.308423  24 C  s         

 Vector  191  Occ=0.000000D+00  E= 4.830315D-01  Symmetry=hg
              MO Center= -5.1D-15, -9.9D-15,  1.4D-14, r^2= 1.8D+01
   Bfn.  Coefficient  Atom+Function         Bfn.  Coefficient  Atom+Function  
  ----- ------------  ---------------      ----- ------------  ---------------
   117      0.408323  15 C  s               429      0.408323  54 C  s         
   237     -0.362551  30 C  s               277     -0.362551  35 C  s         
   109      0.337504  14 C  s               437      0.337504  55 C  s         
   101      0.335525  13 C  s               405      0.335525  51 C  s         
    85      0.282785  11 C  s               421      0.282785  53 C  s         

 Vector  192  Occ=0.000000D+00  E= 4.830315D-01  Symmetry=hg
              MO Center=  4.9D-15,  7.5D-15, -2.3D-15, r^2= 1.8D+01
   Bfn.  Coefficient  Atom+Function         Bfn.  Coefficient  Atom+Function  
  ----- ------------  ---------------      ----- ------------  ---------------
   141      0.399031  18 C  s               381      0.399031  48 C  s         
   213      0.331644  27 C  s               269      0.331644  34 C  s         
   325     -0.325284  41 C  s               469     -0.325284  59 C  s         
    85     -0.323308  11 C  s               421     -0.323308  53 C  s         
   133      0.300345  17 C  s               389      0.300345  49 C  s         

 Vector  193  Occ=0.000000D+00  E= 4.830315D-01  Symmetry=hg
              MO Center=  1.6D-14,  5.1D-15,  3.3D-15, r^2= 1.8D+01
   Bfn.  Coefficient  Atom+Function         Bfn.  Coefficient  Atom+Function  
  ----- ------------  ---------------      ----- ------------  ---------------
   125      0.398585  16 C  s               245      0.398585  31 C  s         
   349     -0.347592  44 C  s               445     -0.347592  56 C  s         
   229      0.331963  29 C  s               253      0.331963  32 C  s         
   333     -0.328145  42 C  s               461     -0.328145  58 C  s         
   157     -0.319933  20 C  s               365     -0.319933  46 C  s         

 Vector  194  Occ=0.000000D+00  E= 4.873158D-01  Symmetry=hu
              MO Center= -3.5D-14,  1.9D-15,  8.1D-15, r^2= 1.7D+01
   Bfn.  Coefficient  Atom+Function         Bfn.  Coefficient  Atom+Function  
  ----- ------------  ---------------      ----- ------------  ---------------
    95      1.811608  12 C  py              415      1.811608  52 C  py        
   221     -1.611633  28 C  s               261      1.611633  33 C  s         
   357     -1.500358  45 C  s               477      1.500358  60 C  s         
   149      1.474965  19 C  s               373     -1.474965  47 C  s         
    69      1.438873   9 C  s               205     -1.438873  26 C  s         

 Vector  195  Occ=0.000000D+00  E= 4.873158D-01  Symmetry=hu
              MO Center=  1.8D-14,  1.0D-14, -3.3D-15, r^2= 1.7D+01
   Bfn.  Coefficient  Atom+Function         Bfn.  Coefficient  Atom+Function  
  ----- ------------  ---------------      ----- ------------  ---------------
   349      1.705525  44 C  s               445     -1.705525  56 C  s         
    13      1.667619   2 C  s               293     -1.667619  37 C  s         
    72     -1.524794   9 C  pz              208     -1.524794  26 C  pz        
   240      1.382915  30 C  pz              280      1.382915  35 C  pz        
   213     -1.370000  27 C  s               269      1.370000  34 C  s         

 Vector  196  Occ=0.000000D+00  E= 4.873158D-01  Symmetry=hu
              MO Center= -1.6D-14, -4.2D-15, -2.1D-15, r^2= 1.7D+01
   Bfn.  Coefficient  Atom+Function         Bfn.  Coefficient  Atom+Function  
  ----- ------------  ---------------      ----- ------------  ---------------
   333     -1.738348  42 C  s               461      1.738348  58 C  s         
   111      1.590694  14 C  py              439      1.590694  55 C  py        
   119      1.537129  15 C  py              431      1.537129  54 C  py        
   125     -1.466719  16 C  s               245      1.466719  31 C  s         
   229      1.424627  29 C  s               253     -1.424627  32 C  s         

 Vector  197  Occ=0.000000D+00  E= 4.873158D-01  Symmetry=hu
              MO Center=  3.3D-13,  8.4D-13, -2.1D-13, r^2= 1.7D+01
   Bfn.  Coefficient  Atom+Function         Bfn.  Coefficient  Atom+Function  
  ----- ------------  ---------------      ----- ------------  ---------------
    93      1.866785  12 C  s               413     -1.866785  52 C  s         
   350     -1.564229  44 C  px              446     -1.564229  56 C  px        
   358     -1.469771  45 C  px              478     -1.469771  60 C  px        
   214     -1.458476  27 C  px              270     -1.458476  34 C  px        
    77      1.449372  10 C  s               197     -1.449372  25 C  s         

 Vector  198  Occ=0.000000D+00  E= 4.873158D-01  Symmetry=hu
              MO Center= -1.9D-16, -2.2D-15, -3.3D-15, r^2= 1.7D+01
   Bfn.  Coefficient  Atom+Function         Bfn.  Coefficient  Atom+Function  
  ----- ------------  ---------------      ----- ------------  ---------------
    45      1.757605   6 C  s               189     -1.757605  24 C  s         
   237      1.621337  30 C  s               277     -1.621337  35 C  s         
   334     -1.598323  42 C  px              462     -1.598323  58 C  px        
    38     -1.540644   5 C  px              310     -1.540644  39 C  px        
   126      1.440376  16 C  px              246      1.440376  31 C  px        

 Vector  199  Occ=0.000000D+00  E= 5.108896D-01  Symmetry=hg
              MO Center= -2.6D-14,  4.8D-15, -1.4D-14, r^2= 2.2D+01
   Bfn.  Coefficient  Atom+Function         Bfn.  Coefficient  Atom+Function  
  ----- ------------  ---------------      ----- ------------  ---------------
   237      0.928271  30 C  s               277      0.928271  35 C  s         
   341      0.872396  43 C  s               453      0.872396  57 C  s         
   357      0.858305  45 C  s               477      0.858305  60 C  s         
   221      0.806155  28 C  s               261      0.806155  33 C  s         
    85     -0.724765  11 C  s               421     -0.724765  53 C  s         


 center of mass
 --------------
 x =   0.00000000 y =   0.00000000 z =   0.00000000

 moments of inertia (a.u.)
 ------------------
       21417.006886203708           0.000000000000           0.000000000005
           0.000000000000       21417.006886203693           0.000000000001
           0.000000000005           0.000000000001       21417.006886203715

  Mulliken analysis of the total density
  --------------------------------------

    Atom       Charge   Shell Charges
 -----------   ------   -------------------------------------------------------
    1 C    4     4.00   1.13  2.57 -0.31  0.61
    2 C    4     4.00   1.13  2.57 -0.31  0.61
    3 C    4     4.00   1.13  2.57 -0.31  0.61
    4 C    4     4.00   1.13  2.57 -0.31  0.61
    5 C    4     4.00   1.13  2.57 -0.31  0.61
    6 C    4     4.00   1.13  2.57 -0.31  0.61
    7 C    4     4.00   1.13  2.57 -0.31  0.61
    8 C    4     4.00   1.13  2.57 -0.31  0.61
    9 C    4     4.00   1.13  2.57 -0.31  0.61
   10 C    4     4.00   1.13  2.57 -0.31  0.61
   11 C    4     4.00   1.13  2.57 -0.31  0.61
   12 C    4     4.00   1.13  2.57 -0.31  0.61
   13 C    4     4.00   1.13  2.57 -0.31  0.61
   14 C    4     4.00   1.13  2.57 -0.31  0.61
   15 C    4     4.00   1.13  2.57 -0.31  0.61
   16 C    4     4.00   1.13  2.57 -0.31  0.61
   17 C    4     4.00   1.13  2.57 -0.31  0.61
   18 C    4     4.00   1.13  2.57 -0.31  0.61
   19 C    4     4.00   1.13  2.57 -0.31  0.61
   20 C    4     4.00   1.13  2.57 -0.31  0.61
   21 C    4     4.00   1.13  2.57 -0.31  0.61
   22 C    4     4.00   1.13  2.57 -0.31  0.61
   23 C    4     4.00   1.13  2.57 -0.31  0.61
   24 C    4     4.00   1.13  2.57 -0.31  0.61
   25 C    4     4.00   1.13  2.57 -0.31  0.61
   26 C    4     4.00   1.13  2.57 -0.31  0.61
   27 C    4     4.00   1.13  2.57 -0.31  0.61
   28 C    4     4.00   1.13  2.57 -0.31  0.61
   29 C    4     4.00   1.13  2.57 -0.31  0.61
   30 C    4     4.00   1.13  2.57 -0.31  0.61
   31 C    4     4.00   1.13  2.57 -0.31  0.61
   32 C    4     4.00   1.13  2.57 -0.31  0.61
   33 C    4     4.00   1.13  2.57 -0.31  0.61
   34 C    4     4.00   1.13  2.57 -0.31  0.61
   35 C    4     4.00   1.13  2.57 -0.31  0.61
   36 C    4     4.00   1.13  2.57 -0.31  0.61
   37 C    4     4.00   1.13  2.57 -0.31  0.61
   38 C    4     4.00   1.13  2.57 -0.31  0.61
   39 C    4     4.00   1.13  2.57 -0.31  0.61
   40 C    4     4.00   1.13  2.57 -0.31  0.61
   41 C    4     4.00   1.13  2.57 -0.31  0.61
   42 C    4     4.00   1.13  2.57 -0.31  0.61
   43 C    4     4.00   1.13  2.57 -0.31  0.61
   44 C    4     4.00   1.13  2.57 -0.31  0.61
   45 C    4     4.00   1.13  2.57 -0.31  0.61
   46 C    4     4.00   1.13  2.57 -0.31  0.61
   47 C    4     4.00   1.13  2.57 -0.31  0.61
   48 C    4     4.00   1.13  2.57 -0.31  0.61
   49 C    4     4.00   1.13  2.57 -0.31  0.61
   50 C    4     4.00   1.13  2.57 -0.31  0.61
   51 C    4     4.00   1.13  2.57 -0.31  0.61
   52 C    4     4.00   1.13  2.57 -0.31  0.61
   53 C    4     4.00   1.13  2.57 -0.31  0.61
   54 C    4     4.00   1.13  2.57 -0.31  0.61
   55 C    4     4.00   1.13  2.57 -0.31  0.61
   56 C    4     4.00   1.13  2.57 -0.31  0.61
   57 C    4     4.00   1.13  2.57 -0.31  0.61
   58 C    4     4.00   1.13  2.57 -0.31  0.61
   59 C    4     4.00   1.13  2.57 -0.31  0.61
   60 C    4     4.00   1.13  2.57 -0.31  0.61

       Multipole analysis of the density wrt the origin
       ------------------------------------------------

     L   x y z        total         open         nuclear
     -   - - -        -----         ----         -------
     0   0 0 0      0.000000      0.000000    240.000000

     1   1 0 0     -0.000000      0.000000     -0.000000
     1   0 1 0     -0.000000      0.000000      0.000000
     1   0 0 1      0.000000      0.000000      0.000000

     2   2 0 0   -268.727986      0.000000   3569.501148
     2   1 1 0     -0.000000      0.000000      0.000000
     2   1 0 1     -0.000000      0.000000     -0.000000
     2   0 2 0   -268.727986      0.000000   3569.501148
     2   0 1 1      0.000000      0.000000     -0.000000
     2   0 0 2   -268.727986      0.000000   3569.501148


 Parallel integral file used    1284 records with       0 large values


 Task  times  cpu:       22.7s     wall:       22.8s


                                NWChem Input Module
                                -------------------


 Summary of allocated global arrays
-----------------------------------
  No active global arrays



                         GA Statistics for process    0
                         ------------------------------

       create   destroy   get      put      acc     scatter   gather  read&inc
calls:  407      407     8.64e+04 2.87e+04 2.05e+06    0        0     1.99e+04 
number of processes/call 1.20e+00 1.09e+00 1.00e+00 0.00e+00 0.00e+00
bytes total:             4.67e+08 1.58e+08 1.17e+09 0.00e+00 0.00e+00 1.59e+05
bytes remote:            2.40e+08 4.87e+07 8.37e+08 0.00e+00 0.00e+00 0.00e+00
Max memory consumed for GA by this process: 6347776 bytes

MA_summarize_allocated_blocks: starting scan ...
MA_summarize_allocated_blocks: scan completed: 0 heap blocks, 0 stack blocks
MA usage statistics:

	allocation statistics:
					      heap	     stack
					      ----	     -----
	current number of blocks	         0	         0
	maximum number of blocks	        40	        14
	current total bytes		         0	         0
	maximum total bytes		 291193496	  22521944
	maximum total K-bytes		    291194	     22522
	maximum total M-bytes		       292	        23


                                     CITATION
                                     --------
                Please cite the following reference when publishing
                           results obtained with NWChem:

                 M. Valiev, E.J. Bylaska, N. Govind, K. Kowalski,
              T.P. Straatsma, H.J.J. van Dam, D. Wang, J. Nieplocha,
                        E. Apra, T.L. Windus, W.A. de Jong
                 "NWChem: a comprehensive and scalable open-source
                  solution for large scale molecular simulations"
                      Comput. Phys. Commun. 181, 1477 (2010)
                           doi:10.1016/j.cpc.2010.04.018

                                      AUTHORS
                                      -------
          E. Apra, E. J. Bylaska, W. A. de Jong, N. Govind, K. Kowalski,
       T. P. Straatsma, M. Valiev, H. J. J. van Dam, D. Wang, T. L. Windus,
        J. Hammond, J. Autschbach, K. Bhaskaran-Nair, J. Brabec, K. Lopata,
    S. A. Fischer, S. Krishnamoorthy, M. Jacquelin, W. Ma, M. Klemm, O. Villa,
      Y. Chen, V. Anisimov, F. Aquino, S. Hirata, M. T. Hackler, V. Konjkov,
            D. Mejia-Rodriguez, T. Risthaus, M. Malagoli, A. Marenich,
   A. Otero-de-la-Roza, J. Mullin, P. Nichols, R. Peverati, J. Pittner, Y. Zhao,
        P.-D. Fan, A. Fonari, M. J. Williamson, R. J. Harrison, J. R. Rehr,
      M. Dupuis, D. Silverstein, D. M. A. Smith, J. Nieplocha, V. Tipparaju,
    M. Krishnan, B. E. Van Kuiken, A. Vazquez-Mayagoitia, L. Jensen, M. Swart,
      Q. Wu, T. Van Voorhis, A. A. Auer, M. Nooijen, L. D. Crosby, E. Brown,
      G. Cisneros, G. I. Fann, H. Fruchtl, J. Garza, K. Hirao, R. A. Kendall,
      J. A. Nichols, K. Tsemekhman, K. Wolinski, J. Anchell, D. E. Bernholdt,
      P. Borowski, T. Clark, D. Clerc, H. Dachsel, M. J. O. Deegan, K. Dyall,
    D. Elwood, E. Glendening, M. Gutowski, A. C. Hess, J. Jaffe, B. G. Johnson,
     J. Ju, R. Kobayashi, R. Kutteh, Z. Lin, R. Littlefield, X. Long, B. Meng,
      T. Nakajima, S. Niu, L. Pollack, M. Rosing, K. Glaesemann, G. Sandrone,
      M. Stave, H. Taylor, G. Thomas, J. H. van Lenthe, A. T. Wong, Z. Zhang.

 Total times  cpu:       22.7s     wall:       22.9s
[0] ARMCI Warning: Freed 1 leaked allocations
