 argument  1 = /home/list1234/source/nwchem-6.8.1-release/QA/tests/carbon_fon/carbon_fon.nw



============================== echo of input deck ==============================
echo

title "carbon"

start carbon_fon

geometry units angstrom nocenter
symmetry c1
  C   0.0 0.0 0.0
end

basis
  * library 6-31G
end

scf
 direct
end

charge 0

dft
direct
grid xfine
convergence energy 1d-8
XC pbe0
fon partial 3 electrons 1.8 filled 2
end

#set dft:debugfon .true.

task dft energy

dft
odft
fon alpha partial 3 electrons 0.9 filled 2
fon beta partial 3 electrons 0.9 filled 2
end

task dft energy

dft
fon partial 6 electrons 1.8 filled 4
end

relativistic
 zora
end

task sodft energy

================================================================================


                                         
                                         


              Northwest Computational Chemistry Package (NWChem) 6.8
              ------------------------------------------------------


                    Environmental Molecular Sciences Laboratory
                       Pacific Northwest National Laboratory
                                Richland, WA 99352

                              Copyright (c) 1994-2018
                       Pacific Northwest National Laboratory
                            Battelle Memorial Institute

             NWChem is an open-source computational chemistry package
                        distributed under the terms of the
                      Educational Community License (ECL) 2.0
             A copy of the license is included with this distribution
                              in the LICENSE.TXT file

                                  ACKNOWLEDGMENT
                                  --------------

            This software and its documentation were developed at the
            EMSL at Pacific Northwest National Laboratory, a multiprogram
            national laboratory, operated for the U.S. Department of Energy
            by Battelle under Contract Number DE-AC05-76RL01830. Support
            for this work was provided by the Department of Energy Office
            of Biological and Environmental Research, Office of Basic
            Energy Sciences, and the Office of Advanced Scientific Computing.


           Job information
           ---------------

    hostname        = list1234-B360M-H
    program         = /home/list1234/source/nwchem-6.8.1-release/bin/LINUX64/nwchem
    date            = Sun Jun 30 14:12:13 2019

    compiled        = Sun_Jun_30_11:55:59_2019
    source          = /home/list1234/source/nwchem-6.8.1-release
    nwchem branch   = Development
    nwchem revision = N/A
    ga revision     = 5.6.5
    use scalapack   = T
    input           = /home/list1234/source/nwchem-6.8.1-release/QA/tests/carbon_fon/carbon_fon.nw
    prefix          = carbon_fon.
    data base       = ./carbon_fon.db
    status          = startup
    nproc           =        4
    time left       =     -1s



           Memory information
           ------------------

    heap     =   86247162 doubles =    658.0 Mbytes
    stack    =   86247167 doubles =    658.0 Mbytes
    global   =  172494336 doubles =   1316.0 Mbytes (distinct from heap & stack)
    total    =  344988665 doubles =   2632.1 Mbytes
    verify   = yes
    hardfail = no 


           Directory information
           ---------------------

  0 permanent = .
  0 scratch   = .




                                NWChem Input Module
                                -------------------


                                      carbon
                                      ------

 Scaling coordinates for geometry "geometry" by  1.889725989
 (inverse scale =  0.529177249)



                             Geometry "geometry" -> ""
                             -------------------------

 Output coordinates in angstroms (scale by  1.889725989 to convert to a.u.)

  No.       Tag          Charge          X              Y              Z
 ---- ---------------- ---------- -------------- -------------- --------------
    1 C                    6.0000     0.00000000     0.00000000     0.00000000

      Atomic Mass 
      ----------- 

      C                 12.000000


 Effective nuclear repulsion energy (a.u.)       0.0000000000

            Nuclear Dipole moment (a.u.) 
            ----------------------------
        X                 Y               Z
 ---------------- ---------------- ----------------
     0.0000000000     0.0000000000     0.0000000000


            XYZ format geometry
            -------------------
     1
 geometry
 C                     0.00000000     0.00000000     0.00000000



 Summary of "ao basis" -> "" (cartesian)
 ------------------------------------------------------------------------------
       Tag                 Description            Shells   Functions and Types
 ---------------- ------------------------------  ------  ---------------------
 *                           6-31G                    on all atoms 



                                 NWChem DFT Module
                                 -----------------


                                      carbon


                      Basis "ao basis" -> "ao basis" (cartesian)
                      -----
  C (Carbon)
  ----------
            Exponent  Coefficients 
       -------------- ---------------------------------------------------------
  1 S  3.04752490E+03  0.001835
  1 S  4.57369510E+02  0.014037
  1 S  1.03948690E+02  0.068843
  1 S  2.92101550E+01  0.232184
  1 S  9.28666300E+00  0.467941
  1 S  3.16392700E+00  0.362312

  2 S  7.86827240E+00 -0.119332
  2 S  1.88128850E+00 -0.160854
  2 S  5.44249300E-01  1.143456

  3 P  7.86827240E+00  0.068999
  3 P  1.88128850E+00  0.316424
  3 P  5.44249300E-01  0.744308

  4 S  1.68714400E-01  1.000000

  5 P  1.68714400E-01  1.000000



 Summary of "ao basis" -> "ao basis" (cartesian)
 ------------------------------------------------------------------------------
       Tag                 Description            Shells   Functions and Types
 ---------------- ------------------------------  ------  ---------------------
 C                           6-31G                   5        9   3s2p




 Summary of "ao basis" -> "ao basis" (cartesian)
 ------------------------------------------------------------------------------
       Tag                 Description            Shells   Functions and Types
 ---------------- ------------------------------  ------  ---------------------
 C                           6-31G                   5        9   3s2p


  Caching 1-el integrals 
  itol2e modified to match energy
  convergence criterion.
  tol_rho modified to match energy
  convergence criterion.

            General Information
            -------------------
          SCF calculation type: DFT
          Wavefunction type:  closed shell.
          No. of atoms     :     1
          No. of electrons :     6
           Alpha electrons :     3
            Beta electrons :     3
          Charge           :     0
          Spin multiplicity:     1
          Use of symmetry is: off; symmetry adaption is: off
          Maximum number of iterations:  30
          This is a Direct SCF calculation.
          AO basis - number of functions:     9
                     number of shells:     5
          Convergence on energy requested:  1.00D-08
          Convergence on density requested:  1.00D-05
          Convergence on gradient requested:  5.00D-04

              XC Information
              --------------
                         PBE0 Method XC Functional
                     Hartree-Fock (Exact) Exchange  0.250          
          PerdewBurkeErnzerhof Exchange Functional  0.750          
            Perdew 1991 LDA Correlation Functional  1.000 local    
           PerdewBurkeErnz. Correlation Functional  1.000 non-local

             Grid Information
             ----------------
          Grid used for XC integration:  xfine     
          Radial quadrature: Mura-Knowles        
          Angular quadrature: Lebedev. 
          Tag              B.-S. Rad. Rad. Pts. Rad. Cut. Ang. Pts.
          ---              ---------- --------- --------- ---------
          C                   0.70      100           5.0      1454
          Grid pruning is: on 
          Number of quadrature shells:   100
          Spatial weights used:  Erf1

          Convergence Information
          -----------------------
          Convergence aids based upon iterative change in 
          total energy or number of iterations. 
          Levelshifting, if invoked, occurs when the 
          HOMO/LUMO gap drops below (HL_TOL):  1.00D-02
          DIIS, if invoked, will attempt to extrapolate 
          using up to (NFOCK): 10 stored Fock matrices.

                    Damping( 0%)  Levelshifting(0.5)       DIIS
                  --------------- ------------------- ---------------
          dE  on:    start            ASAP                start   
          dE off:    2 iters         30 iters            30 iters 


      Screening Tolerance Information
      -------------------------------
          Density screening/tol_rho:  1.00D-11
          AO Gaussian exp screening on grid/accAOfunc:  18
          CD Gaussian exp screening on grid/accCDfunc:  20
          XC Gaussian exp screening on grid/accXCfunc:  20
          Schwarz screening/accCoul:  1.00D-09


      Superposition of Atomic Density Guess
      -------------------------------------

 Sum of atomic energies:         -37.66025415

      Non-variational initial energy
      ------------------------------

 Total energy =     -37.298070
 1-e energy   =     -50.455020
 2-e energy   =      13.156950
 HOMO         =      -0.057689
 LUMO         =      -0.057689

   Time after variat. SCF:      0.0
     FON applied
     tr(P*S):    58.000000E-01
   Time prior to 1st pass:      0.0
     FON applied
     tr(P*S):    0.5800000E+01

 Grid_pts file          = ./carbon_fon.gridpts.0
 Record size in doubles =  12289        No. of grid_pts per rec  =   3070
 Max. records in memory =     15        Max. recs in file   =    861922


           Memory utilization after 1st SCF pass: 
           Heap Space remaining (MW):       86.06            86061754
          Stack Space remaining (MW):       86.25            86246988

   convergence    iter        energy       DeltaE   RMS-Dens  Diis-err    time
 ---------------- ----- ----------------- --------- --------- ---------  ------
 d= 0,ls=0.0,diis     1    -37.6025154470 -3.76D+01  3.57D-02  5.00D-02     0.1
     FON applied
     tr(P*S):    0.5800000E+01
 d= 0,ls=0.5,diis     2    -37.6195751423 -1.71D-02  9.81D-03  1.05D-02     0.1
     FON applied
     tr(P*S):    0.5800000E+01
 d= 0,ls=0.5,diis     3    -37.6228827617 -3.31D-03  2.16D-03  5.88D-04     0.1
     FON applied
     tr(P*S):    0.5800000E+01
 d= 0,ls=0.5,diis     4    -37.6230325239 -1.50D-04  1.01D-03  1.06D-04     0.1
     FON applied
     tr(P*S):    0.5800000E+01
 d= 0,ls=0.5,diis     5    -37.6230647162 -3.22D-05  3.05D-04  1.01D-05     0.2
     FON applied
     tr(P*S):    0.5800000E+01
  Resetting Diis
 d= 0,ls=0.5,diis     6    -37.6230687060 -3.99D-06  1.05D-04  1.30D-06     0.2
     FON applied
     tr(P*S):    0.5800000E+01
 d= 0,ls=0.5,diis     7    -37.6230693098 -6.04D-07  4.94D-05  1.74D-07     0.2
     FON applied
     tr(P*S):    0.5800000E+01
 d= 0,ls=0.5,diis     8    -37.6230694064 -9.66D-08  1.57D-05  1.33D-08     0.2
     FON applied
     tr(P*S):    0.5800000E+01
 d= 0,ls=0.5,diis     9    -37.6230694193 -1.28D-08  5.28D-06  2.47D-09     0.2
     FON applied
     tr(P*S):    0.5800000E+01
 d= 0,ls=0.5,diis    10    -37.6230694214 -2.16D-09  2.17D-06  3.53D-10     0.2
     FON applied
     tr(P*S):    0.5800000E+01


         Total DFT energy =      -37.623069421743
      One electron energy =      -49.815211977342
           Coulomb energy =       17.150423353103
    Exchange-Corr. energy =       -4.958280797505
 Nuclear repulsion energy =        0.000000000000

 Numeric. integr. density =        5.800000001164

     Total iterative time =      0.2s



                       DFT Final Molecular Orbital Analysis
                       ------------------------------------

 Vector    1  Occ=2.000000D+00  E=-1.048676D+01
              MO Center= -4.3D-19,  4.9D-18, -1.1D-17, r^2= 2.8D-02
   Bfn.  Coefficient  Atom+Function         Bfn.  Coefficient  Atom+Function  
  ----- ------------  ---------------      ----- ------------  ---------------
     1      0.995426  1 C  s                  2      0.027493  1 C  s          

 Vector    2  Occ=2.000000D+00  E=-6.461713D-01
              MO Center=  5.8D-18, -1.4D-16,  5.8D-17, r^2= 8.0D-01
   Bfn.  Coefficient  Atom+Function         Bfn.  Coefficient  Atom+Function  
  ----- ------------  ---------------      ----- ------------  ---------------
     6      0.566775  1 C  s                  2      0.507571  1 C  s          
     1     -0.232493  1 C  s          

 Vector    3  Occ=6.000000D-01  E=-2.397767D-01
              MO Center=  1.9D-16, -1.6D-16,  1.1D-16, r^2= 1.0D+00
   Bfn.  Coefficient  Atom+Function         Bfn.  Coefficient  Atom+Function  
  ----- ------------  ---------------      ----- ------------  ---------------
     3      0.446868  1 C  px                 4     -0.376286  1 C  py         
     7      0.340985  1 C  px                 8     -0.287127  1 C  py         
     5      0.258046  1 C  pz                 9      0.196904  1 C  pz         

 Vector    4  Occ=6.000000D-01  E=-2.397767D-01
              MO Center=  6.2D-17,  9.0D-17,  2.4D-17, r^2= 1.0D+00
   Bfn.  Coefficient  Atom+Function         Bfn.  Coefficient  Atom+Function  
  ----- ------------  ---------------      ----- ------------  ---------------
     4      0.513682  1 C  py                 8      0.391987  1 C  py         
     3      0.354691  1 C  px                 7      0.270662  1 C  px         
     5      0.134826  1 C  pz                 9      0.102885  1 C  pz         

 Vector    5  Occ=6.000000D-01  E=-2.397767D-01
              MO Center=  5.7D-17, -9.7D-18, -1.1D-16, r^2= 1.0D+00
   Bfn.  Coefficient  Atom+Function         Bfn.  Coefficient  Atom+Function  
  ----- ------------  ---------------      ----- ------------  ---------------
     5      0.568410  1 C  pz                 9      0.433750  1 C  pz         
     3     -0.286993  1 C  px                 7     -0.219002  1 C  px         
     4      0.048974  1 C  py                 8      0.037372  1 C  py         

 Vector    6  Occ=0.000000D+00  E= 4.798802D-01
              MO Center= -4.1D-16, -7.2D-16, -3.3D-16, r^2= 1.9D+00
   Bfn.  Coefficient  Atom+Function         Bfn.  Coefficient  Atom+Function  
  ----- ------------  ---------------      ----- ------------  ---------------
     8     -0.897623  1 C  py                 4      0.833855  1 C  py         
     7     -0.519429  1 C  px                 3      0.482528  1 C  px         
     9     -0.409410  1 C  pz                 5      0.380325  1 C  pz         

 Vector    7  Occ=0.000000D+00  E= 4.798802D-01
              MO Center=  1.1D-15,  1.4D-16, -1.8D-15, r^2= 1.9D+00
   Bfn.  Coefficient  Atom+Function         Bfn.  Coefficient  Atom+Function  
  ----- ------------  ---------------      ----- ------------  ---------------
     9     -0.934119  1 C  pz                 5      0.867758  1 C  pz         
     7      0.603908  1 C  px                 3     -0.561005  1 C  px         
     8      0.076592  1 C  py                 4     -0.071151  1 C  py         

 Vector    8  Occ=0.000000D+00  E= 4.798802D-01
              MO Center= -8.0D-16,  6.8D-16, -4.6D-16, r^2= 1.9D+00
   Bfn.  Coefficient  Atom+Function         Bfn.  Coefficient  Atom+Function  
  ----- ------------  ---------------      ----- ------------  ---------------
     7     -0.780158  1 C  px                 3      0.724725  1 C  px         
     8      0.656933  1 C  py                 4     -0.610256  1 C  py         
     9     -0.450507  1 C  pz                 5      0.418497  1 C  pz         

 Vector    9  Occ=0.000000D+00  E= 5.320112D-01
              MO Center= -2.8D-17, -2.8D-16,  2.6D-15, r^2= 1.8D+00
   Bfn.  Coefficient  Atom+Function         Bfn.  Coefficient  Atom+Function  
  ----- ------------  ---------------      ----- ------------  ---------------
     2      1.650653  1 C  s                  6     -1.618143  1 C  s          
     1     -0.074894  1 C  s          


 Task  times  cpu:        0.2s     wall:        0.2s


                                NWChem Input Module
                                -------------------



                                 NWChem DFT Module
                                 -----------------


                                      carbon




 Summary of "ao basis" -> "ao basis" (cartesian)
 ------------------------------------------------------------------------------
       Tag                 Description            Shells   Functions and Types
 ---------------- ------------------------------  ------  ---------------------
 C                           6-31G                   5        9   3s2p


  Caching 1-el integrals 

            General Information
            -------------------
          SCF calculation type: DFT
          Wavefunction type:  spin polarized.
          No. of atoms     :     1
          No. of electrons :     6
           Alpha electrons :     3
            Beta electrons :     3
          Charge           :     0
          Spin multiplicity:     1
          Use of symmetry is: off; symmetry adaption is: off
          Maximum number of iterations:  30
          This is a Direct SCF calculation.
          AO basis - number of functions:     9
                     number of shells:     5
          Convergence on energy requested:  1.00D-08
          Convergence on density requested:  1.00D-05
          Convergence on gradient requested:  5.00D-04

              XC Information
              --------------
                         PBE0 Method XC Functional
                     Hartree-Fock (Exact) Exchange  0.250          
          PerdewBurkeErnzerhof Exchange Functional  0.750          
            Perdew 1991 LDA Correlation Functional  1.000 local    
           PerdewBurkeErnz. Correlation Functional  1.000 non-local

             Grid Information
             ----------------
          Grid used for XC integration:  xfine     
          Radial quadrature: Mura-Knowles        
          Angular quadrature: Lebedev. 
          Tag              B.-S. Rad. Rad. Pts. Rad. Cut. Ang. Pts.
          ---              ---------- --------- --------- ---------
          C                   0.70      100           5.0      1454
          Grid pruning is: on 
          Number of quadrature shells:   100
          Spatial weights used:  Erf1

          Convergence Information
          -----------------------
          Convergence aids based upon iterative change in 
          total energy or number of iterations. 
          Levelshifting, if invoked, occurs when the 
          HOMO/LUMO gap drops below (HL_TOL):  1.00D-02
          DIIS, if invoked, will attempt to extrapolate 
          using up to (NFOCK): 10 stored Fock matrices.

                    Damping( 0%)  Levelshifting(0.5)       DIIS
                  --------------- ------------------- ---------------
          dE  on:    start            ASAP                start   
          dE off:    2 iters         30 iters            30 iters 


      Screening Tolerance Information
      -------------------------------
          Density screening/tol_rho:  1.00D-11
          AO Gaussian exp screening on grid/accAOfunc:  18
          CD Gaussian exp screening on grid/accCDfunc:  20
          XC Gaussian exp screening on grid/accXCfunc:  20
          Schwarz screening/accCoul:  1.00D-09

  movecs_read: failing reading from ./carbon_fon.movecs
   Duplicating RHF/ROHF vectors for UHF

 Loading old vectors from job with title :

carbon

   Time after variat. SCF:      0.3
     FON applied
     tr(P*S):    29.000000E-01
   Time prior to 1st pass:      0.3
     FON applied
     tr(P*S):    0.5800000E+01

 Grid_pts file          = ./carbon_fon.gridpts.0
 Record size in doubles =  12289        No. of grid_pts per rec  =   3070
 Max. records in memory =     15        Max. recs in file   =    861912


           Memory utilization after 1st SCF pass: 
           Heap Space remaining (MW):       86.06            86061730
          Stack Space remaining (MW):       86.25            86246964

   convergence    iter        energy       DeltaE   RMS-Dens  Diis-err    time
 ---------------- ----- ----------------- --------- --------- ---------  ------
 d= 0,ls=0.5,diis     1    -37.6230694217 -3.76D+01  4.50D-07  1.56D-11     0.3
                                                     4.50D-07  1.56D-11
     FON applied
     tr(P*S):    0.5800000E+01
 d= 0,ls=0.5,diis     2    -37.6230694218 -5.62D-11  2.28D-07  2.92D-12     0.4
                                                     2.28D-07  2.92D-12
     FON applied
     tr(P*S):    0.5800000E+01


         Total DFT energy =      -37.623069421809
      One electron energy =      -49.815200462261
           Coulomb energy =       17.150410025392
    Exchange-Corr. energy =       -4.958278984940
 Nuclear repulsion energy =        0.000000000000

 Numeric. integr. density =        5.800000001164

     Total iterative time =      0.3s



                    DFT Final Alpha Molecular Orbital Analysis
                    ------------------------------------------

 Vector    1  Occ=1.000000D+00  E=-1.048676D+01
              MO Center= -1.6D-21, -4.2D-19, -9.7D-19, r^2= 2.8D-02
   Bfn.  Coefficient  Atom+Function         Bfn.  Coefficient  Atom+Function  
  ----- ------------  ---------------      ----- ------------  ---------------
     1      0.995426  1 C  s                  2      0.027493  1 C  s          

 Vector    2  Occ=1.000000D+00  E=-6.461716D-01
              MO Center=  3.7D-17, -5.3D-17,  6.1D-17, r^2= 8.0D-01
   Bfn.  Coefficient  Atom+Function         Bfn.  Coefficient  Atom+Function  
  ----- ------------  ---------------      ----- ------------  ---------------
     6      0.566774  1 C  s                  2      0.507571  1 C  s          
     1     -0.232493  1 C  s          

 Vector    3  Occ=3.000000D-01  E=-2.397771D-01
              MO Center=  1.8D-17, -1.5D-17,  1.0D-17, r^2= 1.0D+00
   Bfn.  Coefficient  Atom+Function         Bfn.  Coefficient  Atom+Function  
  ----- ------------  ---------------      ----- ------------  ---------------
     3      0.446860  1 C  px                 4     -0.376280  1 C  py         
     7      0.340993  1 C  px                 8     -0.287134  1 C  py         
     5      0.258042  1 C  pz                 9      0.196908  1 C  pz         

 Vector    4  Occ=3.000000D-01  E=-2.397770D-01
              MO Center=  2.4D-17,  7.2D-18, -3.1D-17, r^2= 1.0D+00
   Bfn.  Coefficient  Atom+Function         Bfn.  Coefficient  Atom+Function  
  ----- ------------  ---------------      ----- ------------  ---------------
     5      0.497114  1 C  pz                 3     -0.384021  1 C  px         
     9      0.379344  1 C  pz                 7     -0.293044  1 C  px         
     4     -0.115147  1 C  py                 8     -0.087868  1 C  py         

 Vector    5  Occ=3.000000D-01  E=-2.397770D-01
              MO Center= -5.1D-17, -1.0D-16, -6.3D-17, r^2= 1.0D+00
   Bfn.  Coefficient  Atom+Function         Bfn.  Coefficient  Atom+Function  
  ----- ------------  ---------------      ----- ------------  ---------------
     4      0.503000  1 C  py                 8      0.383836  1 C  py         
     5      0.306832  1 C  pz                 3      0.246370  1 C  px         
     9      0.234141  1 C  pz                 7      0.188003  1 C  px         

 Vector    6  Occ=0.000000D+00  E= 4.798799D-01
              MO Center=  3.6D-17, -3.0D-17,  2.1D-17, r^2= 1.9D+00
   Bfn.  Coefficient  Atom+Function         Bfn.  Coefficient  Atom+Function  
  ----- ------------  ---------------      ----- ------------  ---------------
     7     -0.780154  1 C  px                 3      0.724729  1 C  px         
     8      0.656931  1 C  py                 4     -0.610260  1 C  py         
     9     -0.450504  1 C  pz                 5      0.418499  1 C  pz         

 Vector    7  Occ=0.000000D+00  E= 4.798799D-01
              MO Center=  1.0D-15,  1.2D-15, -3.3D-17, r^2= 1.9D+00
   Bfn.  Coefficient  Atom+Function         Bfn.  Coefficient  Atom+Function  
  ----- ------------  ---------------      ----- ------------  ---------------
     8     -0.845968  1 C  py                 4      0.785869  1 C  py         
     7     -0.725904  1 C  px                 3      0.674335  1 C  px         

 Vector    8  Occ=0.000000D+00  E= 4.798799D-01
              MO Center= -5.5D-16,  5.2D-16,  1.7D-15, r^2= 1.9D+00
   Bfn.  Coefficient  Atom+Function         Bfn.  Coefficient  Atom+Function  
  ----- ------------  ---------------      ----- ------------  ---------------
     9     -1.019630  1 C  pz                 5      0.947194  1 C  pz         
     7      0.327984  1 C  px                 8     -0.309727  1 C  py         
     3     -0.304684  1 C  px                 4      0.287724  1 C  py         

 Vector    9  Occ=0.000000D+00  E= 5.320109D-01
              MO Center= -3.6D-16, -1.7D-15, -1.6D-15, r^2= 1.8D+00
   Bfn.  Coefficient  Atom+Function         Bfn.  Coefficient  Atom+Function  
  ----- ------------  ---------------      ----- ------------  ---------------
     2      1.650653  1 C  s                  6     -1.618144  1 C  s          
     1     -0.074894  1 C  s          


                     DFT Final Beta Molecular Orbital Analysis
                     -----------------------------------------

 Vector    1  Occ=1.000000D+00  E=-1.048676D+01
              MO Center= -6.1D-20, -2.8D-19, -9.1D-19, r^2= 2.8D-02
   Bfn.  Coefficient  Atom+Function         Bfn.  Coefficient  Atom+Function  
  ----- ------------  ---------------      ----- ------------  ---------------
     1      0.995426  1 C  s                  2      0.027493  1 C  s          

 Vector    2  Occ=1.000000D+00  E=-6.461716D-01
              MO Center=  3.1D-16, -2.8D-16,  2.2D-16, r^2= 8.0D-01
   Bfn.  Coefficient  Atom+Function         Bfn.  Coefficient  Atom+Function  
  ----- ------------  ---------------      ----- ------------  ---------------
     6      0.566774  1 C  s                  2      0.507571  1 C  s          
     1     -0.232493  1 C  s          

 Vector    3  Occ=3.000000D-01  E=-2.397771D-01
              MO Center=  2.1D-17, -1.7D-17,  1.2D-17, r^2= 1.0D+00
   Bfn.  Coefficient  Atom+Function         Bfn.  Coefficient  Atom+Function  
  ----- ------------  ---------------      ----- ------------  ---------------
     3      0.446860  1 C  px                 4     -0.376280  1 C  py         
     7      0.340993  1 C  px                 8     -0.287134  1 C  py         
     5      0.258042  1 C  pz                 9      0.196908  1 C  pz         

 Vector    4  Occ=3.000000D-01  E=-2.397770D-01
              MO Center=  1.4D-17,  8.3D-18, -1.2D-17, r^2= 1.0D+00
   Bfn.  Coefficient  Atom+Function         Bfn.  Coefficient  Atom+Function  
  ----- ------------  ---------------      ----- ------------  ---------------
     3      0.440563  1 C  px                 5     -0.380984  1 C  pz         
     7      0.336190  1 C  px                 9     -0.290726  1 C  pz         
     4      0.261933  1 C  py                 8      0.199879  1 C  py         

 Vector    5  Occ=3.000000D-01  E=-2.397770D-01
              MO Center= -2.3D-17, -8.6D-17, -8.6D-17, r^2= 1.0D+00
   Bfn.  Coefficient  Atom+Function         Bfn.  Coefficient  Atom+Function  
  ----- ------------  ---------------      ----- ------------  ---------------
     4      0.444589  1 C  py                 5      0.442854  1 C  pz         
     8      0.339262  1 C  py                 9      0.337938  1 C  pz         
     3      0.118638  1 C  px                 7      0.090532  1 C  px         

 Vector    6  Occ=0.000000D+00  E= 4.798799D-01
              MO Center=  1.2D-15, -9.8D-16,  6.7D-16, r^2= 1.9D+00
   Bfn.  Coefficient  Atom+Function         Bfn.  Coefficient  Atom+Function  
  ----- ------------  ---------------      ----- ------------  ---------------
     7     -0.780154  1 C  px                 3      0.724729  1 C  px         
     8      0.656931  1 C  py                 4     -0.610260  1 C  py         
     9     -0.450504  1 C  pz                 5      0.418499  1 C  pz         

 Vector    7  Occ=0.000000D+00  E= 4.798799D-01
              MO Center=  3.5D-16,  3.3D-16, -1.3D-16, r^2= 1.9D+00
   Bfn.  Coefficient  Atom+Function         Bfn.  Coefficient  Atom+Function  
  ----- ------------  ---------------      ----- ------------  ---------------
     7     -0.786770  1 C  px                 3      0.730876  1 C  px         
     8     -0.734059  1 C  py                 4      0.681911  1 C  py         
     9      0.292063  1 C  pz                 5     -0.271314  1 C  pz         

 Vector    8  Occ=0.000000D+00  E= 4.798799D-01
              MO Center= -2.4D-16,  1.0D-15,  1.9D-15, r^2= 1.9D+00
   Bfn.  Coefficient  Atom+Function         Bfn.  Coefficient  Atom+Function  
  ----- ------------  ---------------      ----- ------------  ---------------
     9     -0.977188  1 C  pz                 5      0.907767  1 C  pz         
     8     -0.522255  1 C  py                 4      0.485153  1 C  py         
     7      0.124517  1 C  px                 3     -0.115671  1 C  px         

 Vector    9  Occ=0.000000D+00  E= 5.320109D-01
              MO Center= -1.1D-15, -3.8D-16, -2.3D-15, r^2= 1.8D+00
   Bfn.  Coefficient  Atom+Function         Bfn.  Coefficient  Atom+Function  
  ----- ------------  ---------------      ----- ------------  ---------------
     2      1.650653  1 C  s                  6     -1.618144  1 C  s          
     1     -0.074894  1 C  s          


   alpha - beta orbital overlaps 
   ----------------------------- 


   alpha      1      2      3      4      5      6      7      8      9
    beta      1      2      3      4      5      6      7      8      9
 overlap   1.000  1.000  1.000  0.953  0.953  1.000  0.964  0.964  1.000

     --------------------------
     Expectation value of S2:  
     --------------------------
      <S2> =      0.7300 (Exact =     0.0000)


 Task  times  cpu:        0.3s     wall:        0.3s


                                NWChem Input Module
                                -------------------



                                 NWChem DFT Module
                                 -----------------


                                      carbon




 Summary of "ao basis" -> "ao basis" (cartesian)
 ------------------------------------------------------------------------------
       Tag                 Description            Shells   Functions and Types
 ---------------- ------------------------------  ------  ---------------------
 C                           6-31G                   5        9   3s2p


                                  Spin-Orbit DFT
                                  --------------


  Caching 1-el integrals 

            General Information
            -------------------
          SCF calculation type: DFT
          Wavefunction type:  spin polarized.
          No. of atoms     :     1
          No. of electrons :     6
           Alpha electrons :     3
            Beta electrons :     3
          Charge           :     0
          Spin multiplicity:     1
          Use of symmetry is: off; symmetry adaption is: off
          Maximum number of iterations:  30
          This is a Direct SCF calculation.
          AO basis - number of functions:     9
                     number of shells:     5
          Convergence on energy requested:  1.00D-08
          Convergence on density requested:  1.00D-05
          Convergence on gradient requested:  5.00D-04

              XC Information
              --------------
                         PBE0 Method XC Functional
                     Hartree-Fock (Exact) Exchange  0.250          
          PerdewBurkeErnzerhof Exchange Functional  0.750          
            Perdew 1991 LDA Correlation Functional  1.000 local    
           PerdewBurkeErnz. Correlation Functional  1.000 non-local

             Grid Information
             ----------------
          Grid used for XC integration:  xfine     
          Radial quadrature: Mura-Knowles        
          Angular quadrature: Lebedev. 
          Tag              B.-S. Rad. Rad. Pts. Rad. Cut. Ang. Pts.
          ---              ---------- --------- --------- ---------
          C                   0.70      100           5.0      1454
          Grid pruning is: on 
          Number of quadrature shells:   100
          Spatial weights used:  Erf1

          Convergence Information
          -----------------------
          Convergence aids based upon iterative change in 
          total energy or number of iterations. 
          Levelshifting, if invoked, occurs when the 
          HOMO/LUMO gap drops below (HL_TOL):  1.00D-02
          DIIS, if invoked, will attempt to extrapolate 
          using up to (NFOCK): 10 stored Fock matrices.

                    Damping( 0%)  Levelshifting(0.5)       DIIS
                  --------------- ------------------- ---------------
          dE  on:    start            ASAP                start   
          dE off:    2 iters         30 iters            30 iters 


      Screening Tolerance Information
      -------------------------------
          Density screening/tol_rho:  1.00D-11
          AO Gaussian exp screening on grid/accAOfunc:  18
          CD Gaussian exp screening on grid/accCDfunc:  20
          XC Gaussian exp screening on grid/accXCfunc:  20
          Schwarz screening/accCoul:  1.00D-09

 Performing spin-orbit DFT (SO-DFT) calculations
 -----------------------------------------------


 Loading old vectors from job with title :

carbon

  frac. electrons    5.7999999999999989       vs                     6
     tr(P*S):    0.5800000E+01
   Time prior to 1st pass:      0.7

 Grid_pts file          = ./carbon_fon.gridpts.0
 Record size in doubles =  12289        No. of grid_pts per rec  =   3070
 Max. records in memory =     15        Max. recs in file   =    861912

     tr(P*S):    0.5800000E+01

           Memory utilization after 1st SCF pass: 
           Heap Space remaining (MW):       86.06            86061786
          Stack Space remaining (MW):       86.25            86246100

   convergence    iter        energy       DeltaE   RMS-Dens  Diis-err    time
 ---------------- ----- ----------------- --------- --------- ---------  ------
 d= 0,ls=0.5,diis     1    -37.6230694218 -3.76D+01  7.88D-08  1.00D-12     0.8
                                                     7.88D-08  1.00D-12
     tr(P*S):    0.5800000E+01
 d= 0,ls=0.5,diis     2    -37.6230694218 -1.83D-12  3.87D-08  1.86D-13     1.0
                                                     3.87D-08  1.86D-13


      Total SO-DFT energy =      -37.623069421811
      One electron energy =      -49.815198272844
           Coulomb energy =       17.150407500308
    Exchange-Corr. energy =       -4.958278649275
 Nuclear repulsion energy =        0.000000000000

 Numeric. integr. density =        5.800000001164

     Total iterative time =      0.5s



                       DFT Final Molecular Orbital Analysis
                       ------------------------------------

 Vector    1  Occ=1.000000D+00  E=-1.048676D+01
              MO Center= -9.5D-19, -4.3D-20, -7.6D-19, r^2= 2.8D-02
  Bfn.         Coefficient        Function           Bfn.         Coefficient        Function  
  ----     -------------------  ------------         ----     -------------------  ------------
     1    -0.995426   0.000000  1 C  s                  2    -0.027493   0.000000  1 C  s          

 Vector    2  Occ=1.000000D+00  E=-1.048676D+01
              MO Center=  0.0D+00,  0.0D+00,  0.0D+00, r^2= 0.0D+00
  Bfn.         Coefficient        Function           Bfn.         Coefficient        Function  
  ----     -------------------  ------------         ----     -------------------  ------------
    10    -0.995426   0.000000  1 C  s                 11    -0.027493   0.000000  1 C  s          

 Vector    3  Occ=1.000000D+00  E=-6.461714D-01
              MO Center=  2.2D-17, -5.6D-17,  2.0D-18, r^2= 8.0D-01
  Bfn.         Coefficient        Function           Bfn.         Coefficient        Function  
  ----     -------------------  ------------         ----     -------------------  ------------
     6    -0.566774   0.000000  1 C  s                  2    -0.507572   0.000000  1 C  s          
     1     0.232493   0.000000  1 C  s          

 Vector    4  Occ=1.000000D+00  E=-6.461714D-01
              MO Center=  0.0D+00,  0.0D+00,  0.0D+00, r^2= 0.0D+00
  Bfn.         Coefficient        Function           Bfn.         Coefficient        Function  
  ----     -------------------  ------------         ----     -------------------  ------------
    15     0.566774   0.000000  1 C  s                 11     0.507572   0.000000  1 C  s          
    10    -0.232493   0.000000  1 C  s          

 Vector    5  Occ=3.000000D-01  E=-2.397768D-01
              MO Center=  0.0D+00,  0.0D+00,  0.0D+00, r^2= 0.0D+00
  Bfn.         Coefficient        Function           Bfn.         Coefficient        Function  
  ----     -------------------  ------------         ----     -------------------  ------------
    12    -0.446859   0.000000  1 C  px                13     0.376279   0.000000  1 C  py         
    16    -0.340994   0.000000  1 C  px                17     0.287135   0.000000  1 C  py         
    14    -0.258041   0.000000  1 C  pz                18    -0.196909   0.000000  1 C  pz         

 Vector    6  Occ=3.000000D-01  E=-2.397768D-01
              MO Center=  1.6D-17, -1.4D-17,  9.5D-18, r^2= 1.0D+00
  Bfn.         Coefficient        Function           Bfn.         Coefficient        Function  
  ----     -------------------  ------------         ----     -------------------  ------------
     3    -0.446859   0.000000  1 C  px                 4     0.376279   0.000000  1 C  py         
     7    -0.340994   0.000000  1 C  px                 8     0.287135   0.000000  1 C  py         
     5    -0.258041   0.000000  1 C  pz                 9    -0.196909   0.000000  1 C  pz         

 Vector    7  Occ=3.000000D-01  E=-2.397768D-01
              MO Center=  0.0D+00,  0.0D+00,  0.0D+00, r^2= 0.0D+00
  Bfn.         Coefficient        Function           Bfn.         Coefficient        Function  
  ----     -------------------  ------------         ----     -------------------  ------------
    12     0.436295   0.000000  1 C  px                14    -0.395756   0.000000  1 C  pz         
    16     0.332933   0.000000  1 C  px                18    -0.301998   0.000000  1 C  pz         
    13     0.246734   0.000000  1 C  py                17     0.188281   0.000000  1 C  py         

 Vector    8  Occ=3.000000D-01  E=-2.397768D-01
              MO Center=  1.3D-17,  1.0D-17, -8.1D-18, r^2= 1.0D+00
  Bfn.         Coefficient        Function           Bfn.         Coefficient        Function  
  ----     -------------------  ------------         ----     -------------------  ------------
     3    -0.455865   0.000000  1 C  px                 4    -0.353239   0.000000  1 C  py         
     7    -0.347867   0.000000  1 C  px                 5     0.274340   0.000000  1 C  pz         
     8    -0.269554   0.000000  1 C  py                 9     0.209347   0.000000  1 C  pz         

 Vector    9  Occ=3.000000D-01  E=-2.397768D-01
              MO Center=  0.0D+00,  0.0D+00,  0.0D+00, r^2= 0.0D+00
  Bfn.         Coefficient        Function           Bfn.         Coefficient        Function  
  ----     -------------------  ------------         ----     -------------------  ------------
    13     0.453200   0.000000  1 C  py                14     0.429704   0.000000  1 C  pz         
    17     0.345834   0.000000  1 C  py                18     0.327904   0.000000  1 C  pz         
    12     0.133483   0.000000  1 C  px                16     0.101860   0.000000  1 C  px         

 Vector   10  Occ=3.000000D-01  E=-2.397768D-01
              MO Center=  8.3D-19,  1.6D-17,  2.3D-17, r^2= 1.0D+00
  Bfn.         Coefficient        Function           Bfn.         Coefficient        Function  
  ----     -------------------  ------------         ----     -------------------  ------------
     5    -0.515758   0.000000  1 C  pz                 9    -0.393571   0.000000  1 C  pz         
     4    -0.376151   0.000000  1 C  py                 8    -0.287038   0.000000  1 C  py         

 Vector   11  Occ=0.000000D+00  E= 9.798801D-01
              MO Center= -2.3D-15,  2.0D-15, -1.3D-15, r^2= 1.9D+00
  Bfn.         Coefficient        Function           Bfn.         Coefficient        Function  
  ----     -------------------  ------------         ----     -------------------  ------------
     7    -0.780153   0.000000  1 C  px                 3     0.724730   0.000000  1 C  px         
     8     0.656930   0.000000  1 C  py                 4    -0.610261   0.000000  1 C  py         
     9    -0.450504   0.000000  1 C  pz                 5     0.418499   0.000000  1 C  pz         

 Vector   12  Occ=0.000000D+00  E= 9.798801D-01
              MO Center=  0.0D+00,  0.0D+00,  0.0D+00, r^2= 0.0D+00
  Bfn.         Coefficient        Function           Bfn.         Coefficient        Function  
  ----     -------------------  ------------         ----     -------------------  ------------
    16     0.780153   0.000000  1 C  px                12    -0.724730   0.000000  1 C  px         
    17    -0.656930   0.000000  1 C  py                13     0.610261   0.000000  1 C  py         
    18     0.450504   0.000000  1 C  pz                14    -0.418499   0.000000  1 C  pz         

 Vector   13  Occ=0.000000D+00  E= 9.798801D-01
              MO Center=  4.4D-16,  4.3D-16, -1.4D-16, r^2= 1.9D+00
  Bfn.         Coefficient        Function           Bfn.         Coefficient        Function  
  ----     -------------------  ------------         ----     -------------------  ------------
     7     0.779531   0.000000  1 C  px                 8     0.759338   0.000000  1 C  py         
     3    -0.724152   0.000000  1 C  px                 4    -0.705394   0.000000  1 C  py         
     9    -0.242666   0.000000  1 C  pz                 5     0.225427   0.000000  1 C  pz         

 Vector   14  Occ=0.000000D+00  E= 9.798801D-01
              MO Center=  0.0D+00,  0.0D+00,  0.0D+00, r^2= 0.0D+00
  Bfn.         Coefficient        Function           Bfn.         Coefficient        Function  
  ----     -------------------  ------------         ----     -------------------  ------------
    17     0.833486   0.000000  1 C  py                13    -0.774274   0.000000  1 C  py         
    18     0.670371   0.000000  1 C  pz                14    -0.622746   0.000000  1 C  pz         
    16     0.314730   0.000000  1 C  px                12    -0.292371   0.000000  1 C  px         

 Vector   15  Occ=0.000000D+00  E= 9.798801D-01
              MO Center=  0.0D+00,  0.0D+00,  0.0D+00, r^2= 0.0D+00
  Bfn.         Coefficient        Function           Bfn.         Coefficient        Function  
  ----     -------------------  ------------         ----     -------------------  ------------
    18    -0.768635   0.000000  1 C  pz                16     0.731749   0.000000  1 C  px         
    14     0.714030   0.000000  1 C  pz                12    -0.679764   0.000000  1 C  px         
    17     0.341898   0.000000  1 C  py                13    -0.317609   0.000000  1 C  py         

 Vector   16  Occ=0.000000D+00  E= 9.798801D-01
              MO Center=  2.7D-17, -8.1D-17, -1.7D-16, r^2= 1.9D+00
  Bfn.         Coefficient        Function           Bfn.         Coefficient        Function  
  ----     -------------------  ------------         ----     -------------------  ------------
     9     0.990611   0.000000  1 C  pz                 5    -0.920236   0.000000  1 C  pz         
     8     0.484767   0.000000  1 C  py                 4    -0.450328   0.000000  1 C  py         
     7    -0.163835   0.000000  1 C  px                 3     0.152196   0.000000  1 C  px         

 Vector   17  Occ=0.000000D+00  E= 1.032011D+00
              MO Center=  1.5D-15, -2.2D-15,  1.6D-15, r^2= 1.8D+00
  Bfn.         Coefficient        Function           Bfn.         Coefficient        Function  
  ----     -------------------  ------------         ----     -------------------  ------------
     2     1.650653   0.000000  1 C  s                  6    -1.618144   0.000000  1 C  s          
     1    -0.074894   0.000000  1 C  s          

 Vector   18  Occ=0.000000D+00  E= 1.032011D+00
              MO Center=  0.0D+00,  0.0D+00,  0.0D+00, r^2= 0.0D+00
  Bfn.         Coefficient        Function           Bfn.         Coefficient        Function  
  ----     -------------------  ------------         ----     -------------------  ------------
    11     1.650653   0.000000  1 C  s                 15    -1.618144   0.000000  1 C  s          
    10    -0.074894   0.000000  1 C  s          


   alpha - beta orbital overlaps 
   ----------------------------- 


   alpha      1      2      3      4      5      6      7      8      9
    beta      1      6      3      4      5      6      3      4      5
 overlap   1.045  0.287  0.037  0.037  0.037  0.321  0.028  0.028  0.028

     --------------------------
     Expectation value of S2:  
     --------------------------
      <S2> =      0.7300 (Exact =     0.0000)


 Task  times  cpu:        0.5s     wall:        0.6s


                                NWChem Input Module
                                -------------------


 Summary of allocated global arrays
-----------------------------------
  No active global arrays



                         GA Statistics for process    0
                         ------------------------------

       create   destroy   get      put      acc     scatter   gather  read&inc
calls:  792      792     1941     1027      691        0        0      177     
number of processes/call 1.16e+00 1.22e+00 1.14e+00 0.00e+00 0.00e+00
bytes total:             9.37e+05 3.78e+05 4.24e+05 0.00e+00 0.00e+00 1.42e+03
bytes remote:            1.38e+05 7.24e+04 1.51e+04 0.00e+00 0.00e+00 0.00e+00
Max memory consumed for GA by this process: 55680 bytes

MA_summarize_allocated_blocks: starting scan ...
MA_summarize_allocated_blocks: scan completed: 0 heap blocks, 0 stack blocks
MA usage statistics:

	allocation statistics:
					      heap	     stack
					      ----	     -----
	current number of blocks	         0	         0
	maximum number of blocks	        20	        57
	current total bytes		         0	         0
	maximum total bytes		   1483120	  22510040
	maximum total K-bytes		      1484	     22511
	maximum total M-bytes		         2	        23


                                     CITATION
                                     --------
                Please cite the following reference when publishing
                           results obtained with NWChem:

                 M. Valiev, E.J. Bylaska, N. Govind, K. Kowalski,
              T.P. Straatsma, H.J.J. van Dam, D. Wang, J. Nieplocha,
                        E. Apra, T.L. Windus, W.A. de Jong
                 "NWChem: a comprehensive and scalable open-source
                  solution for large scale molecular simulations"
                      Comput. Phys. Commun. 181, 1477 (2010)
                           doi:10.1016/j.cpc.2010.04.018

                                      AUTHORS
                                      -------
          E. Apra, E. J. Bylaska, W. A. de Jong, N. Govind, K. Kowalski,
       T. P. Straatsma, M. Valiev, H. J. J. van Dam, D. Wang, T. L. Windus,
        J. Hammond, J. Autschbach, K. Bhaskaran-Nair, J. Brabec, K. Lopata,
    S. A. Fischer, S. Krishnamoorthy, M. Jacquelin, W. Ma, M. Klemm, O. Villa,
      Y. Chen, V. Anisimov, F. Aquino, S. Hirata, M. T. Hackler, V. Konjkov,
            D. Mejia-Rodriguez, T. Risthaus, M. Malagoli, A. Marenich,
   A. Otero-de-la-Roza, J. Mullin, P. Nichols, R. Peverati, J. Pittner, Y. Zhao,
        P.-D. Fan, A. Fonari, M. J. Williamson, R. J. Harrison, J. R. Rehr,
      M. Dupuis, D. Silverstein, D. M. A. Smith, J. Nieplocha, V. Tipparaju,
    M. Krishnan, B. E. Van Kuiken, A. Vazquez-Mayagoitia, L. Jensen, M. Swart,
      Q. Wu, T. Van Voorhis, A. A. Auer, M. Nooijen, L. D. Crosby, E. Brown,
      G. Cisneros, G. I. Fann, H. Fruchtl, J. Garza, K. Hirao, R. A. Kendall,
      J. A. Nichols, K. Tsemekhman, K. Wolinski, J. Anchell, D. E. Bernholdt,
      P. Borowski, T. Clark, D. Clerc, H. Dachsel, M. J. O. Deegan, K. Dyall,
    D. Elwood, E. Glendening, M. Gutowski, A. C. Hess, J. Jaffe, B. G. Johnson,
     J. Ju, R. Kobayashi, R. Kutteh, Z. Lin, R. Littlefield, X. Long, B. Meng,
      T. Nakajima, S. Niu, L. Pollack, M. Rosing, K. Glaesemann, G. Sandrone,
      M. Stave, H. Taylor, G. Thomas, J. H. van Lenthe, A. T. Wong, Z. Zhang.

 Total times  cpu:        1.1s     wall:        1.2s
[0] ARMCI Warning: Freed 1 leaked allocations
