 argument  1 = /home/list1234/source/nwchem-6.8.1-release/QA/tests/ch2_props4_bp/ch2_props4_bp.nw



============================== echo of input deck ==============================
echo

start ch2_props4_bp

title ch2_props4_bp

memory total 800 stack 400 heap 50 global 350 mb

geometry noautoz units angstrom nocenter
symmetry c1
 C     -0.00589147     +0.04720885     +0.01050160
 H     +0.69831687     +0.86392831     -0.10575361
 H     -1.02419158     -0.06390043     +0.36725854
end

basis
"*" library 6-311G*
end

charge 0

property
 efieldgradZ4
 gshift
 hyperfine
 shielding
end

relativistic
 zora on
 zora:cutoff_NMR 1d-8
 zora:cutoff 1d-30
end

set dft:tol_rho 1d-30
set int:acc_std 1d-32
set int:cando_txs f
set dft:job_grid_acc 1d-20

dft
 odft
 mult 3
 grid xfine
 direct
 xc becke88 perdew86
 convergence energy 1e-8 diis 80 ncyds 80 damp 0
end

task dft property
================================================================================


                                         
                                         


              Northwest Computational Chemistry Package (NWChem) 6.8
              ------------------------------------------------------


                    Environmental Molecular Sciences Laboratory
                       Pacific Northwest National Laboratory
                                Richland, WA 99352

                              Copyright (c) 1994-2018
                       Pacific Northwest National Laboratory
                            Battelle Memorial Institute

             NWChem is an open-source computational chemistry package
                        distributed under the terms of the
                      Educational Community License (ECL) 2.0
             A copy of the license is included with this distribution
                              in the LICENSE.TXT file

                                  ACKNOWLEDGMENT
                                  --------------

            This software and its documentation were developed at the
            EMSL at Pacific Northwest National Laboratory, a multiprogram
            national laboratory, operated for the U.S. Department of Energy
            by Battelle under Contract Number DE-AC05-76RL01830. Support
            for this work was provided by the Department of Energy Office
            of Biological and Environmental Research, Office of Basic
            Energy Sciences, and the Office of Advanced Scientific Computing.


           Job information
           ---------------

    hostname        = list1234-B360M-H
    program         = /home/list1234/source/nwchem-6.8.1-release/bin/LINUX64/nwchem
    date            = Sun Jun 30 13:30:51 2019

    compiled        = Sun_Jun_30_11:55:59_2019
    source          = /home/list1234/source/nwchem-6.8.1-release
    nwchem branch   = Development
    nwchem revision = N/A
    ga revision     = 5.6.5
    use scalapack   = T
    input           = /home/list1234/source/nwchem-6.8.1-release/QA/tests/ch2_props4_bp/ch2_props4_bp.nw
    prefix          = ch2_props4_bp.
    data base       = ./ch2_props4_bp.db
    status          = startup
    nproc           =        4
    time left       =     -1s



           Memory information
           ------------------

    heap     =    6553600 doubles =     50.0 Mbytes
    stack    =   52428797 doubles =    400.0 Mbytes
    global   =   45875200 doubles =    350.0 Mbytes (distinct from heap & stack)
    total    =  104857597 doubles =    800.0 Mbytes
    verify   = yes
    hardfail = no 


           Directory information
           ---------------------

  0 permanent = .
  0 scratch   = .




                                NWChem Input Module
                                -------------------


                                   ch2_props4_bp
                                   -------------

 Scaling coordinates for geometry "geometry" by  1.889725989
 (inverse scale =  0.529177249)

 Turning off AUTOSYM since
 SYMMETRY directive was detected!



                             Geometry "geometry" -> ""
                             -------------------------

 Output coordinates in angstroms (scale by  1.889725989 to convert to a.u.)

  No.       Tag          Charge          X              Y              Z
 ---- ---------------- ---------- -------------- -------------- --------------
    1 C                    6.0000    -0.00589147     0.04720885     0.01050160
    2 H                    1.0000     0.69831687     0.86392831    -0.10575361
    3 H                    1.0000    -1.02419158    -0.06390043     0.36725854

      Atomic Mass 
      ----------- 

      C                 12.000000
      H                  1.007825


 Effective nuclear repulsion energy (a.u.)       6.1173376527

            Nuclear Dipole moment (a.u.) 
            ----------------------------
        X                 Y               Z
 ---------------- ---------------- ----------------
    -0.6826134923     2.0471042208     0.6132435410


            XYZ format geometry
            -------------------
     3
 geometry
 C                    -0.00589147     0.04720885     0.01050160
 H                     0.69831687     0.86392831    -0.10575361
 H                    -1.02419158    -0.06390043     0.36725854

 ==============================================================================
                                internuclear distances
 ------------------------------------------------------------------------------
       center one      |      center two      | atomic units |  angstroms
 ------------------------------------------------------------------------------
    2 H                |   1 C                |     2.04968  |     1.08465
    3 H                |   1 C                |     2.04977  |     1.08469
 ------------------------------------------------------------------------------
                         number of included internuclear distances:          2
 ==============================================================================



 ==============================================================================
                                 internuclear angles
 ------------------------------------------------------------------------------
        center 1       |       center 2       |       center 3       |  degrees
 ------------------------------------------------------------------------------
    2 H                |   1 C                |   3 H                |   136.21
 ------------------------------------------------------------------------------
                            number of included internuclear angles:          1
 ==============================================================================





 Summary of "ao basis" -> "" (cartesian)
 ------------------------------------------------------------------------------
       Tag                 Description            Shells   Functions and Types
 ---------------- ------------------------------  ------  ---------------------
 *                          6-311G*                   on all atoms 


  perdew86 is a nonlocal functional; adding perdew81 local functional. 
                              NWChem Property Module
                              ----------------------


                                   ch2_props4_bp

  itol2e modified to match energy
  convergence criterion.

                                 NWChem DFT Module
                                 -----------------


                                   ch2_props4_bp


                      Basis "ao basis" -> "ao basis" (cartesian)
                      -----
  C (Carbon)
  ----------
            Exponent  Coefficients 
       -------------- ---------------------------------------------------------
  1 S  4.56324000E+03  0.001967
  1 S  6.82024000E+02  0.015231
  1 S  1.54973000E+02  0.076127
  1 S  4.44553000E+01  0.260801
  1 S  1.30290000E+01  0.616462
  1 S  1.82773000E+00  0.221006

  2 S  2.09642000E+01  0.114660
  2 S  4.80331000E+00  0.919999
  2 S  1.45933000E+00 -0.003031

  3 P  2.09642000E+01  0.040249
  3 P  4.80331000E+00  0.237594
  3 P  1.45933000E+00  0.815854

  4 S  4.83456000E-01  1.000000

  5 P  4.83456000E-01  1.000000

  6 S  1.45585000E-01  1.000000

  7 P  1.45585000E-01  1.000000

  8 D  6.26000000E-01  1.000000

  H (Hydrogen)
  ------------
            Exponent  Coefficients 
       -------------- ---------------------------------------------------------
  1 S  3.38650000E+01  0.025494
  1 S  5.09479000E+00  0.190373
  1 S  1.15879000E+00  0.852161

  2 S  3.25840000E-01  1.000000

  3 S  1.02741000E-01  1.000000



 Summary of "ao basis" -> "ao basis" (cartesian)
 ------------------------------------------------------------------------------
       Tag                 Description            Shells   Functions and Types
 ---------------- ------------------------------  ------  ---------------------
 C                          6-311G*                  8       19   4s3p1d
 H                          6-311G*                  3        3   3s




 Summary of "ao basis" -> "ao basis" (cartesian)
 ------------------------------------------------------------------------------
       Tag                 Description            Shells   Functions and Types
 ---------------- ------------------------------  ------  ---------------------
 C                          6-311G*                  8       19   4s3p1d
 H                          6-311G*                  3        3   3s



int_init: setting std/high accuracies to  1.0D-32  1.0D-64
  int_init: cando_txs set to always be  F
  Caching 1-el integrals 

            General Information
            -------------------
          SCF calculation type: DFT
          Wavefunction type:  spin polarized.
          No. of atoms     :     3
          No. of electrons :     8
           Alpha electrons :     5
            Beta electrons :     3
          Charge           :     0
          Spin multiplicity:     3
          Use of symmetry is: off; symmetry adaption is: off
          Maximum number of iterations:  30
          This is a Direct SCF calculation.
          AO basis - number of functions:    25
                     number of shells:    14
          Convergence on energy requested:  1.00D-08
          Convergence on density requested:  1.00D-05
          Convergence on gradient requested:  5.00D-04

              XC Information
              --------------
                    Becke 1988 Exchange Functional  1.000          
                Perdew 1981 Correlation Functional  1.000 local    
                Perdew 1986 Correlation Functional  1.000 non-local

             Grid Information
             ----------------
          Grid used for XC integration:  xfine     
          Radial quadrature: Mura-Knowles        
          Angular quadrature: Lebedev. 
          Tag              B.-S. Rad. Rad. Pts. Rad. Cut. Ang. Pts.
          ---              ---------- --------- --------- ---------
          C                   0.70      100          10.0      1454
          H                   0.35      100          12.0      1202
          Grid pruning is: on 
          Number of quadrature shells:   300
          Spatial weights used:  Erf1

          Convergence Information
          -----------------------
          Convergence aids based upon iterative change in 
          total energy or number of iterations. 
          Levelshifting, if invoked, occurs when the 
          HOMO/LUMO gap drops below (HL_TOL):  1.00D-02
          DIIS, if invoked, will attempt to extrapolate 
          using up to (NFOCK): 80 stored Fock matrices.

                    Damping( 0%)  Levelshifting(0.5)       DIIS
                  --------------- ------------------- ---------------
          dE  on:    start            ASAP                start   
          dE off:    2 iters         30 iters            80 iters 


      Screening Tolerance Information
      -------------------------------
          Density screening/tol_rho:  1.00D-30
          AO Gaussian exp screening on grid/accAOfunc:  18
          CD Gaussian exp screening on grid/accCDfunc:  20
          XC Gaussian exp screening on grid/accXCfunc:  20
          Schwarz screening/accCoul:  1.00D-09

          Performing ZORA calculations
          ----------------------------


      Superposition of Atomic Density Guess
      -------------------------------------

 Sum of atomic energies:         -38.66817135

 Read atomic ZORA corrections from ./ch2_props4_bp.zora_sf

 dft_zora_read: failed to open./ch2_props4_bp.zora_sf
       Generating atomic ZORA corrections
       ----------------------------------

 In dft_scf:: zora:Knucl= F

 Grid_pts file          = ./ch2_props4_bp.gridpts.0
 Record size in doubles =  12289        No. of grid_pts per rec  =   3070
 Max. records in memory =     41        Max. recs in file   =    862104

 Grid integrated density:       8.000000002263
 Requested integration accuracy:   0.10E-19

 Wrote atomic ZORA corrections to ./ch2_props4_bp.zora_sf


      Superposition of Atomic Density Guess
      -------------------------------------

 Sum of atomic energies:         -38.66817135

      Non-variational initial energy
      ------------------------------

 Total energy =     -38.729281
 1-e energy   =     -63.148455
 2-e energy   =      18.301837
 HOMO         =      -0.184236
 LUMO         =      -0.135421

   Time after variat. SCF:      0.9
   Time prior to 1st pass:      0.9
 Grid integrated density:       7.999999916126
 Requested integration accuracy:   0.10E-19

           Memory utilization after 1st SCF pass: 
           Heap Space remaining (MW):        6.05             6045304
          Stack Space remaining (MW):       52.43            52427156

   convergence    iter        energy       DeltaE   RMS-Dens  Diis-err    time
 ---------------- ----- ----------------- --------- --------- ---------  ------
 d= 0,ls=0.0,diis     1    -39.1543660978 -4.53D+01  8.93D-03  6.65D-02     1.0
                                                     4.51D-03  5.41D-02
 Grid integrated density:       7.999999942723
 Requested integration accuracy:   0.10E-19
 d= 0,ls=0.0,diis     2    -39.1708741521 -1.65D-02  4.75D-03  1.39D-02     1.2
                                                     3.23D-03  9.49D-03
 Grid integrated density:       8.000000000039
 Requested integration accuracy:   0.10E-19
 d= 0,ls=0.0,diis     3    -39.1749883571 -4.11D-03  2.14D-03  5.85D-03     1.4
                                                     1.04D-03  2.67D-03
 Grid integrated density:       7.999999999924
 Requested integration accuracy:   0.10E-19
 d= 0,ls=0.0,diis     4    -39.1772952616 -2.31D-03  1.22D-04  2.22D-05     1.6
                                                     1.93D-04  4.18D-05
 Grid integrated density:       7.999999999953
 Requested integration accuracy:   0.10E-19
 d= 0,ls=0.0,diis     5    -39.1773173129 -2.21D-05  5.54D-05  2.78D-06     1.8
                                                     3.35D-05  9.18D-07
 Grid integrated density:       7.999999999955
 Requested integration accuracy:   0.10E-19
 d= 0,ls=0.0,diis     6    -39.1773186737 -1.36D-06  9.94D-06  5.07D-08     2.0
                                                     7.78D-06  3.49D-08
 Grid integrated density:       7.999999999956
 Requested integration accuracy:   0.10E-19
 d= 0,ls=0.0,diis     7    -39.1773187164 -4.28D-08  8.07D-07  2.46D-10     2.2
                                                     9.01D-07  5.40D-10
 Grid integrated density:       7.999999999956
 Requested integration accuracy:   0.10E-19
 d= 0,ls=0.0,diis     8    -39.1773187168 -3.76D-10  1.30D-07  8.75D-12     2.4
                                                     9.60D-08  4.51D-12

      Commencing ZORA Property Calculations
      -------------------------------------

 Grid integrated density:       8.000000002263
 Requested integration accuracy:   0.10E-19
dia1(k,t,iat1,ispin)=(  1,  1,  1,  1)=(   147.47332112,   147.47332112) ppm
dia1(k,t,iat1,ispin)=(  1,  1,  1,  2)=(   116.74168819,   264.21500931) ppm
dia1(k,t,iat1,ispin)=(  1,  2,  1,  1)=(     2.43696096,     2.43696096) ppm
dia1(k,t,iat1,ispin)=(  1,  2,  1,  2)=(     0.25886452,     2.69582547) ppm
dia1(k,t,iat1,ispin)=(  1,  3,  1,  1)=(    -1.85525562,    -1.85525562) ppm
dia1(k,t,iat1,ispin)=(  1,  3,  1,  2)=(    -0.15434697,    -2.00960259) ppm
dia1(k,t,iat1,ispin)=(  2,  1,  1,  1)=(     2.43692257,     2.43692257) ppm
dia1(k,t,iat1,ispin)=(  2,  1,  1,  2)=(     0.25887706,     2.69579962) ppm
dia1(k,t,iat1,ispin)=(  2,  2,  1,  1)=(   144.61051125,   144.61051125) ppm
dia1(k,t,iat1,ispin)=(  2,  2,  1,  2)=(   116.41324243,   261.02375368) ppm
dia1(k,t,iat1,ispin)=(  2,  3,  1,  1)=(    -0.31530023,    -0.31530023) ppm
dia1(k,t,iat1,ispin)=(  2,  3,  1,  2)=(    -0.05817598,    -0.37347621) ppm
dia1(k,t,iat1,ispin)=(  3,  1,  1,  1)=(    -1.85526239,    -1.85526239) ppm
dia1(k,t,iat1,ispin)=(  3,  1,  1,  2)=(    -0.15434476,    -2.00960715) ppm
dia1(k,t,iat1,ispin)=(  3,  2,  1,  1)=(    -0.31531442,    -0.31531442) ppm
dia1(k,t,iat1,ispin)=(  3,  2,  1,  2)=(    -0.05817134,    -0.37348577) ppm
dia1(k,t,iat1,ispin)=(  3,  3,  1,  1)=(   141.92090546,   141.92090546) ppm
dia1(k,t,iat1,ispin)=(  3,  3,  1,  2)=(   116.24734939,   258.16825485) ppm
(dia2,par1)(k,t,iat1,spin)=(  1,  1,  1,  1)=(    -0.97406726,    -0.97406726,    -0.00743812,    -0.00743812) ppm
(dia2,par1)(k,t,iat1,spin)=(  1,  1,  1,  2)=(    -0.10426714,    -1.07833440,     0.06296967,     0.05553155) ppm
(dia2,par1)(k,t,iat1,spin)=(  2,  1,  1,  1)=(     0.23403185,     0.23403185,     0.00354869,     0.00354869) ppm
(dia2,par1)(k,t,iat1,spin)=(  2,  1,  1,  2)=(     0.63227389,     0.86630574,    -0.03004249,    -0.02649379) ppm
(dia2,par1)(k,t,iat1,spin)=(  3,  1,  1,  1)=(    -0.31492427,    -0.31492427,    -0.02012558,    -0.02012558) ppm
(dia2,par1)(k,t,iat1,spin)=(  3,  1,  1,  2)=(    -0.19908497,    -0.51400924,     0.17037935,     0.15025377) ppm
(dia2,par1)(k,t,iat1,spin)=(  1,  2,  1,  1)=(     0.23407025,     0.23407025,     0.00354869,     0.00354869) ppm
(dia2,par1)(k,t,iat1,spin)=(  1,  2,  1,  2)=(     0.63226135,     0.86633160,    -0.03004248,    -0.02649379) ppm
(dia2,par1)(k,t,iat1,spin)=(  2,  2,  1,  1)=(    -1.17123744,    -1.17123744,    -0.00169306,    -0.00169306) ppm
(dia2,par1)(k,t,iat1,spin)=(  2,  2,  1,  2)=(    -1.00755413,    -2.17879157,     0.01433310,     0.01264004) ppm
(dia2,par1)(k,t,iat1,spin)=(  3,  2,  1,  1)=(     0.04866117,     0.04866117,     0.00960180,     0.00960180) ppm
(dia2,par1)(k,t,iat1,spin)=(  3,  2,  1,  2)=(    -0.24477608,    -0.19611491,    -0.08128704,    -0.07168524) ppm
(dia2,par1)(k,t,iat1,spin)=(  1,  3,  1,  1)=(    -0.31491750,    -0.31491750,    -0.02012560,    -0.02012560) ppm
(dia2,par1)(k,t,iat1,spin)=(  1,  3,  1,  2)=(    -0.19908718,    -0.51400468,     0.17037936,     0.15025377) ppm
(dia2,par1)(k,t,iat1,spin)=(  2,  3,  1,  1)=(     0.04867536,     0.04867536,     0.00960183,     0.00960183) ppm
(dia2,par1)(k,t,iat1,spin)=(  2,  3,  1,  2)=(    -0.24478071,    -0.19610535,    -0.08128707,    -0.07168523) ppm
(dia2,par1)(k,t,iat1,spin)=(  3,  3,  1,  1)=(    -1.81285326,    -1.81285326,    -0.05445454,    -0.05445454) ppm
(dia2,par1)(k,t,iat1,spin)=(  3,  3,  1,  2)=(    -0.91417488,    -2.72702813,     0.46100173,     0.40654719) ppm
 Grid integrated density:       8.000000002263
 Requested integration accuracy:   0.10E-19
dia1(k,t,iat1,ispin)=(  1,  1,  2,  1)=(    16.13140637,    16.13140637) ppm
dia1(k,t,iat1,ispin)=(  1,  1,  2,  2)=(    10.87552907,    27.00693544) ppm
dia1(k,t,iat1,ispin)=(  1,  2,  2,  1)=(     6.19338503,     6.19338503) ppm
dia1(k,t,iat1,ispin)=(  1,  2,  2,  2)=(     3.91295903,    10.10634406) ppm
dia1(k,t,iat1,ispin)=(  1,  3,  2,  1)=(    -1.20271381,    -1.20271381) ppm
dia1(k,t,iat1,ispin)=(  1,  3,  2,  2)=(    -0.38456510,    -1.58727891) ppm
dia1(k,t,iat1,ispin)=(  2,  1,  2,  1)=(     6.13733774,     6.13733774) ppm
dia1(k,t,iat1,ispin)=(  2,  1,  2,  2)=(     3.74816798,     9.88550572) ppm
dia1(k,t,iat1,ispin)=(  2,  2,  2,  1)=(    17.00294385,    17.00294385) ppm
dia1(k,t,iat1,ispin)=(  2,  2,  2,  2)=(    12.66561342,    29.66855727) ppm
dia1(k,t,iat1,ispin)=(  2,  3,  2,  1)=(    -1.01976855,    -1.01976855) ppm
dia1(k,t,iat1,ispin)=(  2,  3,  2,  2)=(    -0.55697668,    -1.57674523) ppm
dia1(k,t,iat1,ispin)=(  3,  1,  2,  1)=(    -1.21259646,    -1.21259646) ppm
dia1(k,t,iat1,ispin)=(  3,  1,  2,  2)=(    -0.41362221,    -1.62621867) ppm
dia1(k,t,iat1,ispin)=(  3,  2,  2,  1)=(    -1.04048279,    -1.04048279) ppm
dia1(k,t,iat1,ispin)=(  3,  2,  2,  2)=(    -0.61788099,    -1.65836378) ppm
dia1(k,t,iat1,ispin)=(  3,  3,  2,  1)=(    10.18704184,    10.18704184) ppm
dia1(k,t,iat1,ispin)=(  3,  3,  2,  2)=(     8.01206555,    18.19910739) ppm
(dia2,par1)(k,t,iat1,spin)=(  1,  1,  2,  1)=(     1.55107330,     1.55107330,    -0.00306443,    -0.00306443) ppm
(dia2,par1)(k,t,iat1,spin)=(  1,  1,  2,  2)=(     2.11107800,     3.66215130,     0.00321184,     0.00014741) ppm
(dia2,par1)(k,t,iat1,spin)=(  2,  1,  2,  1)=(    -1.41318835,    -1.41318835,     0.00146202,     0.00146202) ppm
(dia2,par1)(k,t,iat1,spin)=(  2,  1,  2,  2)=(    -1.76746957,    -3.18065792,    -0.00153235,    -0.00007033) ppm
(dia2,par1)(k,t,iat1,spin)=(  3,  1,  2,  1)=(     0.32561754,     0.32561754,    -0.00829154,    -0.00829154) ppm
(dia2,par1)(k,t,iat1,spin)=(  3,  1,  2,  2)=(     0.17972647,     0.50534400,     0.00869041,     0.00039886) ppm
(dia2,par1)(k,t,iat1,spin)=(  1,  2,  2,  1)=(    -1.76844524,    -1.76844524,     0.00146202,     0.00146202) ppm
(dia2,par1)(k,t,iat1,spin)=(  1,  2,  2,  2)=(    -1.51035308,    -3.27879832,    -0.00153235,    -0.00007033) ppm
(dia2,par1)(k,t,iat1,spin)=(  2,  2,  2,  1)=(     1.49038498,     1.49038498,    -0.00069752,    -0.00069752) ppm
(dia2,par1)(k,t,iat1,spin)=(  2,  2,  2,  2)=(     1.29944610,     2.78983108,     0.00073108,     0.00003355) ppm
(dia2,par1)(k,t,iat1,spin)=(  3,  2,  2,  1)=(     0.36865570,     0.36865570,     0.00395585,     0.00395585) ppm
(dia2,par1)(k,t,iat1,spin)=(  3,  2,  2,  2)=(     0.18065714,     0.54931285,    -0.00414614,    -0.00019029) ppm
(dia2,par1)(k,t,iat1,spin)=(  1,  3,  2,  1)=(     0.26297617,     0.26297617,    -0.00829154,    -0.00829154) ppm
(dia2,par1)(k,t,iat1,spin)=(  1,  3,  2,  2)=(     0.22506304,     0.48803920,     0.00869041,     0.00039886) ppm
(dia2,par1)(k,t,iat1,spin)=(  2,  3,  2,  1)=(     0.23735807,     0.23735807,     0.00395585,     0.00395585) ppm
(dia2,par1)(k,t,iat1,spin)=(  2,  3,  2,  2)=(     0.27568355,     0.51304162,    -0.00414615,    -0.00019030) ppm
(dia2,par1)(k,t,iat1,spin)=(  3,  3,  2,  1)=(     3.05099361,     3.05099361,    -0.02243474,    -0.02243474) ppm
(dia2,par1)(k,t,iat1,spin)=(  3,  3,  2,  2)=(     3.40605096,     6.45704457,     0.02351395,     0.00107922) ppm
 Grid integrated density:       8.000000002263
 Requested integration accuracy:   0.10E-19
dia1(k,t,iat1,ispin)=(  1,  1,  3,  1)=(    21.33580066,    21.33580066) ppm
dia1(k,t,iat1,ispin)=(  1,  1,  3,  2)=(    14.85582773,    36.19162839) ppm
dia1(k,t,iat1,ispin)=(  1,  2,  3,  1)=(     1.69126492,     1.69126492) ppm
dia1(k,t,iat1,ispin)=(  1,  2,  3,  2)=(     0.34807741,     2.03934232) ppm
dia1(k,t,iat1,ispin)=(  1,  3,  3,  1)=(    -3.92024202,    -3.92024202) ppm
dia1(k,t,iat1,ispin)=(  1,  3,  3,  2)=(    -2.48432775,    -6.40456977) ppm
dia1(k,t,iat1,ispin)=(  2,  1,  3,  1)=(     1.74729121,     1.74729121) ppm
dia1(k,t,iat1,ispin)=(  2,  1,  3,  2)=(     0.51286895,     2.26016016) ppm
dia1(k,t,iat1,ispin)=(  2,  2,  3,  1)=(    10.70212918,    10.70212918) ppm
dia1(k,t,iat1,ispin)=(  2,  2,  3,  2)=(     7.84724975,    18.54937893) ppm
dia1(k,t,iat1,ispin)=(  2,  3,  3,  1)=(    -0.50817316,    -0.50817316) ppm
dia1(k,t,iat1,ispin)=(  2,  3,  3,  2)=(    -0.21080922,    -0.71898238) ppm
dia1(k,t,iat1,ispin)=(  3,  1,  3,  1)=(    -3.91036307,    -3.91036307) ppm
dia1(k,t,iat1,ispin)=(  3,  1,  3,  2)=(    -2.45527055,    -6.36563363) ppm
dia1(k,t,iat1,ispin)=(  3,  2,  3,  1)=(    -0.48746668,    -0.48746668) ppm
dia1(k,t,iat1,ispin)=(  3,  2,  3,  2)=(    -0.14990473,    -0.63737141) ppm
dia1(k,t,iat1,ispin)=(  3,  3,  3,  1)=(    11.28102151,    11.28102151) ppm
dia1(k,t,iat1,ispin)=(  3,  3,  3,  2)=(     8.84882322,    20.12984473) ppm
(dia2,par1)(k,t,iat1,spin)=(  1,  1,  3,  1)=(     0.28749872,     0.28749872,    -0.00239324,    -0.00239324) ppm
(dia2,par1)(k,t,iat1,spin)=(  1,  1,  3,  2)=(     0.39353316,     0.68103188,     0.00250855,     0.00011532) ppm
(dia2,par1)(k,t,iat1,spin)=(  2,  1,  3,  1)=(    -0.68925173,    -0.68925173,     0.00114180,     0.00114180) ppm
(dia2,par1)(k,t,iat1,spin)=(  2,  1,  3,  2)=(    -0.04342699,    -0.73267871,    -0.00119682,    -0.00005502) ppm
(dia2,par1)(k,t,iat1,spin)=(  3,  1,  3,  1)=(     0.92026165,     0.92026165,    -0.00647547,    -0.00647547) ppm
(dia2,par1)(k,t,iat1,spin)=(  3,  1,  3,  2)=(     1.11849872,     2.03876037,     0.00678748,     0.00031201) ppm
(dia2,par1)(k,t,iat1,spin)=(  1,  2,  3,  1)=(    -0.33396982,    -0.33396982,     0.00114180,     0.00114180) ppm
(dia2,par1)(k,t,iat1,spin)=(  1,  2,  3,  2)=(    -0.30053990,    -0.63450972,    -0.00119682,    -0.00005502) ppm
(dia2,par1)(k,t,iat1,spin)=(  2,  2,  3,  1)=(     3.01966127,     3.01966127,    -0.00054475,    -0.00054475) ppm
(dia2,par1)(k,t,iat1,spin)=(  2,  2,  3,  2)=(     3.37815493,     6.39781620,     0.00057099,     0.00002625) ppm
(dia2,par1)(k,t,iat1,spin)=(  3,  2,  3,  1)=(     0.10814946,     0.10814946,     0.00308941,     0.00308941) ppm
(dia2,par1)(k,t,iat1,spin)=(  3,  2,  3,  2)=(     0.10006159,     0.20821105,    -0.00323827,    -0.00014886) ppm
(dia2,par1)(k,t,iat1,spin)=(  1,  3,  3,  1)=(     0.98290744,     0.98290744,    -0.00647547,    -0.00647547) ppm
(dia2,par1)(k,t,iat1,spin)=(  1,  3,  3,  2)=(     1.07316278,     2.05607021,     0.00678748,     0.00031201) ppm
(dia2,par1)(k,t,iat1,spin)=(  2,  3,  3,  1)=(     0.23945634,     0.23945634,     0.00308941,     0.00308941) ppm
(dia2,par1)(k,t,iat1,spin)=(  2,  3,  3,  2)=(     0.00503650,     0.24449284,    -0.00323827,    -0.00014886) ppm
(dia2,par1)(k,t,iat1,spin)=(  3,  3,  3,  1)=(     2.78527770,     2.78527770,    -0.01752091,    -0.01752091) ppm
(dia2,par1)(k,t,iat1,spin)=(  3,  3,  3,  2)=(     3.04487856,     5.83015626,     0.01836514,     0.00084423) ppm
 Grid integrated density:       8.000000002263
 Requested integration accuracy:   0.10E-19

 Wrote ZORA NMR data to ./ch2_props4_bp.zora_nmrcs

 In get_NMRHFine_ZORA:: zora:Knucl= F
 dft_zora_Hypefine: ofinite= F
 nat_slc=                    3
In dft_zora_Hyperfine:: atomnr(  1)=    1
In dft_zora_Hyperfine:: atomnr(  2)=    2
In dft_zora_Hyperfine:: atomnr(  3)=    3
 starting at time       9.22s
CHECK:(atom,ofinite,atmass,zetanucl_slc)=(   1,F,    12.00000000,                 680775029.28673303)
 Grid integrated density:       8.000000002263
 Requested integration accuracy:   0.10E-19
gFCSD(  1,  1,  1)=     2.17326352
gFCSD(  1,  1,  2)=    -0.62877072
gFCSD(  1,  1,  3)=     0.39755792
gFCSD(  1,  2,  1)=    -0.62877072
gFCSD(  1,  2,  2)=     2.95806045
gFCSD(  1,  2,  3)=     0.12819736
gFCSD(  1,  3,  1)=     0.39755792
gFCSD(  1,  3,  2)=     0.12819736
gFCSD(  1,  3,  3)=     3.42460694
 starting at time      10.65s
CHECK:(atom,ofinite,atmass,zetanucl_slc)=(   2,F,     1.00782500,                2118265472.55233526)
 Grid integrated density:       8.000000002263
 Requested integration accuracy:   0.10E-19
gFCSD(  2,  1,  1)=    -0.04569494
gFCSD(  2,  1,  2)=     0.11347765
gFCSD(  2,  1,  3)=    -0.01135622
gFCSD(  2,  2,  1)=     0.11347765
gFCSD(  2,  2,  2)=    -0.01959193
gFCSD(  2,  2,  3)=    -0.02237332
gFCSD(  2,  3,  1)=    -0.01135622
gFCSD(  2,  3,  2)=    -0.02237332
gFCSD(  2,  3,  3)=    -0.13030937
 starting at time      12.07s
CHECK:(atom,ofinite,atmass,zetanucl_slc)=(   3,F,     1.00782500,                2118265472.55233526)
 Grid integrated density:       8.000000002263
 Requested integration accuracy:   0.10E-19
gFCSD(  3,  1,  1)=     0.05848558
gFCSD(  3,  1,  2)=     0.02449229
gFCSD(  3,  1,  3)=    -0.06554954
gFCSD(  3,  2,  1)=     0.02449229
gFCSD(  3,  2,  2)=    -0.14568389
gFCSD(  3,  2,  3)=    -0.01171825
gFCSD(  3,  3,  1)=    -0.06554954
gFCSD(  3,  3,  2)=    -0.01171825
gFCSD(  3,  3,  3)=    -0.10839950
 Grid integrated density:       8.000000002263
 Requested integration accuracy:   0.10E-19

 Wrote ZORA NMR data to ./ch2_props4_bp.zora_nmrhyp

(nogshift,skip_gshiftAOev,done_Fji)=( 0,F,T)
In dft_zora_EPR:: slc_spinpolAO=  0
 WARNING: SLC A-B contrib
 In dft_zora_EPR:: zora:Knucl= F
 Grid integrated density:       8.000000002263
 Requested integration accuracy:   0.10E-19
(q1,-q2,q1-q2,q3,dia2,dia1,dia2+dia1)(  1,  1)=(  0.00027732, -0.00010772,  0.00016960, -0.00163960, -0.00147000, -0.01274028, -0.01421028)
(q1,-q2,q1-q2,q3,dia2,dia1,dia2+dia1)(  1,  2)=(  0.00051407,  0.00005139,  0.00056546, -0.00135718, -0.00079172,  0.00328411,  0.00249239)
(q1,-q2,q1-q2,q3,dia2,dia1,dia2+dia1)(  1,  3)=(  0.00014240, -0.00029147, -0.00014907,  0.00000832, -0.00014075, -0.00260583, -0.00274657)
(q1,-q2,q1-q2,q3,dia2,dia1,dia2+dia1)(  2,  1)=(  0.00051405,  0.00005139,  0.00056544, -0.00135722, -0.00079178,  0.00328419,  0.00249241)
(q1,-q2,q1-q2,q3,dia2,dia1,dia2+dia1)(  2,  2)=( -0.00063023, -0.00002452, -0.00065475,  0.00053778, -0.00011697, -0.01653821, -0.01665518)
(q1,-q2,q1-q2,q3,dia2,dia1,dia2+dia1)(  2,  3)=( -0.00037470,  0.00013906, -0.00023564,  0.00076740,  0.00053175, -0.00036396,  0.00016779)
(q1,-q2,q1-q2,q3,dia2,dia1,dia2+dia1)(  3,  1)=(  0.00014240, -0.00029147, -0.00014907,  0.00000831, -0.00014076, -0.00260581, -0.00274657)
(q1,-q2,q1-q2,q3,dia2,dia1,dia2+dia1)(  3,  2)=( -0.00037471,  0.00013906, -0.00023565,  0.00076738,  0.00053173, -0.00036393,  0.00016779)
(q1,-q2,q1-q2,q3,dia2,dia1,dia2+dia1)(  3,  3)=(  0.00029866, -0.00078864, -0.00048998, -0.00083734, -0.00132732, -0.02045890, -0.02178622)

 Wrote ZORA NMR data to ./ch2_props4_bp.zora_nmrgshift


 Wrote ZORA NMR data to ./ch2_props4_bp.zora_nmrgshift_AB

 ==> nlist=                    3
xyz_EFG( 1)=(    -0.01113326,     0.08921179,     0.01984515)
 Grid integrated density:       8.000000002263
 Requested integration accuracy:   0.10E-19
zora-efg(  4,  1,  1,  1,  1)=(    -0.17402426,    -0.17402426)
zora-efg(  4,  1,  1,  2,  1)=(     0.50509963,     0.33107538)
 Grid integrated density:       8.000000002263
 Requested integration accuracy:   0.10E-19
zora-efg(  4,  1,  2,  1,  2)=(    -0.00688251,    -0.00688251)
zora-efg(  4,  1,  2,  2,  2)=(    -0.11302981,    -0.11991232)
 Grid integrated density:       8.000000002263
 Requested integration accuracy:   0.10E-19
zora-efg(  4,  1,  3,  1,  3)=(     0.18090677,     0.18090677)
zora-efg(  4,  1,  3,  2,  3)=(    -0.39206982,    -0.21116305)
 Grid integrated density:       8.000000002263
 Requested integration accuracy:   0.10E-19
zora-efg(  4,  1,  4,  1,  4)=(    -0.14671221,    -0.14671221)
zora-efg(  4,  1,  4,  2,  4)=(     0.48243861,     0.33572640)
 Grid integrated density:       8.000000002263
 Requested integration accuracy:   0.10E-19
zora-efg(  4,  1,  5,  1,  5)=(     0.12093731,     0.12093731)
zora-efg(  4,  1,  5,  2,  5)=(    -0.27686122,    -0.15592391)
 Grid integrated density:       8.000000002263
 Requested integration accuracy:   0.10E-19
zora-efg(  4,  1,  6,  1,  6)=(     0.01365361,     0.01365361)
zora-efg(  4,  1,  6,  2,  6)=(    -0.11462109,    -0.10096748)
xyz_EFG( 2)=(     1.31962754,     1.63258778,    -0.19984535)
 Grid integrated density:       8.000000002263
 Requested integration accuracy:   0.10E-19
zora-efg(  4,  2,  1,  1,  7)=(     0.08881726,     0.08881726)
zora-efg(  4,  2,  1,  2,  7)=(     0.06931162,     0.15812889)
 Grid integrated density:       8.000000002263
 Requested integration accuracy:   0.10E-19
zora-efg(  4,  2,  2,  1,  8)=(     0.20927877,     0.20927877)
zora-efg(  4,  2,  2,  2,  8)=(     0.16367035,     0.37294913)
 Grid integrated density:       8.000000002263
 Requested integration accuracy:   0.10E-19
zora-efg(  4,  2,  3,  1,  9)=(    -0.29809604,    -0.29809604)
zora-efg(  4,  2,  3,  2,  9)=(    -0.23298197,    -0.53107801)
 Grid integrated density:       8.000000002263
 Requested integration accuracy:   0.10E-19
zora-efg(  4,  2,  4,  1, 10)=(     0.46331419,     0.46331419)
zora-efg(  4,  2,  4,  2, 10)=(     0.34982910,     0.81314329)
 Grid integrated density:       8.000000002263
 Requested integration accuracy:   0.10E-19
zora-efg(  4,  2,  5,  1, 11)=(    -0.06496073,    -0.06496073)
zora-efg(  4,  2,  5,  2, 11)=(    -0.05360387,    -0.11856460)
 Grid integrated density:       8.000000002263
 Requested integration accuracy:   0.10E-19
zora-efg(  4,  2,  6,  1, 12)=(    -0.08002486,    -0.08002486)
zora-efg(  4,  2,  6,  2, 12)=(    -0.05765027,    -0.13767513)
xyz_EFG( 3)=(    -1.93544145,    -0.12075430,     0.69401801)
 Grid integrated density:       8.000000002263
 Requested integration accuracy:   0.10E-19
zora-efg(  4,  3,  1,  1, 13)=(     0.51586241,     0.51586241)
zora-efg(  4,  3,  1,  2, 13)=(     0.39217056,     0.90803297)
 Grid integrated density:       8.000000002263
 Requested integration accuracy:   0.10E-19
zora-efg(  4,  3,  2,  1, 14)=(    -0.30759147,    -0.30759147)
zora-efg(  4,  3,  2,  2, 14)=(    -0.22710222,    -0.53469368)
 Grid integrated density:       8.000000002263
 Requested integration accuracy:   0.10E-19
zora-efg(  4,  3,  3,  1, 15)=(    -0.20827094,    -0.20827094)
zora-efg(  4,  3,  3,  2, 15)=(    -0.16506835,    -0.37333929)
 Grid integrated density:       8.000000002263
 Requested integration accuracy:   0.10E-19
zora-efg(  4,  3,  4,  1, 16)=(     0.09853662,     0.09853662)
zora-efg(  4,  3,  4,  2, 16)=(     0.07404289,     0.17257951)
 Grid integrated density:       8.000000002263
 Requested integration accuracy:   0.10E-19
zora-efg(  4,  3,  5,  1, 17)=(    -0.28710135,    -0.28710135)
zora-efg(  4,  3,  5,  2, 17)=(    -0.22154820,    -0.50864955)
 Grid integrated density:       8.000000002263
 Requested integration accuracy:   0.10E-19
zora-efg(  4,  3,  6,  1, 18)=(    -0.03635098,    -0.03635098)
zora-efg(  4,  3,  6,  2, 18)=(    -0.02463140,    -0.06098238)
xyz_EFG( 1)=(    -0.01113326,     0.08921179,     0.01984515)
 Grid integrated density:       8.000000002263
 Requested integration accuracy:   0.10E-19
zora-efg(  3,  1,  1,  1, 19)=(     0.00004142,     0.00004142)
zora-efg(  3,  1,  1,  2, 19)=(    -0.00003578,     0.00000564)
 Grid integrated density:       8.000000002263
 Requested integration accuracy:   0.10E-19
zora-efg(  3,  1,  2,  1, 20)=(    -0.00000180,    -0.00000180)
zora-efg(  3,  1,  2,  2, 20)=(     0.00001070,     0.00000890)
 Grid integrated density:       8.000000002263
 Requested integration accuracy:   0.10E-19
zora-efg(  3,  1,  3,  1, 21)=(    -0.00003962,    -0.00003962)
zora-efg(  3,  1,  3,  2, 21)=(     0.00002508,    -0.00001454)
 Grid integrated density:       8.000000002263
 Requested integration accuracy:   0.10E-19
zora-efg(  3,  1,  4,  1, 22)=(     0.00003638,     0.00003638)
zora-efg(  3,  1,  4,  2, 22)=(    -0.00003532,     0.00000106)
 Grid integrated density:       8.000000002263
 Requested integration accuracy:   0.10E-19
zora-efg(  3,  1,  5,  1, 23)=(    -0.00002687,    -0.00002687)
zora-efg(  3,  1,  5,  2, 23)=(     0.00001811,    -0.00000876)
 Grid integrated density:       8.000000002263
 Requested integration accuracy:   0.10E-19
zora-efg(  3,  1,  6,  1, 24)=(    -0.00000519,    -0.00000519)
zora-efg(  3,  1,  6,  2, 24)=(     0.00000964,     0.00000445)
xyz_EFG( 2)=(     1.31962754,     1.63258778,    -0.19984535)
 Grid integrated density:       8.000000002263
 Requested integration accuracy:   0.10E-19
zora-efg(  3,  2,  1,  1, 25)=(     0.00001474,     0.00001474)
zora-efg(  3,  2,  1,  2, 25)=(     0.00001434,     0.00002907)
 Grid integrated density:       8.000000002263
 Requested integration accuracy:   0.10E-19
zora-efg(  3,  2,  2,  1, 26)=(     0.00004082,     0.00004082)
zora-efg(  3,  2,  2,  2, 26)=(     0.00003554,     0.00007636)
 Grid integrated density:       8.000000002263
 Requested integration accuracy:   0.10E-19
zora-efg(  3,  2,  3,  1, 27)=(    -0.00005555,    -0.00005555)
zora-efg(  3,  2,  3,  2, 27)=(    -0.00004988,    -0.00010543)
 Grid integrated density:       8.000000002263
 Requested integration accuracy:   0.10E-19
zora-efg(  3,  2,  4,  1, 28)=(     0.00008423,     0.00008423)
zora-efg(  3,  2,  4,  2, 28)=(     0.00007582,     0.00016005)
 Grid integrated density:       8.000000002263
 Requested integration accuracy:   0.10E-19
zora-efg(  3,  2,  5,  1, 29)=(    -0.00001185,    -0.00001185)
zora-efg(  3,  2,  5,  2, 29)=(    -0.00001105,    -0.00002290)
 Grid integrated density:       8.000000002263
 Requested integration accuracy:   0.10E-19
zora-efg(  3,  2,  6,  1, 30)=(    -0.00001379,    -0.00001379)
zora-efg(  3,  2,  6,  2, 30)=(    -0.00001263,    -0.00002643)
xyz_EFG( 3)=(    -1.93544145,    -0.12075430,     0.69401801)
 Grid integrated density:       8.000000002263
 Requested integration accuracy:   0.10E-19
zora-efg(  3,  3,  1,  1, 31)=(     0.00009451,     0.00009451)
zora-efg(  3,  3,  1,  2, 31)=(     0.00008487,     0.00017938)
 Grid integrated density:       8.000000002263
 Requested integration accuracy:   0.10E-19
zora-efg(  3,  3,  2,  1, 32)=(    -0.00005574,    -0.00005574)
zora-efg(  3,  3,  2,  2, 32)=(    -0.00004983,    -0.00010556)
 Grid integrated density:       8.000000002263
 Requested integration accuracy:   0.10E-19
zora-efg(  3,  3,  3,  1, 33)=(    -0.00003877,    -0.00003877)
zora-efg(  3,  3,  3,  2, 33)=(    -0.00003504,    -0.00007381)
 Grid integrated density:       8.000000002263
 Requested integration accuracy:   0.10E-19
zora-efg(  3,  3,  4,  1, 34)=(     0.00001608,     0.00001608)
zora-efg(  3,  3,  4,  2, 34)=(     0.00001558,     0.00003165)
 Grid integrated density:       8.000000002263
 Requested integration accuracy:   0.10E-19
zora-efg(  3,  3,  5,  1, 35)=(    -0.00005334,    -0.00005334)
zora-efg(  3,  3,  5,  2, 35)=(    -0.00004774,    -0.00010108)
 Grid integrated density:       8.000000002263
 Requested integration accuracy:   0.10E-19
zora-efg(  3,  3,  6,  1, 36)=(    -0.00000563,    -0.00000563)
zora-efg(  3,  3,  6,  2, 36)=(    -0.00000542,    -0.00001105)

 Wrote ZORA EFGZ4 data to ./ch2_props4_bp.zora_efgz4



         Total DFT energy =      -39.177318716808
      One electron energy =      -63.920927304076
           Coulomb energy =       24.709003781250
    Exchange-Corr. energy =       -6.082732846687
 Nuclear repulsion energy =        6.117337652705

       Scaling correction =        0.008526237764

 Numeric. integr. density =        7.999999999956

     Total iterative time =     40.7s



                    DFT Final Alpha Molecular Orbital Analysis
                    ------------------------------------------

 Vector    1  Occ=1.000000D+00  E=-9.948333D+00
              MO Center= -5.9D-03,  4.7D-02,  1.0D-02, r^2= 2.8D-02
   Bfn.  Coefficient  Atom+Function         Bfn.  Coefficient  Atom+Function  
  ----- ------------  ---------------      ----- ------------  ---------------
     1      0.565788  1 C  s                  2      0.455976  1 C  s          
     6      0.026947  1 C  s          

 Vector    2  Occ=1.000000D+00  E=-6.135652D-01
              MO Center= -7.4D-02,  2.0D-01,  6.2D-02, r^2= 9.2D-01
   Bfn.  Coefficient  Atom+Function         Bfn.  Coefficient  Atom+Function  
  ----- ------------  ---------------      ----- ------------  ---------------
     6      0.507918  1 C  s                 10      0.364956  1 C  s          
     2     -0.179594  1 C  s                  1     -0.116622  1 C  s          
    20      0.106227  2 H  s                 23      0.106213  3 H  s          
    21      0.096613  2 H  s                 24      0.096605  3 H  s          
     8      0.042386  1 C  py                 4      0.025109  1 C  py         

 Vector    3  Occ=1.000000D+00  E=-4.135261D-01
              MO Center= -8.3D-02,  2.2D-01,  7.0D-02, r^2= 1.2D+00
   Bfn.  Coefficient  Atom+Function         Bfn.  Coefficient  Atom+Function  
  ----- ------------  ---------------      ----- ------------  ---------------
     7      0.277217  1 C  px                21      0.190319  2 H  s          
    24     -0.190328  3 H  s                  3      0.181612  1 C  px         
    20      0.153684  2 H  s                 23     -0.153687  3 H  s          
     8      0.149328  1 C  py                11      0.149852  1 C  px         
     4      0.097829  1 C  py                12      0.080720  1 C  py         

 Vector    4  Occ=1.000000D+00  E=-2.368504D-01
              MO Center=  6.4D-02, -1.1D-01, -4.3D-02, r^2= 1.1D+00
   Bfn.  Coefficient  Atom+Function         Bfn.  Coefficient  Atom+Function  
  ----- ------------  ---------------      ----- ------------  ---------------
    12      0.363958  1 C  py                 8      0.348624  1 C  py         
    10     -0.272255  1 C  s                  4      0.230118  1 C  py         
     6     -0.165256  1 C  s                 11     -0.161986  1 C  px         
     7     -0.155163  1 C  px                13      0.124043  1 C  pz         
     9      0.118818  1 C  pz                 3     -0.102418  1 C  px         

 Vector    5  Occ=1.000000D+00  E=-2.058843D-01
              MO Center= -7.7D-03,  5.1D-02,  1.2D-02, r^2= 1.1D+00
   Bfn.  Coefficient  Atom+Function         Bfn.  Coefficient  Atom+Function  
  ----- ------------  ---------------      ----- ------------  ---------------
    13      0.457743  1 C  pz                 9      0.397339  1 C  pz         
     5      0.261014  1 C  pz                11      0.169175  1 C  px         
     7      0.146850  1 C  px                 3      0.096467  1 C  px         
    12     -0.080712  1 C  py                 8     -0.070062  1 C  py         
     4     -0.046024  1 C  py         

 Vector    6  Occ=0.000000D+00  E= 3.771730D-02
              MO Center= -1.8D-01,  4.5D-01,  1.5D-01, r^2= 4.2D+00
   Bfn.  Coefficient  Atom+Function         Bfn.  Coefficient  Atom+Function  
  ----- ------------  ---------------      ----- ------------  ---------------
    10      1.658718  1 C  s                 22     -1.155287  2 H  s          
    25     -1.155430  3 H  s                 12      0.366831  1 C  py         
     6      0.289162  1 C  s                 11     -0.163337  1 C  px         
    21     -0.163583  2 H  s                 24     -0.163607  3 H  s          
    13      0.125049  1 C  pz                 8      0.108351  1 C  py         

 Vector    7  Occ=0.000000D+00  E= 1.001822D-01
              MO Center= -2.6D-01,  6.1D-01,  2.0D-01, r^2= 4.8D+00
   Bfn.  Coefficient  Atom+Function         Bfn.  Coefficient  Atom+Function  
  ----- ------------  ---------------      ----- ------------  ---------------
    22      1.678821  2 H  s                 25     -1.678561  3 H  s          
    11     -0.964044  1 C  px                12     -0.519312  1 C  py         
    13      0.264727  1 C  pz                 7     -0.227155  1 C  px         
     3     -0.152957  1 C  px                 8     -0.122359  1 C  py         
     4     -0.082393  1 C  py                21      0.078391  2 H  s          

 Vector    8  Occ=0.000000D+00  E= 2.318720D-01
              MO Center= -2.7D-01,  6.4D-01,  2.1D-01, r^2= 2.3D+00
   Bfn.  Coefficient  Atom+Function         Bfn.  Coefficient  Atom+Function  
  ----- ------------  ---------------      ----- ------------  ---------------
    21      1.061150  2 H  s                 24      1.061222  3 H  s          
    10     -0.957264  1 C  s                 12     -0.472420  1 C  py         
    22     -0.441731  2 H  s                 25     -0.441984  3 H  s          
    11      0.210211  1 C  px                13     -0.160991  1 C  pz         
    20      0.115900  2 H  s                 23      0.115911  3 H  s          

 Vector    9  Occ=0.000000D+00  E= 3.313417D-01
              MO Center=  1.4D-01, -2.9D-01, -1.0D-01, r^2= 2.6D+00
   Bfn.  Coefficient  Atom+Function         Bfn.  Coefficient  Atom+Function  
  ----- ------------  ---------------      ----- ------------  ---------------
    11      1.713335  1 C  px                21     -1.264440  2 H  s          
    24      1.264327  3 H  s                 12      0.923059  1 C  py         
    13     -0.470463  1 C  pz                22     -0.172473  2 H  s          
    25      0.172342  3 H  s                 20     -0.068210  2 H  s          
    23      0.068207  3 H  s                 15     -0.062140  1 C  dxy        

 Vector   10  Occ=0.000000D+00  E= 3.607847D-01
              MO Center=  1.8D-01, -3.7D-01, -1.3D-01, r^2= 2.1D+00
   Bfn.  Coefficient  Atom+Function         Bfn.  Coefficient  Atom+Function  
  ----- ------------  ---------------      ----- ------------  ---------------
    12      0.944971  1 C  py                 8     -0.733490  1 C  py         
    10     -0.509092  1 C  s                 11     -0.420768  1 C  px         
     6      0.343370  1 C  s                  7      0.326449  1 C  px         
    13      0.322134  1 C  pz                 9     -0.249985  1 C  pz         
     4     -0.219348  1 C  py                21      0.105127  2 H  s          

 Vector   11  Occ=0.000000D+00  E= 3.609106D-01
              MO Center= -5.9D-03,  4.7D-02,  1.0D-02, r^2= 2.4D+00
   Bfn.  Coefficient  Atom+Function         Bfn.  Coefficient  Atom+Function  
  ----- ------------  ---------------      ----- ------------  ---------------
    13      1.075301  1 C  pz                 9     -0.797421  1 C  pz         
    11      0.397415  1 C  px                 7     -0.294715  1 C  px         
     5     -0.240147  1 C  pz                12     -0.189605  1 C  py         
     8      0.140607  1 C  py                 3     -0.088755  1 C  px         
     4      0.042344  1 C  py         

 Vector   12  Occ=0.000000D+00  E= 5.434468D-01
              MO Center= -1.0D-01,  2.6D-01,  8.4D-02, r^2= 3.2D+00
   Bfn.  Coefficient  Atom+Function         Bfn.  Coefficient  Atom+Function  
  ----- ------------  ---------------      ----- ------------  ---------------
    11      1.736305  1 C  px                22     -1.703117  2 H  s          
    25      1.704559  3 H  s                 12      0.934869  1 C  py         
     7     -0.908128  1 C  px                 8     -0.489008  1 C  py         
    13     -0.476870  1 C  pz                21      0.429329  2 H  s          
    24     -0.429440  3 H  s                  9      0.249405  1 C  pz         

 Vector   13  Occ=0.000000D+00  E= 5.569232D-01
              MO Center= -1.7D-01,  4.2D-01,  1.4D-01, r^2= 3.2D+00
   Bfn.  Coefficient  Atom+Function         Bfn.  Coefficient  Atom+Function  
  ----- ------------  ---------------      ----- ------------  ---------------
    10      3.765666  1 C  s                  6     -1.617528  1 C  s          
    22     -1.367322  2 H  s                 25     -1.365352  3 H  s          
    12      0.585677  1 C  py                19     -0.283481  1 C  dzz        
    17     -0.276271  1 C  dyy               14     -0.269203  1 C  dxx        
    11     -0.259495  1 C  px                 8     -0.253570  1 C  py         

 Vector   14  Occ=0.000000D+00  E= 1.175687D+00
              MO Center= -5.9D-03,  4.7D-02,  1.1D-02, r^2= 7.8D-01
   Bfn.  Coefficient  Atom+Function         Bfn.  Coefficient  Atom+Function  
  ----- ------------  ---------------      ----- ------------  ---------------
    16      1.232420  1 C  dxz               18      0.805319  1 C  dyz        
    14      0.506931  1 C  dxx               19     -0.376642  1 C  dzz        
    17     -0.130289  1 C  dyy               15      0.031235  1 C  dxy        

 Vector   15  Occ=0.000000D+00  E= 1.205399D+00
              MO Center= -5.2D-03,  4.6D-02,  9.9D-03, r^2= 7.9D-01
   Bfn.  Coefficient  Atom+Function         Bfn.  Coefficient  Atom+Function  
  ----- ------------  ---------------      ----- ------------  ---------------
    18     -0.762176  1 C  dyz               15      0.720812  1 C  dxy        
    17     -0.658955  1 C  dyy               16      0.609697  1 C  dxz        
    19      0.567019  1 C  dzz               14      0.093990  1 C  dxx        
    10      0.060457  1 C  s                 21     -0.060260  2 H  s          
    24     -0.060272  3 H  s                 12      0.028679  1 C  py         

 Vector   16  Occ=0.000000D+00  E= 1.208480D+00
              MO Center= -5.2D-03,  4.6D-02,  1.0D-02, r^2= 7.8D-01
   Bfn.  Coefficient  Atom+Function         Bfn.  Coefficient  Atom+Function  
  ----- ------------  ---------------      ----- ------------  ---------------
    18      1.314037  1 C  dyz               15      0.626430  1 C  dxy        
    19      0.476509  1 C  dzz               16     -0.446191  1 C  dxz        
    17     -0.246515  1 C  dyy               14     -0.229993  1 C  dxx        

 Vector   17  Occ=0.000000D+00  E= 1.405005D+00
              MO Center= -1.0D-01,  2.6D-01,  8.3D-02, r^2= 1.6D+00
   Bfn.  Coefficient  Atom+Function         Bfn.  Coefficient  Atom+Function  
  ----- ------------  ---------------      ----- ------------  ---------------
    21      1.306896  2 H  s                 24      1.307396  3 H  s          
    15     -1.131744  1 C  dxy               10     -0.819829  1 C  s          
    16      0.783383  1 C  dxz               14     -0.674502  1 C  dxx        
    19      0.527432  1 C  dzz               20     -0.316370  2 H  s          
    23     -0.316450  3 H  s                 12     -0.299886  1 C  py         

 Vector   18  Occ=0.000000D+00  E= 1.422403D+00
              MO Center=  1.3D-03,  3.1D-02,  5.0D-03, r^2= 1.4D+00
   Bfn.  Coefficient  Atom+Function         Bfn.  Coefficient  Atom+Function  
  ----- ------------  ---------------      ----- ------------  ---------------
    21      1.245554  2 H  s                 24     -1.244850  3 H  s          
    15     -1.086921  1 C  dxy               11     -1.010568  1 C  px         
    17     -0.769910  1 C  dyy               16     -0.661646  1 C  dxz        
    14      0.635986  1 C  dxx               12     -0.544457  1 C  py         
    13      0.277488  1 C  pz                20     -0.196101  2 H  s          

 Vector   19  Occ=0.000000D+00  E= 2.138847D+00
              MO Center= -1.4D-01,  3.6D-01,  1.2D-01, r^2= 1.7D+00
   Bfn.  Coefficient  Atom+Function         Bfn.  Coefficient  Atom+Function  
  ----- ------------  ---------------      ----- ------------  ---------------
    21      1.248244  2 H  s                 24     -1.248552  3 H  s          
    20     -0.924868  2 H  s                 23      0.925130  3 H  s          
    22     -0.794617  2 H  s                 25      0.794797  3 H  s          
     7     -0.691834  1 C  px                 3      0.523644  1 C  px         
     8     -0.372586  1 C  py                11      0.318989  1 C  px         

 Vector   20  Occ=0.000000D+00  E= 2.250464D+00
              MO Center= -1.0D-01,  2.6D-01,  8.3D-02, r^2= 1.5D+00
   Bfn.  Coefficient  Atom+Function         Bfn.  Coefficient  Atom+Function  
  ----- ------------  ---------------      ----- ------------  ---------------
    21      0.944741  2 H  s                 24      0.944480  3 H  s          
    20     -0.905282  2 H  s                 23     -0.905056  3 H  s          
    10      0.844988  1 C  s                 19     -0.575961  1 C  dzz        
    22     -0.576740  2 H  s                 25     -0.576536  3 H  s          
     8     -0.563913  1 C  py                15      0.562104  1 C  dxy        

 Vector   21  Occ=0.000000D+00  E= 2.467510D+00
              MO Center= -4.7D-03,  4.5D-02,  9.6D-03, r^2= 8.0D-01
   Bfn.  Coefficient  Atom+Function         Bfn.  Coefficient  Atom+Function  
  ----- ------------  ---------------      ----- ------------  ---------------
     9      1.355237  1 C  pz                 5     -1.207548  1 C  pz         
    13     -0.551812  1 C  pz                 7      0.500875  1 C  px         
     3     -0.446292  1 C  px                 8     -0.238965  1 C  py         
     4      0.212923  1 C  py                11     -0.203941  1 C  px         
    12      0.097299  1 C  py         

 Vector   22  Occ=0.000000D+00  E= 2.513972D+00
              MO Center=  1.0D-01, -1.9D-01, -7.2D-02, r^2= 8.6D-01
   Bfn.  Coefficient  Atom+Function         Bfn.  Coefficient  Atom+Function  
  ----- ------------  ---------------      ----- ------------  ---------------
     8      1.053057  1 C  py                 4     -0.938476  1 C  py         
     6      0.906232  1 C  s                 10      0.880991  1 C  s          
    19     -0.778670  1 C  dzz               17     -0.693368  1 C  dyy        
    14     -0.544889  1 C  dxx                7     -0.468713  1 C  px         
     3      0.417721  1 C  px                12     -0.380450  1 C  py         

 Vector   23  Occ=0.000000D+00  E= 2.860478D+00
              MO Center= -1.0D-01,  2.7D-01,  8.6D-02, r^2= 9.5D-01
   Bfn.  Coefficient  Atom+Function         Bfn.  Coefficient  Atom+Function  
  ----- ------------  ---------------      ----- ------------  ---------------
    10      1.879668  1 C  s                  6      1.817816  1 C  s          
    14     -1.517522  1 C  dxx               17     -1.315487  1 C  dyy        
    19     -1.189590  1 C  dzz                8     -0.567284  1 C  py         
     2     -0.537736  1 C  s                 20      0.524193  2 H  s          
    23      0.524459  3 H  s                  4      0.423694  1 C  py         

 Vector   24  Occ=0.000000D+00  E= 2.942012D+00
              MO Center= -4.6D-02,  1.4D-01,  4.1D-02, r^2= 8.8D-01
   Bfn.  Coefficient  Atom+Function         Bfn.  Coefficient  Atom+Function  
  ----- ------------  ---------------      ----- ------------  ---------------
     7      1.418165  1 C  px                 3     -1.048423  1 C  px         
    11     -0.903474  1 C  px                 8      0.764095  1 C  py         
    20     -0.660415  2 H  s                 23      0.660100  3 H  s          
     4     -0.564870  1 C  py                12     -0.486767  1 C  py         
     9     -0.389402  1 C  pz                22      0.381028  2 H  s          

 Vector   25  Occ=0.000000D+00  E= 2.588604D+01
              MO Center= -6.3D-03,  4.8D-02,  1.1D-02, r^2= 1.4D-01
   Bfn.  Coefficient  Atom+Function         Bfn.  Coefficient  Atom+Function  
  ----- ------------  ---------------      ----- ------------  ---------------
     2      2.547061  1 C  s                  1     -2.105357  1 C  s          
     6     -1.122477  1 C  s                 10     -0.619415  1 C  s          
    14      0.608694  1 C  dxx               17      0.593175  1 C  dyy        
    19      0.583358  1 C  dzz               22      0.161628  2 H  s          
    25      0.161611  3 H  s                 12     -0.051135  1 C  py         


                     DFT Final Beta Molecular Orbital Analysis
                     -----------------------------------------

 Vector    1  Occ=1.000000D+00  E=-9.920880D+00
              MO Center= -5.9D-03,  4.7D-02,  1.1D-02, r^2= 2.8D-02
   Bfn.  Coefficient  Atom+Function         Bfn.  Coefficient  Atom+Function  
  ----- ------------  ---------------      ----- ------------  ---------------
     1      0.567120  1 C  s                  2      0.456695  1 C  s          

 Vector    2  Occ=1.000000D+00  E=-5.506307D-01
              MO Center= -1.0D-01,  2.6D-01,  8.4D-02, r^2= 9.8D-01
   Bfn.  Coefficient  Atom+Function         Bfn.  Coefficient  Atom+Function  
  ----- ------------  ---------------      ----- ------------  ---------------
     6      0.443709  1 C  s                 10      0.308260  1 C  s          
     2     -0.162318  1 C  s                 21      0.133279  2 H  s          
    24      0.133266  3 H  s                 20      0.119538  2 H  s          
    23      0.119522  3 H  s                  1     -0.107567  1 C  s          
     8      0.072555  1 C  py                15      0.048000  1 C  dxy        

 Vector    3  Occ=1.000000D+00  E=-3.945737D-01
              MO Center= -9.3D-02,  2.4D-01,  7.7D-02, r^2= 1.3D+00
   Bfn.  Coefficient  Atom+Function         Bfn.  Coefficient  Atom+Function  
  ----- ------------  ---------------      ----- ------------  ---------------
     7      0.255498  1 C  px                21      0.214423  2 H  s          
    24     -0.214439  3 H  s                  3      0.173085  1 C  px         
    20      0.160853  2 H  s                 23     -0.160860  3 H  s          
     8      0.137624  1 C  py                11      0.125190  1 C  px         
    22      0.097841  2 H  s                 25     -0.097849  3 H  s          

 Vector    4  Occ=0.000000D+00  E=-1.100759D-01
              MO Center=  9.3D-02, -1.8D-01, -6.6D-02, r^2= 1.3D+00
   Bfn.  Coefficient  Atom+Function         Bfn.  Coefficient  Atom+Function  
  ----- ------------  ---------------      ----- ------------  ---------------
    12      0.441369  1 C  py                10     -0.388413  1 C  s          
     8      0.269613  1 C  py                 4      0.205744  1 C  py         
    11     -0.196433  1 C  px                 6     -0.168023  1 C  s          
    13      0.150424  1 C  pz                 7     -0.119995  1 C  px         
    21      0.097472  2 H  s                 24      0.097478  3 H  s          

 Vector    5  Occ=0.000000D+00  E=-8.574690D-02
              MO Center= -1.3D-02,  6.3D-02,  1.6D-02, r^2= 1.3D+00
   Bfn.  Coefficient  Atom+Function         Bfn.  Coefficient  Atom+Function  
  ----- ------------  ---------------      ----- ------------  ---------------
    13      0.556198  1 C  pz                 9      0.320994  1 C  pz         
     5      0.237088  1 C  pz                11      0.205563  1 C  px         
     7      0.118635  1 C  px                12     -0.098073  1 C  py         
     3      0.087624  1 C  px                 8     -0.056600  1 C  py         
     4     -0.041805  1 C  py                18      0.035329  1 C  dyz        

 Vector    6  Occ=0.000000D+00  E= 5.671658D-02
              MO Center= -1.9D-01,  4.6D-01,  1.5D-01, r^2= 4.4D+00
   Bfn.  Coefficient  Atom+Function         Bfn.  Coefficient  Atom+Function  
  ----- ------------  ---------------      ----- ------------  ---------------
    10      1.789884  1 C  s                 22     -1.219964  2 H  s          
    25     -1.220107  3 H  s                 12      0.379759  1 C  py         
     6      0.240478  1 C  s                 11     -0.169089  1 C  px         
    13      0.129454  1 C  pz                21     -0.126033  2 H  s          
    24     -0.126045  3 H  s                  8      0.107698  1 C  py         

 Vector    7  Occ=0.000000D+00  E= 1.105481D-01
              MO Center= -2.6D-01,  6.2D-01,  2.1D-01, r^2= 4.9D+00
   Bfn.  Coefficient  Atom+Function         Bfn.  Coefficient  Atom+Function  
  ----- ------------  ---------------      ----- ------------  ---------------
    22      1.716331  2 H  s                 25     -1.716080  3 H  s          
    11     -0.957619  1 C  px                12     -0.515850  1 C  py         
    13      0.262963  1 C  pz                 7     -0.207689  1 C  px         
     3     -0.148597  1 C  px                 8     -0.111874  1 C  py         
     4     -0.080044  1 C  py                 9      0.057032  1 C  pz         

 Vector    8  Occ=0.000000D+00  E= 2.629599D-01
              MO Center= -2.7D-01,  6.4D-01,  2.1D-01, r^2= 2.3D+00
   Bfn.  Coefficient  Atom+Function         Bfn.  Coefficient  Atom+Function  
  ----- ------------  ---------------      ----- ------------  ---------------
    21      1.080188  2 H  s                 24      1.080297  3 H  s          
    10     -0.934244  1 C  s                 12     -0.467642  1 C  py         
    22     -0.438655  2 H  s                 25     -0.438881  3 H  s          
    11      0.208117  1 C  px                13     -0.159375  1 C  pz         
    20      0.119059  2 H  s                 23      0.119072  3 H  s          

 Vector    9  Occ=0.000000D+00  E= 3.628866D-01
              MO Center=  1.5D-01, -3.0D-01, -1.1D-01, r^2= 2.5D+00
   Bfn.  Coefficient  Atom+Function         Bfn.  Coefficient  Atom+Function  
  ----- ------------  ---------------      ----- ------------  ---------------
    11      1.762883  1 C  px                21     -1.276045  2 H  s          
    24      1.275889  3 H  s                 12      0.949697  1 C  py         
    13     -0.484078  1 C  pz                22     -0.234077  2 H  s          
    25      0.233962  3 H  s                 20     -0.068033  2 H  s          
    23      0.068025  3 H  s                  7      0.065476  1 C  px         

 Vector   10  Occ=0.000000D+00  E= 4.512173D-01
              MO Center= -6.5D-03,  4.9D-02,  1.1D-02, r^2= 2.2D+00
   Bfn.  Coefficient  Atom+Function         Bfn.  Coefficient  Atom+Function  
  ----- ------------  ---------------      ----- ------------  ---------------
    13      1.034840  1 C  pz                 9     -0.848289  1 C  pz         
    11      0.382461  1 C  px                 7     -0.313515  1 C  px         
     5     -0.247767  1 C  pz                12     -0.182470  1 C  py         
     8      0.149576  1 C  py                 3     -0.091571  1 C  px         
     4      0.043688  1 C  py         

 Vector   11  Occ=0.000000D+00  E= 4.537898D-01
              MO Center=  1.4D-01, -2.9D-01, -1.0D-01, r^2= 2.0D+00
   Bfn.  Coefficient  Atom+Function         Bfn.  Coefficient  Atom+Function  
  ----- ------------  ---------------      ----- ------------  ---------------
    12      0.965708  1 C  py                 8     -0.794319  1 C  py         
    11     -0.429909  1 C  px                 7      0.353533  1 C  px         
    13      0.329168  1 C  pz                 9     -0.270720  1 C  pz         
     4     -0.230640  1 C  py                 6      0.208319  1 C  s          
    22     -0.181249  2 H  s                 25     -0.181308  3 H  s          

 Vector   12  Occ=0.000000D+00  E= 5.683802D-01
              MO Center= -9.7D-02,  2.5D-01,  8.0D-02, r^2= 3.1D+00
   Bfn.  Coefficient  Atom+Function         Bfn.  Coefficient  Atom+Function  
  ----- ------------  ---------------      ----- ------------  ---------------
    11      1.698988  1 C  px                22     -1.660953  2 H  s          
    25      1.661375  3 H  s                  7     -0.927833  1 C  px         
    12      0.915057  1 C  py                 8     -0.499757  1 C  py         
    13     -0.466571  1 C  pz                21      0.448025  2 H  s          
    24     -0.447992  3 H  s                  9      0.254792  1 C  pz         

 Vector   13  Occ=0.000000D+00  E= 6.061370D-01
              MO Center= -1.4D-01,  3.6D-01,  1.2D-01, r^2= 3.1D+00
   Bfn.  Coefficient  Atom+Function         Bfn.  Coefficient  Atom+Function  
  ----- ------------  ---------------      ----- ------------  ---------------
    10      3.749462  1 C  s                  6     -1.639525  1 C  s          
    22     -1.306088  2 H  s                 25     -1.305369  3 H  s          
    12      0.500294  1 C  py                14     -0.311450  1 C  dxx        
    17     -0.296337  1 C  dyy               19     -0.287079  1 C  dzz        
    11     -0.222278  1 C  px                 8     -0.192892  1 C  py         

 Vector   14  Occ=0.000000D+00  E= 1.249492D+00
              MO Center= -5.9D-03,  4.7D-02,  1.1D-02, r^2= 7.8D-01
   Bfn.  Coefficient  Atom+Function         Bfn.  Coefficient  Atom+Function  
  ----- ------------  ---------------      ----- ------------  ---------------
    16      1.232433  1 C  dxz               18      0.805282  1 C  dyz        
    14      0.506937  1 C  dxx               19     -0.376655  1 C  dzz        
    17     -0.130282  1 C  dyy               15      0.031218  1 C  dxy        

 Vector   15  Occ=0.000000D+00  E= 1.346448D+00
              MO Center= -2.5D-03,  4.0D-02,  7.9D-03, r^2= 8.1D-01
   Bfn.  Coefficient  Atom+Function         Bfn.  Coefficient  Atom+Function  
  ----- ------------  ---------------      ----- ------------  ---------------
    15      0.866049  1 C  dxy               18     -0.780372  1 C  dyz        
    17     -0.654989  1 C  dyy               16      0.498087  1 C  dxz        
    19      0.489394  1 C  dzz               21     -0.240681  2 H  s          
    24     -0.240699  3 H  s                 10      0.189475  1 C  s          
    14      0.182985  1 C  dxx               12      0.066134  1 C  py         

 Vector   16  Occ=0.000000D+00  E= 1.355671D+00
              MO Center= -5.3D-04,  3.5D-02,  6.4D-03, r^2= 7.8D-01
   Bfn.  Coefficient  Atom+Function         Bfn.  Coefficient  Atom+Function  
  ----- ------------  ---------------      ----- ------------  ---------------
    18      1.313273  1 C  dyz               15      0.626056  1 C  dxy        
    19      0.476213  1 C  dzz               16     -0.445890  1 C  dxz        
    17     -0.246372  1 C  dyy               14     -0.229842  1 C  dxx        
     5     -0.030847  1 C  pz         

 Vector   17  Occ=0.000000D+00  E= 1.461544D+00
              MO Center= -1.0D-01,  2.6D-01,  8.3D-02, r^2= 1.6D+00
   Bfn.  Coefficient  Atom+Function         Bfn.  Coefficient  Atom+Function  
  ----- ------------  ---------------      ----- ------------  ---------------
    21      1.305493  2 H  s                 24      1.305906  3 H  s          
    15     -0.996879  1 C  dxy               16      0.840479  1 C  dxz        
    10     -0.817276  1 C  s                 14     -0.646618  1 C  dxx        
    19      0.580162  1 C  dzz               20     -0.355811  2 H  s          
    23     -0.355889  3 H  s                 12     -0.287325  1 C  py         

 Vector   18  Occ=0.000000D+00  E= 1.479087D+00
              MO Center=  3.1D-03,  2.7D-02,  3.7D-03, r^2= 1.4D+00
   Bfn.  Coefficient  Atom+Function         Bfn.  Coefficient  Atom+Function  
  ----- ------------  ---------------      ----- ------------  ---------------
    21      1.256423  2 H  s                 24     -1.255823  3 H  s          
    15     -1.077357  1 C  dxy               11     -1.000034  1 C  px         
    17     -0.763194  1 C  dyy               16     -0.655884  1 C  dxz        
    14      0.630457  1 C  dxx               12     -0.538766  1 C  py         
    13      0.274599  1 C  pz                20     -0.227630  2 H  s          

 Vector   19  Occ=0.000000D+00  E= 2.153520D+00
              MO Center= -1.4D-01,  3.5D-01,  1.1D-01, r^2= 1.7D+00
   Bfn.  Coefficient  Atom+Function         Bfn.  Coefficient  Atom+Function  
  ----- ------------  ---------------      ----- ------------  ---------------
    21      1.221055  2 H  s                 24     -1.221345  3 H  s          
    20     -0.924249  2 H  s                 23      0.924501  3 H  s          
    22     -0.785575  2 H  s                 25      0.785745  3 H  s          
     7     -0.670149  1 C  px                 3      0.513533  1 C  px         
     8     -0.360916  1 C  py                15      0.331324  1 C  dxy        

 Vector   20  Occ=0.000000D+00  E= 2.282808D+00
              MO Center= -9.8D-02,  2.5D-01,  8.1D-02, r^2= 1.5D+00
   Bfn.  Coefficient  Atom+Function         Bfn.  Coefficient  Atom+Function  
  ----- ------------  ---------------      ----- ------------  ---------------
    20     -0.920818  2 H  s                 21      0.924583  2 H  s          
    23     -0.920603  3 H  s                 24      0.924347  3 H  s          
    10      0.876746  1 C  s                 19     -0.621538  1 C  dzz        
    15      0.615589  1 C  dxy               22     -0.572049  2 H  s          
    25     -0.571853  3 H  s                  8     -0.477921  1 C  py         

 Vector   21  Occ=0.000000D+00  E= 2.584328D+00
              MO Center= -3.5D-03,  4.2D-02,  8.7D-03, r^2= 7.7D-01
   Bfn.  Coefficient  Atom+Function         Bfn.  Coefficient  Atom+Function  
  ----- ------------  ---------------      ----- ------------  ---------------
     9      1.344578  1 C  pz                 5     -1.210595  1 C  pz         
    13     -0.538626  1 C  pz                 7      0.496936  1 C  px         
     3     -0.447418  1 C  px                 8     -0.237085  1 C  py         
     4      0.213460  1 C  py                11     -0.199068  1 C  px         
    12      0.094974  1 C  py         

 Vector   22  Occ=0.000000D+00  E= 2.638688D+00
              MO Center=  9.7D-02, -1.8D-01, -6.9D-02, r^2= 8.0D-01
   Bfn.  Coefficient  Atom+Function         Bfn.  Coefficient  Atom+Function  
  ----- ------------  ---------------      ----- ------------  ---------------
     8      1.110690  1 C  py                 4     -0.992292  1 C  py         
     6      0.793559  1 C  s                 10      0.703147  1 C  s          
    19     -0.671244  1 C  dzz               17     -0.594224  1 C  dyy        
     7     -0.494371  1 C  px                 3      0.441679  1 C  px         
    14     -0.440658  1 C  dxx               12     -0.403978  1 C  py         

 Vector   23  Occ=0.000000D+00  E= 2.934859D+00
              MO Center= -9.5D-02,  2.5D-01,  7.9D-02, r^2= 9.5D-01
   Bfn.  Coefficient  Atom+Function         Bfn.  Coefficient  Atom+Function  
  ----- ------------  ---------------      ----- ------------  ---------------
    10      1.909233  1 C  s                  6      1.892102  1 C  s          
    14     -1.546560  1 C  dxx               17     -1.356740  1 C  dyy        
    19     -1.239653  1 C  dzz                2     -0.556949  1 C  s          
     8     -0.513265  1 C  py                20      0.484940  2 H  s          
    23      0.485486  3 H  s                 22     -0.415098  2 H  s          

 Vector   24  Occ=0.000000D+00  E= 2.975849D+00
              MO Center= -4.5D-02,  1.4D-01,  4.1D-02, r^2= 8.7D-01
   Bfn.  Coefficient  Atom+Function         Bfn.  Coefficient  Atom+Function  
  ----- ------------  ---------------      ----- ------------  ---------------
     7      1.422736  1 C  px                 3     -1.054124  1 C  px         
    11     -0.898815  1 C  px                 8      0.766692  1 C  py         
    20     -0.650371  2 H  s                 23      0.649854  3 H  s          
     4     -0.568037  1 C  py                12     -0.484342  1 C  py         
     9     -0.390634  1 C  pz                22      0.384292  2 H  s          

 Vector   25  Occ=0.000000D+00  E= 2.593458D+01
              MO Center= -6.3D-03,  4.8D-02,  1.1D-02, r^2= 1.4D-01
   Bfn.  Coefficient  Atom+Function         Bfn.  Coefficient  Atom+Function  
  ----- ------------  ---------------      ----- ------------  ---------------
     2      2.548008  1 C  s                  1     -2.104832  1 C  s          
     6     -1.125885  1 C  s                 10     -0.619261  1 C  s          
    14      0.610160  1 C  dxx               17      0.594248  1 C  dyy        
    19      0.584238  1 C  dzz               22      0.161600  2 H  s          
    25      0.161583  3 H  s                 12     -0.051154  1 C  py         


   alpha - beta orbital overlaps 
   ----------------------------- 


   alpha      1      2      3      4      5      6      7      8      9     10
    beta      1      2      3      4      5      6      7      8      9     11
 overlap   1.000  0.994  0.999  0.991  0.995  0.997  0.998  0.998  0.999  0.991


   alpha     11     12     13     14     15     16     17     18     19     20
    beta     10     12     13     14     15     16     17     18     19     20
 overlap   0.995  0.999  0.994  1.000  0.990  1.000  0.989  0.999  0.999  0.997


   alpha     21     22     23     24     25
    beta     21     22     23     24     25
 overlap   1.000  0.996  0.998  1.000  1.000

     --------------------------
     Expectation value of S2:  
     --------------------------
      <S2> =      2.0057 (Exact =     2.0000)


 center of mass
 --------------
 x =  -0.05381355 y =   0.18509345 z =   0.05252566

 moments of inertia (a.u.)
 ------------------
           2.807967633785          -2.534492470381           1.582561809270
          -2.534492470381           5.982926667838           0.528296823286
           1.582561809270           0.528296823286           7.807417870267

     Multipole analysis of the density
     ---------------------------------

     L   x y z        total         alpha         beta         nuclear
     -   - - -        -----         -----         ----         -------
     0   0 0 0     -0.000000     -5.000000     -3.000000      8.000000

     1   1 0 0     -0.102996      0.200507      0.379110     -0.682613
     1   0 1 0      0.231419     -0.771398     -1.044287      2.047104
     1   0 0 1      0.078871     -0.210123     -0.324250      0.613244

     2   2 0 0     -4.683157     -5.986660     -4.184591      5.488094
     2   1 1 0      0.571698     -0.584065     -1.226399      2.382161
     2   1 0 1     -0.427990      0.382712      0.797576     -1.608278
     2   0 2 0     -5.340480     -5.321632     -2.746525      2.727677
     2   0 1 1     -0.074909      0.101400      0.223139     -0.399448
     2   0 0 2     -5.968969     -4.796054     -1.696878      0.523962


               ZORA NMR Hyperfine
               ------------------


            Hyperfine Tensor (in au)
            ------------------------


int_init: setting std/high accuracies to  1.0D-32  1.0D-64
  int_init: cando_txs set to always be  F
nat_slc=   3
 In hnd_hyperfine_zora:: atomnr(  1)=    1
 In hnd_hyperfine_zora:: atomnr(  2)=    2
 In hnd_hyperfine_zora:: atomnr(  3)=    3
(con,gnu,isonr,const_hfine)(  1,  1)=(    95.52131600,     1.40482200, 13,   134.19044619)
(con,gnu,isonr,const_hfine)(  2,  2)=(    95.52131600,     5.58568920,  1,   533.55238316)
(con,gnu,isonr,const_hfine)(  3,  3)=(    95.52131600,     5.58568920,  1,   533.55238316)

 Read ZORA NMR data from ./ch2_props4_bp.zora_nmrhyp

                                NWChem CPHF Module
                                ------------------



int_init: setting std/high accuracies to  1.0D-32  1.0D-64
  int_init: cando_txs set to always be  F
  scftype          =     UHF 
  nalpha           =        5
  nbeta            =        3
  variables        =      166
  # of vectors     =        3
  tolerance        = 0.10D-03
  level shift      = 0.00D+00
  max iterations   =       50
  max subspace     =       30

 Grid integrated density:       7.999999999956
 Requested integration accuracy:   0.10E-19
 SCF residual:    5.8259605064764637E-007


Iterative solution of linear equations
  No. of variables      166
  No. of equations        3
  Maximum subspace       30
        Iterations       50
       Convergence  1.0D-04
        Start time     41.7


   iter   nsub   residual    time
   ----  ------  --------  ---------
     1      3    3.58D-11      42.1

 Wrote CPHF data to ./ch2_props4_bp.zora_hypcphf


int_init: setting std/high accuracies to  1.0D-32  1.0D-64
  int_init: cando_txs set to always be  F
NATOMS=  3
NW:(dia,par,dia+par)(1,1,1)=(     1.08663176     -0.00000000      1.08663176 )
NW:(dia,par,dia+par)(1,2,1)=(    -0.31438536     -0.00000000     -0.31438536 )
NW:(dia,par,dia+par)(1,3,1)=(     0.19877896     -0.00000000      0.19877896 )
NW:(dia,par,dia+par)(2,1,1)=(    -0.31438536     -0.00000000     -0.31438536 )
NW:(dia,par,dia+par)(2,2,1)=(     1.47903022     -0.00000000      1.47903022 )
NW:(dia,par,dia+par)(2,3,1)=(     0.06409868     -0.00000000      0.06409868 )
NW:(dia,par,dia+par)(3,1,1)=(     0.19877896     -0.00000000      0.19877896 )
NW:(dia,par,dia+par)(3,2,1)=(     0.06409868     -0.00000000      0.06409868 )
NW:(dia,par,dia+par)(3,3,1)=(     1.71230347     -0.00000000      1.71230347 )
NW:(dia,par,dia+par)(1,1,2)=(    -0.02284747     -0.00000000     -0.02284747 )
NW:(dia,par,dia+par)(1,2,2)=(     0.05673883     -0.00000000      0.05673883 )
NW:(dia,par,dia+par)(1,3,2)=(    -0.00567811     -0.00000000     -0.00567811 )
NW:(dia,par,dia+par)(2,1,2)=(     0.05673883     -0.00000000      0.05673883 )
NW:(dia,par,dia+par)(2,2,2)=(    -0.00979596     -0.00000000     -0.00979596 )
NW:(dia,par,dia+par)(2,3,2)=(    -0.01118666     -0.00000000     -0.01118666 )
NW:(dia,par,dia+par)(3,1,2)=(    -0.00567811     -0.00000000     -0.00567811 )
NW:(dia,par,dia+par)(3,2,2)=(    -0.01118666     -0.00000000     -0.01118666 )
NW:(dia,par,dia+par)(3,3,2)=(    -0.06515468     -0.00000000     -0.06515468 )
NW:(dia,par,dia+par)(1,1,3)=(     0.02924279     -0.00000000      0.02924279 )
NW:(dia,par,dia+par)(1,2,3)=(     0.01224614     -0.00000000      0.01224614 )
NW:(dia,par,dia+par)(1,3,3)=(    -0.03277477     -0.00000000     -0.03277477 )
NW:(dia,par,dia+par)(2,1,3)=(     0.01224614     -0.00000000      0.01224614 )
NW:(dia,par,dia+par)(2,2,3)=(    -0.07284195     -0.00000000     -0.07284195 )
NW:(dia,par,dia+par)(2,3,3)=(    -0.00585913     -0.00000000     -0.00585913 )
NW:(dia,par,dia+par)(3,1,3)=(    -0.03277477     -0.00000000     -0.03277477 )
NW:(dia,par,dia+par)(3,2,3)=(    -0.00585913     -0.00000000     -0.00585913 )
NW:(dia,par,dia+par)(3,3,3)=(    -0.05419975     -0.00000000     -0.05419975 )
      Atom:    1  C 

 ----- A-tensor in atomic units ----         ------------- A (MHz) ------------

 FC, SD terms:
  isotropic    A(au)      1.4260                           A(MHz)    191.3540
      1.0866     -0.3144      0.1988           145.8156    -42.1875     26.6742
     -0.3144      1.4790      0.0641           -42.1875    198.4717      8.6014
      0.1988      0.0641      1.7123            26.6742      8.6014    229.7748

 PSO-Spin-Orbit terms:
  isotropic    A(au)     -0.0000                           A(MHz)     -0.0000
     -0.0000     -0.0000     -0.0000            -0.0000     -0.0000     -0.0000
     -0.0000     -0.0000     -0.0000            -0.0000     -0.0000     -0.0000
     -0.0000     -0.0000     -0.0000            -0.0000     -0.0000     -0.0000

 Total hyperfine coupling tensor:
  isotropic    A(au)      1.4260                           A(MHz)    191.3540
      1.0866     -0.3144      0.1988           145.8156    -42.1875     26.6742
     -0.3144      1.4790      0.0641           -42.1875    198.4717      8.6014
      0.1988      0.0641      1.7123            26.6742      8.6014    229.7748

 In principal axis representation: total span,skew and asymm
        span        skew       asymm               span        skew       asymm
      0.9118     -0.7068      2.2328           122.3502    -94.8444    299.6256

 Principal Components and Axis System
        1           2           3                 1           2           3
      0.8627      1.6408      1.7745           115.7663    220.1793    238.1165

1     0.8557     -0.3882      0.3420
2     0.4610      0.8723     -0.1632
3    -0.2350      0.2973      0.9254



      Atom:    2  H 

 ----- A-tensor in atomic units ----         ------------- A (MHz) ------------

 FC, SD terms:
  isotropic    A(au)     -0.0326                           A(MHz)    -17.3935
     -0.0228      0.0567     -0.0057           -12.1903     30.2731     -3.0296
      0.0567     -0.0098     -0.0112            30.2731     -5.2267     -5.9687
     -0.0057     -0.0112     -0.0652            -3.0296     -5.9687    -34.7634

 PSO-Spin-Orbit terms:
  isotropic    A(au)     -0.0000                           A(MHz)     -0.0000
     -0.0000     -0.0000     -0.0000            -0.0000     -0.0000     -0.0000
[...]
   Atom      X         Y         Z
 ------------------------------------------------------------
    3 H   -1.93544  -0.12075   0.69402
 ------------------------------------------------------------

 Electric field gradient in molecular frame (a.u.)
         XX             YY             ZZ             XY             XZ             YZ
 ------------------------------------------------------------------------------------------
       -0.259059       0.146648       0.112411      -0.049911       0.147658       0.015338

 Principal components (a.u.) and orientation 
 of principal axis w.r.t. absolute frame                      Asymmetry parameter eta
 --------------------------------------------------------------------------------------
       -0.316480       0.164278       0.152201                       0.038162

        0.938349       0.342020      -0.050238
        0.111956      -0.163176       0.980224
       -0.327059       0.925417       0.191407
  

int_init: setting std/high accuracies to  1.0D-32  1.0D-64
  int_init: cando_txs set to always be  F

          --------------------------
          Z4-Electric field gradient
          --------------------------

 1 a.u. = 0.324123 10**(16) esu/cm**3  ( or statvolts/cm**2 ) = 0.97174 10**(22) v/m**2 

 nat_slc=                    3
In hnd_efgmap_z4:: atomnr(  1)=    1
In hnd_efgmap_z4:: atomnr(  2)=    2
In hnd_efgmap_z4:: atomnr(  3)=    3

 Read ZORA EFGZ4 data from ./ch2_props4_bp.zora_efgz4

Atom(  1,  1)=(    -0.01113326,     0.08921179,     0.01984515)
Atom(  2,  2)=(     1.31962754,     1.63258778,    -0.19984535)
Atom(  3,  3)=(    -1.93544145,    -0.12075430,     0.69401801)
====> Electronic contribution to EFG in molecular frame (a.u.)
                     XX            YY            ZZ            XY            XZ            YZ
                ----------------------------------------------------------------------------------
  ANALYT(C )=(   0.33107547,  -0.11991235,  -0.21116312,   0.33572649,  -0.15592395,  -0.10096750)
  NUMERI(C )=(   0.33107538,  -0.11991232,  -0.21116305,   0.33572640,  -0.15592391,  -0.10096748)
  ANALYT(H )=(   0.15812889,   0.37294912,  -0.53107801,   0.81314328,  -0.11856460,  -0.13767513)
  NUMERI(H )=(   0.15812889,   0.37294913,  -0.53107801,   0.81314329,  -0.11856460,  -0.13767513)
  ANALYT(H )=(   0.90803297,  -0.53469368,  -0.37333929,   0.17257951,  -0.50864955,  -0.06098238)
  NUMERI(H )=(   0.90803297,  -0.53469368,  -0.37333929,   0.17257951,  -0.50864955,  -0.06098238)
Atom(  1,  1)=(    -0.01113326,     0.08921179,     0.01984515)
Atom(  2,  2)=(     1.31962754,     1.63258778,    -0.19984535)
Atom(  3,  3)=(    -1.93544145,    -0.12075430,     0.69401801)
====> Electronic contribution to EFG in molecular frame (a.u.)
                     XX            YY            ZZ            XY            XZ            YZ
                ----------------------------------------------------------------------------------
EFG-elec(C )=(   0.33106946,  -0.11991042,  -0.21115904,   0.33572050,  -0.15592098,  -0.10096581)
EFG-rhoS(C )=(   0.00000564,   0.00000890,  -0.00001454,   0.00000106,  -0.00000876,   0.00000445)
EFG-tot (C )=(   0.33107510,  -0.11990152,  -0.21117358,   0.33572156,  -0.15592974,  -0.10096136)
EFG-elec(H )=(   0.15809938,   0.37287370,  -0.53097309,   0.81298365,  -0.11854166,  -0.13764860)
EFG-rhoS(H )=(   0.00002907,   0.00007636,  -0.00010543,   0.00016005,  -0.00002290,  -0.00002643)
EFG-tot (H )=(   0.15812846,   0.37295006,  -0.53107852,   0.81314370,  -0.11856455,  -0.13767503)
EFG-elec(H )=(   0.90785422,  -0.53458847,  -0.37326576,   0.17254737,  -0.50854898,  -0.06097111)
EFG-rhoS(H )=(   0.00017938,  -0.00010556,  -0.00007381,   0.00003165,  -0.00010108,  -0.00001105)
EFG-tot (H )=(   0.90803360,  -0.53469403,  -0.37333957,   0.17257902,  -0.50865006,  -0.06098217)

 ------------------------------------------------------------
   Atom      X         Y         Z
 ------------------------------------------------------------
    1 C   -0.01113   0.08921   0.01985
 ------------------------------------------------------------

 Electric field gradient in molecular frame (a.u.)
         XX             YY             ZZ             XY             XZ             YZ
 ------------------------------------------------------------------------------------------
        0.109458      -0.088843      -0.020615       0.131906      -0.024128      -0.061108

 Principal components (a.u.) and orientation 
 of principal axis w.r.t. absolute frame                      Asymmetry parameter eta
 --------------------------------------------------------------------------------------
        0.187146      -0.168389      -0.018758                       0.799539

        0.855721      -0.388282       0.342020
        0.461008       0.872264      -0.163176
       -0.234974       0.297307       0.925417
  

 ------------------------------------------------------------
   Atom      X         Y         Z
 ------------------------------------------------------------
    2 H    1.31963   1.63259  -0.19985
 ------------------------------------------------------------

 Electric field gradient in molecular frame (a.u.)
         XX             YY             ZZ             XY             XZ             YZ
 ------------------------------------------------------------------------------------------
       -0.047976      -0.108865       0.156841      -0.230265       0.037860       0.036932

 Principal components (a.u.) and orientation 
 of principal axis w.r.t. absolute frame                      Asymmetry parameter eta
 --------------------------------------------------------------------------------------
       -0.316563       0.164321       0.152242                       0.038157

        0.655816       0.342020       0.672999
        0.746759      -0.163176      -0.644767
       -0.110706       0.925417      -0.362420
  

 ------------------------------------------------------------
   Atom      X         Y         Z
 ------------------------------------------------------------
    3 H   -1.93544  -0.12075   0.69402
 ------------------------------------------------------------

 Electric field gradient in molecular frame (a.u.)
         XX             YY             ZZ             XY             XZ             YZ
 ------------------------------------------------------------------------------------------
       -0.259058       0.146648       0.112410      -0.049911       0.147658       0.015338

 Principal components (a.u.) and orientation 
 of principal axis w.r.t. absolute frame                      Asymmetry parameter eta
 --------------------------------------------------------------------------------------
       -0.316479       0.164278       0.152201                       0.038161

        0.938349       0.342020      -0.050239
        0.111957      -0.163176       0.980224
       -0.327059       0.925417       0.191408
  

            Scalar ZORA NMR Shielding
            -------------------------


          -----------------------------------------
          Chemical Shielding Tensors (GIAO, in ppm)
          -----------------------------------------


int_init: setting std/high accuracies to  1.0D-32  1.0D-64
  int_init: cando_txs set to always be  F

 Read ZORA NMR data from ./ch2_props4_bp.zora_nmrcs

    0 giaofock schwarz done =     100.00%
    0 giaofock schwarz done =     100.00%
    0 giaofock schwarz done =     100.00%
    0 giaofock schwarz done =     100.00%
 Grid integrated density:       7.999999999956
 Requested integration accuracy:   0.10E-19
                                NWChem CPHF Module
                                ------------------



int_init: setting std/high accuracies to  1.0D-32  1.0D-64
  int_init: cando_txs set to always be  F
  scftype          =     UHF 
  nalpha           =        5
  nbeta            =        3
  variables        =      166
  # of vectors     =        3
  tolerance        = 0.10D-03
  level shift      = 0.00D+00
  max iterations   =       50
  max subspace     =       30

 Grid integrated density:       7.999999999956
 Requested integration accuracy:   0.10E-19
 SCF residual:    5.8259605089566048E-007


Iterative solution of linear equations
  No. of variables      166
  No. of equations        3
  Maximum subspace       30
        Iterations       50
       Convergence  1.0D-04
        Start time     43.0


   iter   nsub   residual    time
   ----  ------  --------  ---------
     1      3    4.04D-07      43.4

 Wrote CPHF data to ./ch2_props4_bp.shieldcphf


int_init: setting std/high accuracies to  1.0D-32  1.0D-64
  int_init: cando_txs set to always be  F
 Calc. par tensor-> zora
      Atom:    1  C 
        Diamagnetic
    263.1367      3.5621     -2.5236
      3.5621    258.8450     -0.5696
     -2.5236     -0.5696    255.4412

        Paramagnetic
    -60.0236     64.4268    -37.2891
     64.4268   -142.3996    -15.1260
    -37.2891    -15.1260   -180.5414

        Total Shielding Tensor
    203.1131     67.9890    -39.8127
     67.9890    116.4454    -15.6956
    -39.8127    -15.6956     74.8999

           isotropic =     131.4861
          anisotropy =     178.7731

          Principal Components and Axis System
                 1           2           3
              250.6682     80.8369     62.9533

      1         0.8557     -0.3882      0.3420
      2         0.4609      0.8723     -0.1632
      3        -0.2350      0.2973      0.9254



      Atom:    2  H 
        Diamagnetic
     30.6691      6.7662     -1.1101
      6.7662     32.4584     -1.0864
     -1.1101     -1.0864     24.6562

        Paramagnetic
      2.5385     -1.9955     -0.2859
     -1.9955     -2.0669     -0.1060
     -0.2859     -0.1060      2.8040

        Total Shielding Tensor
     33.2075      4.7707     -1.3959
      4.7707     30.3915     -1.1924
     -1.3959     -1.1924     27.4601

           isotropic =      30.3530
          anisotropy =      10.1521

          Principal Components and Axis System
                 1           2           3
               37.1211     27.1544     26.7836

      1         0.7856      0.3420     -0.5156
      2         0.5900     -0.1632      0.7908
      3        -0.1863      0.9254      0.3300



      Atom:    3  H 
        Diamagnetic
     36.8727      1.4662     -4.3377
      1.4662     24.9472     -0.4518
     -4.3377     -0.4518     25.9600

        Paramagnetic
     -1.5733      1.5164      1.8531
      1.5164      2.9102     -0.5264
      1.8531     -0.5264      1.9395

        Total Shielding Tensor
     35.2993      2.9826     -2.4846
      2.9826     27.8574     -0.9782
     -2.4846     -0.9782     27.8995

           isotropic =      30.3520
          anisotropy =      10.1512

          Principal Components and Axis System
                 1           2           3
               37.1195     27.1537     26.7830

      1         0.9054      0.3420     -0.2516
      2         0.3209     -0.1632      0.9329
      3        -0.2780      0.9254      0.2575




                  ZORA g-Shift
                  ------------


             g-Shift Tensor (in ppm)
             -----------------------


int_init: setting std/high accuracies to  1.0D-32  1.0D-64
  int_init: cando_txs set to always be  F

 Read ZORA NMR data from ./ch2_props4_bp.zora_nmrgshift


 Read ZORA NMR data from ./ch2_props4_bp.zora_nmrgshift_AB

nocc=(  5,  3) nclos=(  0,  0) nvirt=( 20, 22) scftyp=UHF)
 coeffpol=   2.0000000000000000     
    0 giaofock schwarz done =     100.00%
    0 giaofock schwarz done =     100.00%
    0 giaofock schwarz done =     100.00%
    0 giaofock schwarz done =     100.00%
 Grid integrated density:       7.999999999956
 Requested integration accuracy:   0.10E-19
                                NWChem CPHF Module
                                ------------------



int_init: setting std/high accuracies to  1.0D-32  1.0D-64
  int_init: cando_txs set to always be  F
  scftype          =     UHF 
  nalpha           =        5
  nbeta            =        3
  variables        =      166
  # of vectors     =        3
  tolerance        = 0.10D-03
  level shift      = 0.00D+00
  max iterations   =       50
  max subspace     =       30

 Grid integrated density:       7.999999999956
 Requested integration accuracy:   0.10E-19
 SCF residual:    5.8259605041645794E-007


Iterative solution of linear equations
  No. of variables      166
  No. of equations        3
  Maximum subspace       30
        Iterations       50
       Convergence  1.0D-04
        Start time     44.3


   iter   nsub   residual    time
   ----  ------  --------  ---------
     1      3    4.04D-07      44.7

 Wrote CPHF data to ./ch2_props4_bp.zora_gshiftcphf


int_init: setting std/high accuracies to  1.0D-32  1.0D-64
  int_init: cando_txs set to always be  F
NW-1:(dia,gauge,OO,OV,Totpar)(1,1)=(   -0.411983     0.000019     0.040975    -0.063044    -0.022049 )
NW-1:(dia,gauge,OO,OV,Totpar)(1,2)=(    0.006158    -0.000009    -0.023275     0.024518     0.001234 )
NW-1:(dia,gauge,OO,OV,Totpar)(1,3)=(   -0.004684     0.000053     0.012404    -0.021562    -0.009105 )
NW-1:(dia,gauge,OO,OV,Totpar)(2,1)=(    0.006158    -0.000009    -0.023276     0.024517     0.001231 )
NW-1:(dia,gauge,OO,OV,Totpar)(2,2)=(   -0.419219     0.000004     0.071345    -0.090210    -0.018861 )
NW-1:(dia,gauge,OO,OV,Totpar)(2,3)=(   -0.000799    -0.000025     0.006082    -0.001502     0.004555 )
NW-1:(dia,gauge,OO,OV,Totpar)(3,1)=(   -0.004684     0.000053     0.012403    -0.021562    -0.009106 )
NW-1:(dia,gauge,OO,OV,Totpar)(3,2)=(   -0.000799    -0.000025     0.006081    -0.001502     0.004554 )
NW-1:(dia,gauge,OO,OV,Totpar)(3,3)=(   -0.426004     0.000143     0.082129    -0.125378    -0.043106 )
NW-2:(dia,gauge,OO,OV,Totpar)(1,1)=(   -0.397773    -0.000088     0.000664    -0.105885    -0.105310 )
NW-2:(dia,gauge,OO,OV,Totpar)(1,2)=(    0.003665     0.000042    -0.000317     0.134424     0.134150 )
NW-2:(dia,gauge,OO,OV,Totpar)(1,3)=(   -0.001937    -0.000239     0.001795    -0.070244    -0.068687 )
NW-2:(dia,gauge,OO,OV,Totpar)(2,1)=(    0.003665     0.000042    -0.000317     0.134424     0.134149 )
NW-2:(dia,gauge,OO,OV,Totpar)(2,2)=(   -0.402564    -0.000020     0.000151    -0.282050    -0.281919 )
NW-2:(dia,gauge,OO,OV,Totpar)(2,3)=(   -0.000967     0.000114    -0.000857    -0.035922    -0.036665 )
NW-2:(dia,gauge,OO,OV,Totpar)(3,1)=(   -0.001937    -0.000239     0.001795    -0.070244    -0.068687 )
NW-2:(dia,gauge,OO,OV,Totpar)(3,2)=(   -0.000967     0.000114    -0.000857    -0.035923    -0.036665 )
NW-2:(dia,gauge,OO,OV,Totpar)(3,3)=(   -0.404218    -0.000646     0.004858    -0.340452    -0.336240 )
NW-T:(dia,gauge,OO,OV,Totpar)(1,1)=(   -0.014210     0.000108     0.040312     0.042842     0.083261 )
NW-T:(dia,gauge,OO,OV,Totpar)(1,2)=(    0.002492    -0.000051    -0.022958    -0.109906    -0.132916 )
NW-T:(dia,gauge,OO,OV,Totpar)(1,3)=(   -0.002747     0.000291     0.010608     0.048682     0.059581 )
NW-T:(dia,gauge,OO,OV,Totpar)(2,1)=(    0.002492    -0.000051    -0.022960    -0.109907    -0.132918 )
NW-T:(dia,gauge,OO,OV,Totpar)(2,2)=(   -0.016655     0.000025     0.071194     0.191840     0.263058 )
NW-T:(dia,gauge,OO,OV,Totpar)(2,3)=(    0.000168    -0.000139     0.006938     0.034421     0.041220 )
NW-T:(dia,gauge,OO,OV,Totpar)(3,1)=(   -0.002747     0.000291     0.010608     0.048682     0.059581 )
NW-T:(dia,gauge,OO,OV,Totpar)(3,2)=(    0.000168    -0.000139     0.006938     0.034421     0.041219 )
NW-T:(dia,gauge,OO,OV,Totpar)(3,3)=(   -0.021786     0.000789     0.077271     0.215074     0.293134 )
        Diamagnetic
     -0.0142      0.0025     -0.0027
      0.0025     -0.0167      0.0002
     -0.0027      0.0002     -0.0218

        Paramagnetic
      0.0833     -0.1329      0.0596
     -0.1329      0.2631      0.0412
      0.0596      0.0412      0.2931

        Total g shift Tensor
      0.0691     -0.1304      0.0568
     -0.1304      0.2464      0.0414
      0.0568      0.0414      0.2713

           isotropic =       0.1956
          anisotropy =       0.1844

          Principal Components and Axis System
                 1           2           3
                0.3186      0.2851     -0.0168

      1        -0.3882      0.3420      0.8557
      2         0.8723     -0.1632      0.4610
      3         0.2973      0.9254     -0.2350




 Task  times  cpu:       44.6s     wall:       44.7s


                                NWChem Input Module
                                -------------------


 Summary of allocated global arrays
-----------------------------------
  No active global arrays



                         GA Statistics for process    0
                         ------------------------------

       create   destroy   get      put      acc     scatter   gather  read&inc
calls: 1957     1954     6.12e+05 5045     3.96e+04  195        0      623     
number of processes/call 1.01e+00 2.05e+00 1.26e+00 0.00e+00 0.00e+00
bytes total:             4.44e+07 5.60e+06 2.73e+07 9.60e+02 0.00e+00 4.98e+03
bytes remote:            7.91e+06 1.81e+06 6.93e+06 -4.80e+01 0.00e+00 0.00e+00
Max memory consumed for GA by this process: 1099072 bytes

MA_summarize_allocated_blocks: starting scan ...
MA_summarize_allocated_blocks: scan completed: 0 heap blocks, 0 stack blocks
MA usage statistics:

	allocation statistics:
					      heap	     stack
					      ----	     -----
	current number of blocks	         0	         0
	maximum number of blocks	        58	        86
	current total bytes		         0	         0
	maximum total bytes		   4254120	  22521800
	maximum total K-bytes		      4255	     22522
	maximum total M-bytes		         5	        23


                                     CITATION
                                     --------
                Please cite the following reference when publishing
                           results obtained with NWChem:

                 M. Valiev, E.J. Bylaska, N. Govind, K. Kowalski,
              T.P. Straatsma, H.J.J. van Dam, D. Wang, J. Nieplocha,
                        E. Apra, T.L. Windus, W.A. de Jong
                 "NWChem: a comprehensive and scalable open-source
                  solution for large scale molecular simulations"
                      Comput. Phys. Commun. 181, 1477 (2010)
                           doi:10.1016/j.cpc.2010.04.018

                                      AUTHORS
                                      -------
          E. Apra, E. J. Bylaska, W. A. de Jong, N. Govind, K. Kowalski,
       T. P. Straatsma, M. Valiev, H. J. J. van Dam, D. Wang, T. L. Windus,
        J. Hammond, J. Autschbach, K. Bhaskaran-Nair, J. Brabec, K. Lopata,
    S. A. Fischer, S. Krishnamoorthy, M. Jacquelin, W. Ma, M. Klemm, O. Villa,
      Y. Chen, V. Anisimov, F. Aquino, S. Hirata, M. T. Hackler, V. Konjkov,
            D. Mejia-Rodriguez, T. Risthaus, M. Malagoli, A. Marenich,
   A. Otero-de-la-Roza, J. Mullin, P. Nichols, R. Peverati, J. Pittner, Y. Zhao,
        P.-D. Fan, A. Fonari, M. J. Williamson, R. J. Harrison, J. R. Rehr,
      M. Dupuis, D. Silverstein, D. M. A. Smith, J. Nieplocha, V. Tipparaju,
    M. Krishnan, B. E. Van Kuiken, A. Vazquez-Mayagoitia, L. Jensen, M. Swart,
      Q. Wu, T. Van Voorhis, A. A. Auer, M. Nooijen, L. D. Crosby, E. Brown,
      G. Cisneros, G. I. Fann, H. Fruchtl, J. Garza, K. Hirao, R. A. Kendall,
      J. A. Nichols, K. Tsemekhman, K. Wolinski, J. Anchell, D. E. Bernholdt,
      P. Borowski, T. Clark, D. Clerc, H. Dachsel, M. J. O. Deegan, K. Dyall,
    D. Elwood, E. Glendening, M. Gutowski, A. C. Hess, J. Jaffe, B. G. Johnson,
     J. Ju, R. Kobayashi, R. Kutteh, Z. Lin, R. Littlefield, X. Long, B. Meng,
      T. Nakajima, S. Niu, L. Pollack, M. Rosing, K. Glaesemann, G. Sandrone,
      M. Stave, H. Taylor, G. Thomas, J. H. van Lenthe, A. T. Wong, Z. Zhang.

 Total times  cpu:       44.6s     wall:       44.7s
[0] ARMCI Warning: Freed 1 leaked allocations
