 argument  1 = /home/list1234/source/nwchem-6.8.1-release/QA/tests/ch3f_trans/ch3f_trans.nw



============================== echo of input deck ==============================
echo
start

title ch3ft

geometry noautoz units angstrom nocenter
symmetry c1
c +1.00000000  +3.00000000  +5.00000000
f +1.00000000  +3.00000000  +6.38300000
h +2.02800000  +3.00000000  +4.65000000
h +0.48600000  +3.89000000  +4.65000000
h +0.48600000  +2.11000000  +4.65000000
end

BASIS "ao basis" PRINT
* library 6-311G
END

charge 0

dft
  xc b3lyp
end

property
  shielding
end

task dft property
================================================================================


                                         
                                         


              Northwest Computational Chemistry Package (NWChem) 6.8
              ------------------------------------------------------


                    Environmental Molecular Sciences Laboratory
                       Pacific Northwest National Laboratory
                                Richland, WA 99352

                              Copyright (c) 1994-2018
                       Pacific Northwest National Laboratory
                            Battelle Memorial Institute

             NWChem is an open-source computational chemistry package
                        distributed under the terms of the
                      Educational Community License (ECL) 2.0
             A copy of the license is included with this distribution
                              in the LICENSE.TXT file

                                  ACKNOWLEDGMENT
                                  --------------

            This software and its documentation were developed at the
            EMSL at Pacific Northwest National Laboratory, a multiprogram
            national laboratory, operated for the U.S. Department of Energy
            by Battelle under Contract Number DE-AC05-76RL01830. Support
            for this work was provided by the Department of Energy Office
            of Biological and Environmental Research, Office of Basic
            Energy Sciences, and the Office of Advanced Scientific Computing.


           Job information
           ---------------

    hostname        = list1234-B360M-H
    program         = /home/list1234/source/nwchem-6.8.1-release/bin/LINUX64/nwchem
    date            = Sun Jun 30 13:29:50 2019

    compiled        = Sun_Jun_30_11:55:59_2019
    source          = /home/list1234/source/nwchem-6.8.1-release
    nwchem branch   = Development
    nwchem revision = N/A
    ga revision     = 5.6.5
    use scalapack   = T
    input           = /home/list1234/source/nwchem-6.8.1-release/QA/tests/ch3f_trans/ch3f_trans.nw
    prefix          = ch3f_trans.
    data base       = ./ch3f_trans.db
    status          = startup
    nproc           =        4
    time left       =     -1s



           Memory information
           ------------------

    heap     =   86247162 doubles =    658.0 Mbytes
    stack    =   86247167 doubles =    658.0 Mbytes
    global   =  172494336 doubles =   1316.0 Mbytes (distinct from heap & stack)
    total    =  344988665 doubles =   2632.1 Mbytes
    verify   = yes
    hardfail = no 


           Directory information
           ---------------------

  0 permanent = .
  0 scratch   = .




                                NWChem Input Module
                                -------------------


                                       ch3ft
                                       -----

 Scaling coordinates for geometry "geometry" by  1.889725989
 (inverse scale =  0.529177249)

 Turning off AUTOSYM since
 SYMMETRY directive was detected!



                             Geometry "geometry" -> ""
                             -------------------------

 Output coordinates in angstroms (scale by  1.889725989 to convert to a.u.)

  No.       Tag          Charge          X              Y              Z
 ---- ---------------- ---------- -------------- -------------- --------------
    1 c                    6.0000     1.00000000     3.00000000     5.00000000
    2 f                    9.0000     1.00000000     3.00000000     6.38300000
    3 h                    1.0000     2.02800000     3.00000000     4.65000000
    4 h                    1.0000     0.48600000     3.89000000     4.65000000
    5 h                    1.0000     0.48600000     2.11000000     4.65000000

      Atomic Mass 
      ----------- 

      c                 12.000000
      f                 18.998400
      h                  1.007825


 Effective nuclear repulsion energy (a.u.)      37.4174025949

            Nuclear Dipole moment (a.u.) 
            ----------------------------
        X                 Y               Z
 ---------------- ---------------- ----------------
    34.0150677944   102.0452033833   191.6125460640


            XYZ format geometry
            -------------------
     5
 geometry
 c                     1.00000000     3.00000000     5.00000000
 f                     1.00000000     3.00000000     6.38300000
 h                     2.02800000     3.00000000     4.65000000
 h                     0.48600000     3.89000000     4.65000000
 h                     0.48600000     2.11000000     4.65000000

 ==============================================================================
                                internuclear distances
 ------------------------------------------------------------------------------
       center one      |      center two      | atomic units |  angstroms
 ------------------------------------------------------------------------------
    2 f                |   1 c                |     2.61349  |     1.38300
    3 h                |   1 c                |     2.05214  |     1.08595
    4 h                |   1 c                |     2.05172  |     1.08572
    5 h                |   1 c                |     2.05172  |     1.08572
 ------------------------------------------------------------------------------
                         number of included internuclear distances:          4
 ==============================================================================



 ==============================================================================
                                 internuclear angles
 ------------------------------------------------------------------------------
        center 1       |       center 2       |       center 3       |  degrees
 ------------------------------------------------------------------------------
    2 f                |   1 c                |   3 h                |   108.80
    2 f                |   1 c                |   4 h                |   108.81
    2 f                |   1 c                |   5 h                |   108.81
    3 h                |   1 c                |   4 h                |   110.14
    3 h                |   1 c                |   5 h                |   110.14
    4 h                |   1 c                |   5 h                |   110.12
 ------------------------------------------------------------------------------
                            number of included internuclear angles:          6
 ==============================================================================





 Summary of "ao basis" -> "" (cartesian)
 ------------------------------------------------------------------------------
       Tag                 Description            Shells   Functions and Types
 ---------------- ------------------------------  ------  ---------------------
 *                           6-311G                   on all atoms 


                              NWChem Property Module
                              ----------------------


                                       ch3ft

  itol2e modified to match energy
  convergence criterion.

                                 NWChem DFT Module
                                 -----------------


                                       ch3ft


                      Basis "ao basis" -> "ao basis" (cartesian)
                      -----
  c (Carbon)
  ----------
            Exponent  Coefficients 
       -------------- ---------------------------------------------------------
  1 S  4.56324000E+03  0.001967
  1 S  6.82024000E+02  0.015231
  1 S  1.54973000E+02  0.076127
  1 S  4.44553000E+01  0.260801
  1 S  1.30290000E+01  0.616462
  1 S  1.82773000E+00  0.221006

  2 S  2.09642000E+01  0.114660
  2 S  4.80331000E+00  0.919999
  2 S  1.45933000E+00 -0.003031

  3 P  2.09642000E+01  0.040249
  3 P  4.80331000E+00  0.237594
  3 P  1.45933000E+00  0.815854

  4 S  4.83456000E-01  1.000000

  5 P  4.83456000E-01  1.000000

  6 S  1.45585000E-01  1.000000

  7 P  1.45585000E-01  1.000000

  f (Fluorine)
  ------------
            Exponent  Coefficients 
       -------------- ---------------------------------------------------------
  1 S  1.14271000E+04  0.001801
  1 S  1.72235000E+03  0.013742
  1 S  3.95746000E+02  0.068133
  1 S  1.15139000E+02  0.233325
  1 S  3.36026000E+01  0.589086
  1 S  4.91901000E+00  0.299505

  2 S  5.54441000E+01  0.114536
  2 S  1.26323000E+01  0.920512
  2 S  3.71756000E+00 -0.003378

  3 P  5.54441000E+01  0.035461
  3 P  1.26323000E+01  0.237451
  3 P  3.71756000E+00  0.820458

  4 S  1.16545000E+00  1.000000

  5 P  1.16545000E+00  1.000000

  6 S  3.21892000E-01  1.000000

  7 P  3.21892000E-01  1.000000

  h (Hydrogen)
  ------------
            Exponent  Coefficients 
       -------------- ---------------------------------------------------------
  1 S  3.38650000E+01  0.025494
  1 S  5.09479000E+00  0.190373
  1 S  1.15879000E+00  0.852161

  2 S  3.25840000E-01  1.000000

  3 S  1.02741000E-01  1.000000



 Summary of "ao basis" -> "ao basis" (cartesian)
 ------------------------------------------------------------------------------
       Tag                 Description            Shells   Functions and Types
 ---------------- ------------------------------  ------  ---------------------
 c                           6-311G                  7       13   4s3p
 f                           6-311G                  7       13   4s3p
 h                           6-311G                  3        3   3s




 Summary of "ao basis" -> "ao basis" (cartesian)
 ------------------------------------------------------------------------------
       Tag                 Description            Shells   Functions and Types
 ---------------- ------------------------------  ------  ---------------------
 c                           6-311G                  7       13   4s3p
 f                           6-311G                  7       13   4s3p
 h                           6-311G                  3        3   3s


  Caching 1-el integrals 
  itol2e modified to match energy
  convergence criterion.

            General Information
            -------------------
          SCF calculation type: DFT
          Wavefunction type:  closed shell.
          No. of atoms     :     5
          No. of electrons :    18
           Alpha electrons :     9
            Beta electrons :     9
          Charge           :     0
          Spin multiplicity:     1
          Use of symmetry is: off; symmetry adaption is: off
          Maximum number of iterations:  30
          AO basis - number of functions:    35
                     number of shells:    23
          Convergence on energy requested:  1.00D-07
          Convergence on density requested:  1.00D-05
          Convergence on gradient requested:  5.00D-04

              XC Information
              --------------
                         B3LYP Method XC Potential
                     Hartree-Fock (Exact) Exchange  0.200          
                        Slater Exchange Functional  0.800 local    
                    Becke 1988 Exchange Functional  0.720 non-local
              Lee-Yang-Parr Correlation Functional  0.810          
                  VWN I RPA Correlation Functional  0.190 local    

             Grid Information
             ----------------
          Grid used for XC integration:  fine      
          Radial quadrature: Mura-Knowles        
          Angular quadrature: Lebedev. 
          Tag              B.-S. Rad. Rad. Pts. Rad. Cut. Ang. Pts.
          ---              ---------- --------- --------- ---------
          c                   0.70       70           7.0       590
          f                   0.50       70           7.0       590
          h                   0.35       60           8.0       590
          Grid pruning is: on 
          Number of quadrature shells:   320
          Spatial weights used:  Erf1

          Convergence Information
          -----------------------
          Convergence aids based upon iterative change in 
          total energy or number of iterations. 
          Levelshifting, if invoked, occurs when the 
          HOMO/LUMO gap drops below (HL_TOL):  1.00D-02
          DIIS, if invoked, will attempt to extrapolate 
          using up to (NFOCK): 10 stored Fock matrices.

                    Damping( 0%)  Levelshifting(0.5)       DIIS
                  --------------- ------------------- ---------------
          dE  on:    start            ASAP                start   
          dE off:    2 iters         30 iters            30 iters 


      Screening Tolerance Information
      -------------------------------
          Density screening/tol_rho:  1.00D-11
          AO Gaussian exp screening on grid/accAOfunc:  16
          CD Gaussian exp screening on grid/accCDfunc:  20
          XC Gaussian exp screening on grid/accXCfunc:  20
          Schwarz screening/accCoul:  1.00D-08


      Superposition of Atomic Density Guess
      -------------------------------------

 Sum of atomic energies:        -138.57325452

      Non-variational initial energy
      ------------------------------

 Total energy =    -139.229769
 1-e energy   =    -264.952728
 2-e energy   =      88.305556
 HOMO         =      -0.441631
 LUMO         =       0.112239

   Time after variat. SCF:      0.1
   Time prior to 1st pass:      0.1

 #quartets = 3.714D+04 #integrals = 1.407D+05 #direct =  0.0% #cached =100.0%


 Integral file          = ./ch3f_trans.aoints.0
 Record size in doubles =  65536        No. of integs per rec  =  43688
 Max. records in memory =      3        Max. records in file   = 161657
 No. of bits per label  =      8        No. of bits per value  =     64


File balance: exchanges=     0  moved=     0  time=   0.0


 Grid_pts file          = ./ch3f_trans.gridpts.0
 Record size in doubles =  12289        No. of grid_pts per rec  =   3070
 Max. records in memory =     18        Max. recs in file   =    862104


           Memory utilization after 1st SCF pass: 
           Heap Space remaining (MW):       85.83            85827346
          Stack Space remaining (MW):       86.25            86246804

   convergence    iter        energy       DeltaE   RMS-Dens  Diis-err    time
 ---------------- ----- ----------------- --------- --------- ---------  ------
 d= 0,ls=0.0,diis     1   -139.7045943018 -1.77D+02  1.78D-02  5.05D-01     0.2
 d= 0,ls=0.0,diis     2   -139.6932256934  1.14D-02  1.02D-02  6.68D-01     0.2
 d= 0,ls=0.0,diis     3   -139.7494356987 -5.62D-02  1.59D-03  3.42D-02     0.3
 d= 0,ls=0.0,diis     4   -139.7513769924 -1.94D-03  6.05D-04  1.59D-03     0.3
 d= 0,ls=0.0,diis     5   -139.7515473687 -1.70D-04  1.23D-04  7.02D-05     0.4
  Resetting Diis
 d= 0,ls=0.0,diis     6   -139.7515542074 -6.84D-06  5.14D-06  8.51D-08     0.5
 d= 0,ls=0.0,diis     7   -139.7515542166 -9.23D-09  3.96D-07  1.74D-10     0.5


         Total DFT energy =     -139.751554216595
      One electron energy =     -266.590801447808
           Coulomb energy =      106.458589139391
    Exchange-Corr. energy =      -17.036744503085
 Nuclear repulsion energy =       37.417402594906

 Numeric. integr. density =       18.000000078446

     Total iterative time =      0.5s



                       DFT Final Molecular Orbital Analysis
                       ------------------------------------

 Vector    1  Occ=2.000000D+00  E=-2.464175D+01
              MO Center=  1.0D+00,  3.0D+00,  6.4D+00, r^2= 1.2D-02
   Bfn.  Coefficient  Atom+Function         Bfn.  Coefficient  Atom+Function  
  ----- ------------  ---------------      ----- ------------  ---------------
    14      0.547666  2 F  s                 15      0.471996  2 F  s          

 Vector    2  Occ=2.000000D+00  E=-1.024407D+01
              MO Center=  1.0D+00,  3.0D+00,  5.0D+00, r^2= 2.8D-02
   Bfn.  Coefficient  Atom+Function         Bfn.  Coefficient  Atom+Function  
  ----- ------------  ---------------      ----- ------------  ---------------
     1      0.562841  1 C  s                  2      0.464020  1 C  s          

 Vector    3  Occ=2.000000D+00  E=-1.190496D+00
              MO Center=  1.0D+00,  3.0D+00,  6.2D+00, r^2= 4.2D-01
   Bfn.  Coefficient  Atom+Function         Bfn.  Coefficient  Atom+Function  
  ----- ------------  ---------------      ----- ------------  ---------------
    19      0.574054  2 F  s                 23      0.457116  2 F  s          
    15     -0.193907  2 F  s                  6      0.144400  1 C  s          
    14     -0.119889  2 F  s                 22     -0.082945  2 F  pz         
     9      0.067558  1 C  pz                 2     -0.054584  1 C  s          
    26     -0.054194  2 F  pz                 5      0.047375  1 C  pz         

 Vector    4  Occ=2.000000D+00  E=-7.086882D-01
              MO Center=  1.0D+00,  3.0D+00,  5.1D+00, r^2= 1.3D+00
   Bfn.  Coefficient  Atom+Function         Bfn.  Coefficient  Atom+Function  
  ----- ------------  ---------------      ----- ------------  ---------------
     6      0.466242  1 C  s                 10      0.313846  1 C  s          
    23     -0.217525  2 F  s                 19     -0.193018  2 F  s          
     2     -0.166818  1 C  s                 22     -0.113096  2 F  pz         
     1     -0.104708  1 C  s                 27      0.093001  3 H  s          
    30      0.093065  4 H  s                 33      0.093065  5 H  s          

 Vector    5  Occ=2.000000D+00  E=-4.879169D-01
              MO Center=  1.1D+00,  3.0D+00,  5.4D+00, r^2= 1.4D+00
   Bfn.  Coefficient  Atom+Function         Bfn.  Coefficient  Atom+Function  
  ----- ------------  ---------------      ----- ------------  ---------------
     7      0.280212  1 C  px                20      0.248014  2 F  px         
    24      0.213798  2 F  px                 3      0.177889  1 C  px         
    11      0.176880  1 C  px                16      0.173471  2 F  px         
    28      0.147454  3 H  s                 27      0.131922  3 H  s          
    31     -0.073888  4 H  s                 34     -0.073888  5 H  s          

 Vector    6  Occ=2.000000D+00  E=-4.879107D-01
              MO Center=  8.7D-01,  3.0D+00,  5.4D+00, r^2= 1.4D+00
   Bfn.  Coefficient  Atom+Function         Bfn.  Coefficient  Atom+Function  
  ----- ------------  ---------------      ----- ------------  ---------------
     8      0.280211  1 C  py                21      0.248024  2 F  py         
    25      0.213815  2 F  py                 4      0.177903  1 C  py         
    12      0.176857  1 C  py                17      0.173479  2 F  py         
    31      0.127800  4 H  s                 34     -0.127800  5 H  s          
    30      0.114365  4 H  s                 33     -0.114365  5 H  s          

 Vector    7  Occ=2.000000D+00  E=-4.814896D-01
              MO Center=  1.0D+00,  3.0D+00,  5.9D+00, r^2= 1.3D+00
   Bfn.  Coefficient  Atom+Function         Bfn.  Coefficient  Atom+Function  
  ----- ------------  ---------------      ----- ------------  ---------------
    22      0.358055  2 F  pz                26      0.317884  2 F  pz         
     9     -0.251757  1 C  pz                18      0.250164  2 F  pz         
     5     -0.157556  1 C  pz                23      0.141847  2 F  s          
    19      0.127100  2 F  s                 10      0.099828  1 C  s          
    13     -0.070221  1 C  pz                27      0.052296  3 H  s          

 Vector    8  Occ=2.000000D+00  E=-3.432665D-01
              MO Center=  1.1D+00,  3.0D+00,  5.8D+00, r^2= 1.4D+00
   Bfn.  Coefficient  Atom+Function         Bfn.  Coefficient  Atom+Function  
  ----- ------------  ---------------      ----- ------------  ---------------
    24      0.393264  2 F  px                20      0.375975  2 F  px         
    16      0.271087  2 F  px                28     -0.221432  3 H  s          
     7     -0.179204  1 C  px                 3     -0.120628  1 C  px         
    27     -0.120844  3 H  s                 31      0.110716  4 H  s          
    34      0.110714  5 H  s                 29     -0.103645  3 H  s          

 Vector    9  Occ=2.000000D+00  E=-3.432624D-01
              MO Center=  8.8D-01,  3.0D+00,  5.8D+00, r^2= 1.4D+00
   Bfn.  Coefficient  Atom+Function         Bfn.  Coefficient  Atom+Function  
  ----- ------------  ---------------      ----- ------------  ---------------
    25      0.393259  2 F  py                21      0.375969  2 F  py         
    17      0.271083  2 F  py                31     -0.191767  4 H  s          
    34      0.191768  5 H  s                  8     -0.179216  1 C  py         
     4     -0.120651  1 C  py                30     -0.104659  4 H  s          
    33      0.104660  5 H  s                 32     -0.089758  4 H  s          

 Vector   10  Occ=0.000000D+00  E= 4.747254D-02
              MO Center=  1.0D+00,  3.0D+00,  4.5D+00, r^2= 4.7D+00
   Bfn.  Coefficient  Atom+Function         Bfn.  Coefficient  Atom+Function  
  ----- ------------  ---------------      ----- ------------  ---------------
    10      1.913423  1 C  s                 29     -0.923940  3 H  s          
    32     -0.923595  4 H  s                 35     -0.923595  5 H  s          
    13     -0.385917  1 C  pz                 6      0.191504  1 C  s          
     9     -0.101764  1 C  pz                 2     -0.088726  1 C  s          
     5     -0.076417  1 C  pz                28     -0.064916  3 H  s          

 Vector   11  Occ=0.000000D+00  E= 9.454699D-02
              MO Center=  1.0D+00,  3.0D+00,  5.1D+00, r^2= 2.2D+00
   Bfn.  Coefficient  Atom+Function         Bfn.  Coefficient  Atom+Function  
  ----- ------------  ---------------      ----- ------------  ---------------
    13      1.122326  1 C  pz                23     -0.834990  2 F  s          
    10      0.579702  1 C  s                 26      0.485124  2 F  pz         
     9      0.269633  1 C  pz                22      0.217584  2 F  pz         
     6      0.177960  1 C  s                  5      0.166918  1 C  pz         
    18      0.161726  2 F  pz                19     -0.161914  2 F  s          

 Vector   12  Occ=0.000000D+00  E= 1.052204D-01
              MO Center=  1.7D+00,  3.0D+00,  4.5D+00, r^2= 4.3D+00
   Bfn.  Coefficient  Atom+Function         Bfn.  Coefficient  Atom+Function  
  ----- ------------  ---------------      ----- ------------  ---------------
    29      1.984873  3 H  s                 11     -1.083521  1 C  px         
    32     -0.992818  4 H  s                 35     -0.992818  5 H  s          
     7     -0.254684  1 C  px                 3     -0.177265  1 C  px         
    24      0.106205  2 F  px                28      0.060474  3 H  s          
    31     -0.030353  4 H  s                 34     -0.030353  5 H  s          

 Vector   13  Occ=0.000000D+00  E= 1.052441D-01
              MO Center=  2.7D-01,  3.0D+00,  4.5D+00, r^2= 4.3D+00
   Bfn.  Coefficient  Atom+Function         Bfn.  Coefficient  Atom+Function  
  ----- ------------  ---------------      ----- ------------  ---------------
    32      1.719579  4 H  s                 35     -1.719579  5 H  s          
    12     -1.083502  1 C  py                 8     -0.254651  1 C  py         
     4     -0.177252  1 C  py                25      0.106187  2 F  py         
    31      0.052415  4 H  s                 34     -0.052415  5 H  s          
    21      0.029659  2 F  py                17      0.029296  2 F  py         

 Vector   14  Occ=0.000000D+00  E= 3.037365D-01
              MO Center=  1.2D+00,  3.0D+00,  5.0D+00, r^2= 2.9D+00
   Bfn.  Coefficient  Atom+Function         Bfn.  Coefficient  Atom+Function  
  ----- ------------  ---------------      ----- ------------  ---------------
    12      1.576068  1 C  py                31     -1.138217  4 H  s          
    34      1.138218  5 H  s                 25     -0.278000  2 F  py         
    32      0.191138  4 H  s                 35     -0.191138  5 H  s          
    21     -0.099719  2 F  py                17     -0.083207  2 F  py         
    30     -0.076817  4 H  s                 33      0.076817  5 H  s          

 Vector   15  Occ=0.000000D+00  E= 3.037760D-01
              MO Center=  7.8D-01,  3.0D+00,  5.0D+00, r^2= 2.9D+00
   Bfn.  Coefficient  Atom+Function         Bfn.  Coefficient  Atom+Function  
  ----- ------------  ---------------      ----- ------------  ---------------
    11      1.576242  1 C  px                28     -1.314805  3 H  s          
    31      0.656952  4 H  s                 34      0.656951  5 H  s          
    24     -0.278032  2 F  px                29      0.221176  3 H  s          
    32     -0.110036  4 H  s                 35     -0.110036  5 H  s          
    20     -0.099733  2 F  px                27     -0.088732  3 H  s          

 Vector   16  Occ=0.000000D+00  E= 4.233398D-01
              MO Center=  1.0D+00,  3.0D+00,  4.9D+00, r^2= 2.0D+00
   Bfn.  Coefficient  Atom+Function         Bfn.  Coefficient  Atom+Function  
  ----- ------------  ---------------      ----- ------------  ---------------
    13      1.192317  1 C  pz                 9     -0.751496  1 C  pz         
    10     -0.638135  1 C  s                 28      0.518183  3 H  s          
    31      0.518646  4 H  s                 34      0.518646  5 H  s          
     6     -0.509738  1 C  s                  5     -0.260637  1 C  pz         
    23     -0.250512  2 F  s                 22     -0.234429  2 F  pz         

 Vector   17  Occ=0.000000D+00  E= 4.734899D-01
              MO Center=  1.0D+00,  3.0D+00,  4.9D+00, r^2= 2.6D+00
   Bfn.  Coefficient  Atom+Function         Bfn.  Coefficient  Atom+Function  
  ----- ------------  ---------------      ----- ------------  ---------------
    10      1.711062  1 C  s                 28     -1.119222  3 H  s          
    31     -1.119920  4 H  s                 34     -1.119920  5 H  s          
     9     -0.538334  1 C  pz                23     -0.482213  2 F  s          
    13      0.339578  1 C  pz                29      0.273794  3 H  s          
    32      0.271612  4 H  s                 35      0.271612  5 H  s          

 Vector   18  Occ=0.000000D+00  E= 5.538186D-01
              MO Center=  1.3D+00,  3.0D+00,  4.8D+00, r^2= 3.0D+00
   Bfn.  Coefficient  Atom+Function         Bfn.  Coefficient  Atom+Function  
  ----- ------------  ---------------      ----- ------------  ---------------
    11      1.931510  1 C  px                29     -1.931535  3 H  s          
     7     -1.045807  1 C  px                32      0.965956  4 H  s          
    35      0.965956  5 H  s                 28      0.518681  3 H  s          
     3     -0.273734  1 C  px                31     -0.260576  4 H  s          
    34     -0.260576  5 H  s                 24     -0.137050  2 F  px         

 Vector   19  Occ=0.000000D+00  E= 5.538599D-01
              MO Center=  7.4D-01,  3.0D+00,  4.8D+00, r^2= 3.0D+00
   Bfn.  Coefficient  Atom+Function         Bfn.  Coefficient  Atom+Function  
  ----- ------------  ---------------      ----- ------------  ---------------
    12      1.931228  1 C  py                32     -1.673184  4 H  s          
    35      1.673184  5 H  s                  8     -1.045851  1 C  py         
    31      0.450204  4 H  s                 34     -0.450204  5 H  s          
     4     -0.273735  1 C  py                25     -0.137009  2 F  py         
    30      0.076058  4 H  s                 33     -0.076058  5 H  s          

 Vector   20  Occ=0.000000D+00  E= 7.118885D-01
              MO Center=  1.0D+00,  3.0D+00,  4.7D+00, r^2= 2.9D+00
   Bfn.  Coefficient  Atom+Function         Bfn.  Coefficient  Atom+Function  
  ----- ------------  ---------------      ----- ------------  ---------------
    10      5.078251  1 C  s                  6     -2.066262  1 C  s          
    29     -0.936946  3 H  s                 32     -0.937889  4 H  s          
    35     -0.937889  5 H  s                 13     -0.548236  1 C  pz         
    23     -0.519731  2 F  s                 28     -0.452233  3 H  s          
    31     -0.452204  4 H  s                 34     -0.452204  5 H  s          

 Vector   21  Occ=0.000000D+00  E= 1.028747D+00
              MO Center=  1.0D+00,  3.0D+00,  6.9D+00, r^2= 9.3D-01
   Bfn.  Coefficient  Atom+Function         Bfn.  Coefficient  Atom+Function  
  ----- ------------  ---------------      ----- ------------  ---------------
    26      1.357455  2 F  pz                22     -0.722864  2 F  pz         
     6      0.571194  1 C  s                 19     -0.425374  2 F  s          
     9      0.402098  1 C  pz                23      0.265516  2 F  s          
    18     -0.216548  2 F  pz                10     -0.208714  1 C  s          
    13     -0.095157  1 C  pz                15      0.076638  2 F  s          

 Vector   22  Occ=0.000000D+00  E= 1.055289D+00
              MO Center=  1.0D+00,  3.0D+00,  6.4D+00, r^2= 1.4D+00
   Bfn.  Coefficient  Atom+Function         Bfn.  Coefficient  Atom+Function  
  ----- ------------  ---------------      ----- ------------  ---------------
    25      1.337624  2 F  py                21     -0.783445  2 F  py         
    12     -0.744028  1 C  py                31      0.292631  4 H  s          
    34     -0.292630  5 H  s                 17     -0.260713  2 F  py         
    32      0.118321  4 H  s                 35     -0.118321  5 H  s          
     8     -0.063201  1 C  py         

 Vector   23  Occ=0.000000D+00  E= 1.055308D+00
              MO Center=  9.6D-01,  3.0D+00,  6.4D+00, r^2= 1.4D+00
   Bfn.  Coefficient  Atom+Function         Bfn.  Coefficient  Atom+Function  
  ----- ------------  ---------------      ----- ------------  ---------------
    24      1.337677  2 F  px                20     -0.783448  2 F  px         
    11     -0.744275  1 C  px                28      0.337858  3 H  s          
    16     -0.260711  2 F  px                31     -0.169193  4 H  s          
    34     -0.169194  5 H  s                 29      0.136531  3 H  s          
    32     -0.068429  4 H  s                 35     -0.068429  5 H  s          

 Vector   24  Occ=0.000000D+00  E= 1.699204D+00
              MO Center=  1.0D+00,  3.0D+00,  6.0D+00, r^2= 1.3D+00
   Bfn.  Coefficient  Atom+Function         Bfn.  Coefficient  Atom+Function  
  ----- ------------  ---------------      ----- ------------  ---------------
    23      2.998966  2 F  s                 10     -2.717296  1 C  s          
    19     -1.780414  2 F  s                 26     -1.350024  2 F  pz         
     9     -0.659294  1 C  pz                13     -0.482309  1 C  pz         
    28      0.459366  3 H  s                 31      0.459579  4 H  s          
    34      0.459579  5 H  s                 22      0.290105  2 F  pz         

 Vector   25  Occ=0.000000D+00  E= 2.175484D+00
              MO Center=  1.0D+00,  3.0D+00,  4.7D+00, r^2= 2.1D+00
   Bfn.  Coefficient  Atom+Function         Bfn.  Coefficient  Atom+Function  
  ----- ------------  ---------------      ----- ------------  ---------------
    28      1.462776  3 H  s                 31      1.462334  4 H  s          
    34      1.462334  5 H  s                 10     -1.301262  1 C  s          
    27     -0.869046  3 H  s                 30     -0.868616  4 H  s          
    33     -0.868616  5 H  s                 23      0.470968  2 F  s          
     9      0.381038  1 C  pz                 5     -0.323848  1 C  pz         

 Vector   26  Occ=0.000000D+00  E= 2.192195D+00
              MO Center=  1.5D+00,  3.0D+00,  4.6D+00, r^2= 1.8D+00
   Bfn.  Coefficient  Atom+Function         Bfn.  Coefficient  Atom+Function  
  ----- ------------  ---------------      ----- ------------  ---------------
    28      1.771274  3 H  s                 27     -1.158399  3 H  s          
    29     -0.977698  3 H  s                 31     -0.886305  4 H  s          
    34     -0.886305  5 H  s                  7     -0.700419  1 C  px         
    30      0.579504  4 H  s                 33      0.579504  5 H  s          
     3      0.493220  1 C  px                32      0.488801  4 H  s          

 Vector   27  Occ=0.000000D+00  E= 2.192238D+00
              MO Center=  4.8D-01,  3.0D+00,  4.6D+00, r^2= 1.8D+00
   Bfn.  Coefficient  Atom+Function         Bfn.  Coefficient  Atom+Function  
  ----- ------------  ---------------      ----- ------------  ---------------
    31      1.534485  4 H  s                 34     -1.534485  5 H  s          
    30     -1.003459  4 H  s                 33      1.003458  5 H  s          
    32     -0.846753  4 H  s                 35      0.846752  5 H  s          
     8     -0.700117  1 C  py                 4      0.493070  1 C  py         
    12      0.114007  1 C  py                25      0.053398  2 F  py         

 Vector   28  Occ=0.000000D+00  E= 2.769103D+00
              MO Center=  1.0D+00,  3.0D+00,  4.9D+00, r^2= 8.4D-01
   Bfn.  Coefficient  Atom+Function         Bfn.  Coefficient  Atom+Function  
  ----- ------------  ---------------      ----- ------------  ---------------
     9      1.665934  1 C  pz                 5     -1.307960  1 C  pz         
    10      1.064024  1 C  s                 13     -0.710579  1 C  pz         
    28     -0.420734  3 H  s                 31     -0.420504  4 H  s          
    34     -0.420504  5 H  s                 26      0.295160  2 F  pz         
    27      0.282412  3 H  s                 30      0.282073  4 H  s          

 Vector   29  Occ=0.000000D+00  E= 2.830850D+00
              MO Center=  1.0D+00,  3.0D+00,  5.0D+00, r^2= 9.2D-01
   Bfn.  Coefficient  Atom+Function         Bfn.  Coefficient  Atom+Function  
  ----- ------------  ---------------      ----- ------------  ---------------
     8      1.599922  1 C  py                 4     -1.259375  1 C  py         
    12     -1.100295  1 C  py                30     -0.530871  4 H  s          
    33      0.530872  5 H  s                 31      0.415670  4 H  s          
    34     -0.415671  5 H  s                 32      0.365678  4 H  s          
    35     -0.365678  5 H  s                 25      0.045773  2 F  py         

 Vector   30  Occ=0.000000D+00  E= 2.830951D+00
              MO Center=  9.8D-01,  3.0D+00,  5.0D+00, r^2= 9.2D-01
   Bfn.  Coefficient  Atom+Function         Bfn.  Coefficient  Atom+Function  
  ----- ------------  ---------------      ----- ------------  ---------------
     7      1.599751  1 C  px                 3     -1.259319  1 C  px         
    11     -1.100293  1 C  px                27     -0.612970  3 H  s          
    28      0.480044  3 H  s                 29      0.421900  3 H  s          
    30      0.306741  4 H  s                 33      0.306740  5 H  s          
    31     -0.240307  4 H  s                 34     -0.240306  5 H  s          

 Vector   31  Occ=0.000000D+00  E= 6.093808D+00
              MO Center=  1.0D+00,  3.0D+00,  6.4D+00, r^2= 3.6D-01
   Bfn.  Coefficient  Atom+Function         Bfn.  Coefficient  Atom+Function  
  ----- ------------  ---------------      ----- ------------  ---------------
    21      1.413348  2 F  py                17     -1.250846  2 F  py         
    25     -0.631531  2 F  py                12      0.275919  1 C  py         
    31     -0.078341  4 H  s                 34      0.078341  5 H  s          
     8     -0.070552  1 C  py                32     -0.064230  4 H  s          
    35      0.064230  5 H  s                  4      0.050230  1 C  py         

 Vector   32  Occ=0.000000D+00  E= 6.093818D+00
              MO Center=  1.0D+00,  3.0D+00,  6.4D+00, r^2= 3.6D-01
   Bfn.  Coefficient  Atom+Function         Bfn.  Coefficient  Atom+Function  
  ----- ------------  ---------------      ----- ------------  ---------------
    20      1.413354  2 F  px                16     -1.250847  2 F  px         
    24     -0.631552  2 F  px                11      0.275983  1 C  px         
    28     -0.090425  3 H  s                 29     -0.074143  3 H  s          
     7     -0.070554  1 C  px                 3      0.050230  1 C  px         
    31      0.045318  4 H  s                 34      0.045317  5 H  s          

 Vector   33  Occ=0.000000D+00  E= 6.108952D+00
              MO Center=  1.0D+00,  3.0D+00,  6.4D+00, r^2= 3.7D-01
   Bfn.  Coefficient  Atom+Function         Bfn.  Coefficient  Atom+Function  
  ----- ------------  ---------------      ----- ------------  ---------------
    22      1.446771  2 F  pz                18     -1.256540  2 F  pz         
    26     -0.716873  2 F  pz                23      0.342781  2 F  s          
    10     -0.321590  1 C  s                 13     -0.179105  1 C  pz         
    19     -0.158258  2 F  s                  9      0.084464  1 C  pz         
     5     -0.075311  1 C  pz                29      0.029689  3 H  s          

 Vector   34  Occ=0.000000D+00  E= 2.330025D+01
              MO Center=  1.0D+00,  3.0D+00,  5.0D+00, r^2= 9.6D-02
   Bfn.  Coefficient  Atom+Function         Bfn.  Coefficient  Atom+Function  
  ----- ------------  ---------------      ----- ------------  ---------------
     2     -2.173144  1 C  s                  1      2.026009  1 C  s          
    10     -0.503112  1 C  s                  6      0.468663  1 C  s          
    29      0.100334  3 H  s                 32      0.100385  4 H  s          
    35      0.100385  5 H  s                 13      0.047313  1 C  pz         
    26      0.028808  2 F  pz         

 Vector   35  Occ=0.000000D+00  E= 6.672694D+01
              MO Center=  1.0D+00,  3.0D+00,  6.4D+00, r^2= 2.7D-02
   Bfn.  Coefficient  Atom+Function         Bfn.  Coefficient  Atom+Function  
  ----- ------------  ---------------      ----- ------------  ---------------
    15     -2.394458  2 F  s                 14      2.325823  2 F  s          
    23     -0.235710  2 F  s                 19      0.209433  2 F  s          
    10      0.167139  1 C  s                 26      0.072377  2 F  pz         
    13      0.048841  1 C  pz                28     -0.033132  3 H  s          
    31     -0.033147  4 H  s                 34     -0.033147  5 H  s          


 center of mass
 --------------
 x =   1.88972599 y =   5.66917797 z =  10.84927025

 moments of inertia (a.u.)
 ------------------
          70.045742832072          -0.000000000000          -0.000000000000
          -0.000000000000          70.049255463773          -0.000000000000
          -0.000000000000          -0.000000000000          11.406609230869

     Multipole analysis of the density
     ---------------------------------

     L   x y z        total         alpha         beta         nuclear
     -   - - -        -----         -----         ----         -------
     0   0 0 0     -0.000000     -9.000000     -9.000000     18.000000

     1   1 0 0     -0.000107    -17.007588    -17.007588     34.015068
     1   0 1 0      0.000000    -51.022602    -51.022602    102.045203
     1   0 0 1     -0.852696    -96.232621    -96.232621    191.612546

     2   2 0 0     -8.785287    -39.362605    -39.362605     69.939923
     2   1 1 0     -0.000609    -96.419041    -96.419041    192.837473
     2   1 0 1     -1.612268   -181.853738   -181.853738    362.095208
     2   0 2 0     -8.785571   -296.477635   -296.477635    584.169699
     2   0 1 1     -4.834088   -545.559856   -545.559856   1086.285624
     2   0 0 2    -27.512041  -1052.135283  -1052.135283   2076.758525


 Parallel integral file used       4 records with       0 large values


          -----------------------------------------
          Chemical Shielding Tensors (GIAO, in ppm)
          -----------------------------------------

    0 giaofock schwarz done =      99.87%
    0 giaofock schwarz done =      99.87%
                                NWChem CPHF Module
                                ------------------


  scftype          =     RHF 
  nclosed          =        9
  nopen            =        0
  variables        =      234
  # of vectors     =        3
  tolerance        = 0.10D-03
  level shift      = 0.00D+00
  max iterations   =       50
  max subspace     =       30


 #quartets = 3.714D+04 #integrals = 1.406D+05 #direct =  0.0% #cached =100.0%


 Integral file          = ./ch3f_trans.aoints.0
 Record size in doubles =  65536        No. of integs per rec  =  43688
 Max. records in memory =      3        Max. records in file   = 161655
 No. of bits per label  =      8        No. of bits per value  =     64


File balance: exchanges=     0  moved=     0  time=   0.0

 SCF residual:    1.1800078630727450E-005


Iterative solution of linear equations
  No. of variables      234
  No. of equations        3
  Maximum subspace       30
        Iterations       50
       Convergence  1.0D-04
        Start time      1.3


   iter   nsub   residual    time
   ----  ------  --------  ---------
     1      3    8.41D-01       1.5
     2      6    2.77D-02       1.7
     3      9    7.44D-04       1.9
     4     12    2.16D-05       2.1

 Parallel integral file used       4 records with       0 large values


 Wrote CPHF data to ./ch3f_trans.shieldcphf

 Calc. par tensor-> nonrel
      Atom:    1  C 
        Diamagnetic
    243.3424     -0.0000      0.0002
     -0.0000    243.3451      0.0000
      0.0002      0.0000    256.9232

        Paramagnetic
   -156.9105     -0.0001     -0.0166
     -0.0001   -156.9103      0.0005
     -0.0166      0.0005    -69.0437

        Total Shielding Tensor
     86.4319     -0.0001     -0.0164
     -0.0001     86.4348      0.0005
     -0.0164      0.0005    187.8795

           isotropic =     120.2487
          anisotropy =     101.4462

          Principal Components and Axis System
                 1           2           3
              187.8795     86.4348     86.4319

      1        -0.0002     -0.0223      0.9998
      2         0.0000      0.9998      0.0223
      3         1.0000     -0.0000      0.0002



      Atom:    2  F 
        Diamagnetic
    464.1769      0.0000      0.0010
      0.0000    464.1773      0.0000
      0.0010      0.0000    494.3222

        Paramagnetic
     18.3199      0.0013     -0.0299
      0.0013     18.2889     -0.0014
     -0.0299     -0.0014    -86.1047

        Total Shielding Tensor
    482.4968      0.0013     -0.0289
      0.0013    482.4662     -0.0014
     -0.0289     -0.0014    408.2175

           isotropic =     457.7268
          anisotropy =      37.1551

          Principal Components and Axis System
                 1           2           3
              482.4969    482.4661    408.2175

      1         0.9991     -0.0426      0.0004
      2         0.0426      0.9991      0.0000
      3        -0.0004     -0.0000      1.0000



      Atom:    3  H 
        Diamagnetic
     35.6822     -0.0000     -5.9985
     -0.0000     23.2229      0.0000
     -5.9985      0.0000     28.7974

        Paramagnetic
     -6.9778      0.0000      3.2474
      0.0000      2.3862     -0.0000
      3.2474     -0.0000      2.8059

        Total Shielding Tensor
     28.7044      0.0000     -2.7511
      0.0000     25.6091     -0.0000
     -2.7511     -0.0000     31.6032

           isotropic =      28.6389
          anisotropy =       6.9366

          Principal Components and Axis System
                 1           2           3
               33.2633     27.0443     25.6091

      1        -0.5167      0.8562      0.0000
      2        -0.0000     -0.0000      1.0000
      3         0.8562      0.5167      0.0000



      Atom:    4  H 
        Diamagnetic
     26.3442     -5.3969      3.0006
     -5.3969     32.5733     -5.1958
      3.0006     -5.1958     28.8039

        Paramagnetic
      0.0432      4.0573     -1.6249
      4.0573     -4.6391      2.8140
     -1.6249      2.8140      2.8040

        Total Shielding Tensor
     26.3874     -1.3396      1.3757
     -1.3396     27.9342     -2.3818
      1.3757     -2.3818     31.6079

           isotropic =      28.6432
          anisotropy =       6.9361

          Principal Components and Axis System
                 1           2           3
               33.2672     27.0483     25.6140

      1         0.2583     -0.4280      0.8661
      2        -0.4473      0.7416      0.4999
      3         0.8563      0.5165     -0.0001



      Atom:    5  H 
        Diamagnetic
     26.3442      5.3969      3.0006
      5.3969     32.5733      5.1958
      3.0006      5.1958     28.8039

        Paramagnetic
      0.0433     -4.0573     -1.6249
     -4.0573     -4.6391     -2.8140
     -1.6249     -2.8140      2.8041

        Total Shielding Tensor
     26.3875      1.3396      1.3757
      1.3396     27.9342      2.3818
      1.3757      2.3818     31.6080

           isotropic =      28.6432
          anisotropy =       6.9360

          Principal Components and Axis System
                 1           2           3
               33.2672     27.0484     25.6141

      1         0.2583      0.4280      0.8661
      2         0.4473      0.7416     -0.4999
      3         0.8563     -0.5165     -0.0001




 Task  times  cpu:        2.1s     wall:        2.2s


                                NWChem Input Module
                                -------------------


 Summary of allocated global arrays
-----------------------------------
  No active global arrays



                         GA Statistics for process    0
                         ------------------------------

       create   destroy   get      put      acc     scatter   gather  read&inc
calls:  599      599     1.92e+05 1715     1.06e+05  136        0      230     
number of processes/call 1.01e+00 1.74e+00 1.04e+00 0.00e+00 0.00e+00
bytes total:             1.81e+07 1.84e+06 1.41e+07 5.41e+03 0.00e+00 1.84e+03
bytes remote:            3.32e+06 4.56e+05 3.67e+06 -4.39e+03 0.00e+00 0.00e+00
Max memory consumed for GA by this process: 216800 bytes

MA_summarize_allocated_blocks: starting scan ...
MA_summarize_allocated_blocks: scan completed: 0 heap blocks, 0 stack blocks
MA usage statistics:

	allocation statistics:
					      heap	     stack
					      ----	     -----
	current number of blocks	         0	         0
	maximum number of blocks	        26	        53
	current total bytes		         0	         0
	maximum total bytes		   3358432	  22511640
	maximum total K-bytes		      3359	     22512
	maximum total M-bytes		         4	        23


                                     CITATION
                                     --------
                Please cite the following reference when publishing
                           results obtained with NWChem:

                 M. Valiev, E.J. Bylaska, N. Govind, K. Kowalski,
              T.P. Straatsma, H.J.J. van Dam, D. Wang, J. Nieplocha,
                        E. Apra, T.L. Windus, W.A. de Jong
                 "NWChem: a comprehensive and scalable open-source
                  solution for large scale molecular simulations"
                      Comput. Phys. Commun. 181, 1477 (2010)
                           doi:10.1016/j.cpc.2010.04.018

                                      AUTHORS
                                      -------
          E. Apra, E. J. Bylaska, W. A. de Jong, N. Govind, K. Kowalski,
       T. P. Straatsma, M. Valiev, H. J. J. van Dam, D. Wang, T. L. Windus,
        J. Hammond, J. Autschbach, K. Bhaskaran-Nair, J. Brabec, K. Lopata,
    S. A. Fischer, S. Krishnamoorthy, M. Jacquelin, W. Ma, M. Klemm, O. Villa,
      Y. Chen, V. Anisimov, F. Aquino, S. Hirata, M. T. Hackler, V. Konjkov,
            D. Mejia-Rodriguez, T. Risthaus, M. Malagoli, A. Marenich,
   A. Otero-de-la-Roza, J. Mullin, P. Nichols, R. Peverati, J. Pittner, Y. Zhao,
        P.-D. Fan, A. Fonari, M. J. Williamson, R. J. Harrison, J. R. Rehr,
      M. Dupuis, D. Silverstein, D. M. A. Smith, J. Nieplocha, V. Tipparaju,
    M. Krishnan, B. E. Van Kuiken, A. Vazquez-Mayagoitia, L. Jensen, M. Swart,
      Q. Wu, T. Van Voorhis, A. A. Auer, M. Nooijen, L. D. Crosby, E. Brown,
      G. Cisneros, G. I. Fann, H. Fruchtl, J. Garza, K. Hirao, R. A. Kendall,
      J. A. Nichols, K. Tsemekhman, K. Wolinski, J. Anchell, D. E. Bernholdt,
      P. Borowski, T. Clark, D. Clerc, H. Dachsel, M. J. O. Deegan, K. Dyall,
    D. Elwood, E. Glendening, M. Gutowski, A. C. Hess, J. Jaffe, B. G. Johnson,
     J. Ju, R. Kobayashi, R. Kutteh, Z. Lin, R. Littlefield, X. Long, B. Meng,
      T. Nakajima, S. Niu, L. Pollack, M. Rosing, K. Glaesemann, G. Sandrone,
      M. Stave, H. Taylor, G. Thomas, J. H. van Lenthe, A. T. Wong, Z. Zhang.

 Total times  cpu:        2.1s     wall:        2.3s
[0] ARMCI Warning: Freed 1 leaked allocations
