 argument  1 = /home/list1234/source/nwchem-6.8.1-release/QA/tests/ch3f_rot/ch3f_rot.nw



============================== echo of input deck ==============================
start

echo
title ch3fr

geometry noautoz units angstrom nocenter
symmetry c1
c +0.00000000   +0.00000000   +0.00000000
f +1.19771313   -0.44448763   +0.52971973
h -0.21385373   +0.98738914   +0.39826283
h -0.78597592   -0.69448290   +0.28059107
h +0.09050298   +0.04455726   -1.08102723
end

BASIS "ao basis" PRINT
 * library 6-311G
END

charge 0

dft
 xc b3lyp
end

property
  shielding
end

task dft property
================================================================================


                                         
                                         


              Northwest Computational Chemistry Package (NWChem) 6.8
              ------------------------------------------------------


                    Environmental Molecular Sciences Laboratory
                       Pacific Northwest National Laboratory
                                Richland, WA 99352

                              Copyright (c) 1994-2018
                       Pacific Northwest National Laboratory
                            Battelle Memorial Institute

             NWChem is an open-source computational chemistry package
                        distributed under the terms of the
                      Educational Community License (ECL) 2.0
             A copy of the license is included with this distribution
                              in the LICENSE.TXT file

                                  ACKNOWLEDGMENT
                                  --------------

            This software and its documentation were developed at the
            EMSL at Pacific Northwest National Laboratory, a multiprogram
            national laboratory, operated for the U.S. Department of Energy
            by Battelle under Contract Number DE-AC05-76RL01830. Support
            for this work was provided by the Department of Energy Office
            of Biological and Environmental Research, Office of Basic
            Energy Sciences, and the Office of Advanced Scientific Computing.


           Job information
           ---------------

    hostname        = list1234-B360M-H
    program         = /home/list1234/source/nwchem-6.8.1-release/bin/LINUX64/nwchem
    date            = Sun Jun 30 13:29:45 2019

    compiled        = Sun_Jun_30_11:55:59_2019
    source          = /home/list1234/source/nwchem-6.8.1-release
    nwchem branch   = Development
    nwchem revision = N/A
    ga revision     = 5.6.5
    use scalapack   = T
    input           = /home/list1234/source/nwchem-6.8.1-release/QA/tests/ch3f_rot/ch3f_rot.nw
    prefix          = ch3f_rot.
    data base       = ./ch3f_rot.db
    status          = startup
    nproc           =        4
    time left       =     -1s



           Memory information
           ------------------

    heap     =   86247162 doubles =    658.0 Mbytes
    stack    =   86247167 doubles =    658.0 Mbytes
    global   =  172494336 doubles =   1316.0 Mbytes (distinct from heap & stack)
    total    =  344988665 doubles =   2632.1 Mbytes
    verify   = yes
    hardfail = no 


           Directory information
           ---------------------

  0 permanent = .
  0 scratch   = .




                                NWChem Input Module
                                -------------------


                                       ch3fr
                                       -----

 Scaling coordinates for geometry "geometry" by  1.889725989
 (inverse scale =  0.529177249)

 Turning off AUTOSYM since
 SYMMETRY directive was detected!



                             Geometry "geometry" -> ""
                             -------------------------

 Output coordinates in angstroms (scale by  1.889725989 to convert to a.u.)

  No.       Tag          Charge          X              Y              Z
 ---- ---------------- ---------- -------------- -------------- --------------
    1 c                    6.0000     0.00000000     0.00000000     0.00000000
    2 f                    9.0000     1.19771313    -0.44448763     0.52971973
    3 h                    1.0000    -0.21385373     0.98738914     0.39826283
    4 h                    1.0000    -0.78597592    -0.69448290     0.28059107
    5 h                    1.0000     0.09050298     0.04455726    -1.08102723

      Atomic Mass 
      ----------- 

      c                 12.000000
      f                 18.998400
      h                  1.007825


 Effective nuclear repulsion energy (a.u.)      37.4174026491

            Nuclear Dipole moment (a.u.) 
            ----------------------------
        X                 Y               Z
 ---------------- ---------------- ----------------
    18.6517684172    -6.9219248880     8.2492288704


            XYZ format geometry
            -------------------
     5
 geometry
 c                     0.00000000     0.00000000     0.00000000
 f                     1.19771313    -0.44448763     0.52971973
 h                    -0.21385373     0.98738914     0.39826283
 h                    -0.78597592    -0.69448290     0.28059107
 h                     0.09050298     0.04455726    -1.08102723

 ==============================================================================
                                internuclear distances
 ------------------------------------------------------------------------------
       center one      |      center two      | atomic units |  angstroms
 ------------------------------------------------------------------------------
    2 f                |   1 c                |     2.61349  |     1.38300
    3 h                |   1 c                |     2.05214  |     1.08595
    4 h                |   1 c                |     2.05172  |     1.08572
    5 h                |   1 c                |     2.05172  |     1.08572
 ------------------------------------------------------------------------------
                         number of included internuclear distances:          4
 ==============================================================================



 ==============================================================================
                                 internuclear angles
 ------------------------------------------------------------------------------
        center 1       |       center 2       |       center 3       |  degrees
 ------------------------------------------------------------------------------
    2 f                |   1 c                |   3 h                |   108.80
    2 f                |   1 c                |   4 h                |   108.81
    2 f                |   1 c                |   5 h                |   108.81
    3 h                |   1 c                |   4 h                |   110.14
    3 h                |   1 c                |   5 h                |   110.14
    4 h                |   1 c                |   5 h                |   110.12
 ------------------------------------------------------------------------------
                            number of included internuclear angles:          6
 ==============================================================================





 Summary of "ao basis" -> "" (cartesian)
 ------------------------------------------------------------------------------
       Tag                 Description            Shells   Functions and Types
 ---------------- ------------------------------  ------  ---------------------
 *                           6-311G                   on all atoms 


                              NWChem Property Module
                              ----------------------


                                       ch3fr

  itol2e modified to match energy
  convergence criterion.

                                 NWChem DFT Module
                                 -----------------


                                       ch3fr


                      Basis "ao basis" -> "ao basis" (cartesian)
                      -----
  c (Carbon)
  ----------
            Exponent  Coefficients 
       -------------- ---------------------------------------------------------
  1 S  4.56324000E+03  0.001967
  1 S  6.82024000E+02  0.015231
  1 S  1.54973000E+02  0.076127
  1 S  4.44553000E+01  0.260801
  1 S  1.30290000E+01  0.616462
  1 S  1.82773000E+00  0.221006

  2 S  2.09642000E+01  0.114660
  2 S  4.80331000E+00  0.919999
  2 S  1.45933000E+00 -0.003031

  3 P  2.09642000E+01  0.040249
  3 P  4.80331000E+00  0.237594
  3 P  1.45933000E+00  0.815854

  4 S  4.83456000E-01  1.000000

  5 P  4.83456000E-01  1.000000

  6 S  1.45585000E-01  1.000000

  7 P  1.45585000E-01  1.000000

  f (Fluorine)
  ------------
            Exponent  Coefficients 
       -------------- ---------------------------------------------------------
  1 S  1.14271000E+04  0.001801
  1 S  1.72235000E+03  0.013742
  1 S  3.95746000E+02  0.068133
  1 S  1.15139000E+02  0.233325
  1 S  3.36026000E+01  0.589086
  1 S  4.91901000E+00  0.299505

  2 S  5.54441000E+01  0.114536
  2 S  1.26323000E+01  0.920512
  2 S  3.71756000E+00 -0.003378

  3 P  5.54441000E+01  0.035461
  3 P  1.26323000E+01  0.237451
  3 P  3.71756000E+00  0.820458

  4 S  1.16545000E+00  1.000000

  5 P  1.16545000E+00  1.000000

  6 S  3.21892000E-01  1.000000

  7 P  3.21892000E-01  1.000000

  h (Hydrogen)
  ------------
            Exponent  Coefficients 
       -------------- ---------------------------------------------------------
  1 S  3.38650000E+01  0.025494
  1 S  5.09479000E+00  0.190373
  1 S  1.15879000E+00  0.852161

  2 S  3.25840000E-01  1.000000

  3 S  1.02741000E-01  1.000000



 Summary of "ao basis" -> "ao basis" (cartesian)
 ------------------------------------------------------------------------------
       Tag                 Description            Shells   Functions and Types
 ---------------- ------------------------------  ------  ---------------------
 c                           6-311G                  7       13   4s3p
 f                           6-311G                  7       13   4s3p
 h                           6-311G                  3        3   3s




 Summary of "ao basis" -> "ao basis" (cartesian)
 ------------------------------------------------------------------------------
       Tag                 Description            Shells   Functions and Types
 ---------------- ------------------------------  ------  ---------------------
 c                           6-311G                  7       13   4s3p
 f                           6-311G                  7       13   4s3p
 h                           6-311G                  3        3   3s


  Caching 1-el integrals 
  itol2e modified to match energy
  convergence criterion.

            General Information
            -------------------
          SCF calculation type: DFT
          Wavefunction type:  closed shell.
          No. of atoms     :     5
          No. of electrons :    18
           Alpha electrons :     9
            Beta electrons :     9
          Charge           :     0
          Spin multiplicity:     1
          Use of symmetry is: off; symmetry adaption is: off
          Maximum number of iterations:  30
          AO basis - number of functions:    35
                     number of shells:    23
          Convergence on energy requested:  1.00D-07
          Convergence on density requested:  1.00D-05
          Convergence on gradient requested:  5.00D-04

              XC Information
              --------------
                         B3LYP Method XC Potential
                     Hartree-Fock (Exact) Exchange  0.200          
                        Slater Exchange Functional  0.800 local    
                    Becke 1988 Exchange Functional  0.720 non-local
              Lee-Yang-Parr Correlation Functional  0.810          
                  VWN I RPA Correlation Functional  0.190 local    

             Grid Information
             ----------------
          Grid used for XC integration:  fine      
          Radial quadrature: Mura-Knowles        
          Angular quadrature: Lebedev. 
          Tag              B.-S. Rad. Rad. Pts. Rad. Cut. Ang. Pts.
          ---              ---------- --------- --------- ---------
          c                   0.70       70           7.0       590
          f                   0.50       70           7.0       590
          h                   0.35       60           8.0       590
          Grid pruning is: on 
          Number of quadrature shells:   320
          Spatial weights used:  Erf1

          Convergence Information
          -----------------------
          Convergence aids based upon iterative change in 
          total energy or number of iterations. 
          Levelshifting, if invoked, occurs when the 
          HOMO/LUMO gap drops below (HL_TOL):  1.00D-02
          DIIS, if invoked, will attempt to extrapolate 
          using up to (NFOCK): 10 stored Fock matrices.

                    Damping( 0%)  Levelshifting(0.5)       DIIS
                  --------------- ------------------- ---------------
          dE  on:    start            ASAP                start   
          dE off:    2 iters         30 iters            30 iters 


      Screening Tolerance Information
      -------------------------------
          Density screening/tol_rho:  1.00D-11
          AO Gaussian exp screening on grid/accAOfunc:  16
          CD Gaussian exp screening on grid/accCDfunc:  20
          XC Gaussian exp screening on grid/accXCfunc:  20
          Schwarz screening/accCoul:  1.00D-08


      Superposition of Atomic Density Guess
      -------------------------------------

 Sum of atomic energies:        -138.57325452

      Non-variational initial energy
      ------------------------------

 Total energy =    -139.229769
 1-e energy   =    -264.952728
 2-e energy   =      88.305556
 HOMO         =      -0.441631
 LUMO         =       0.112239

   Time after variat. SCF:      0.1
   Time prior to 1st pass:      0.1

 Integral file          = ./ch3f_rot.aoints.0
 Record size in doubles =  65536        No. of integs per rec  =  43688
 Max. records in memory =      3        Max. records in file   = 161657
 No. of bits per label  =      8        No. of bits per value  =     64


 #quartets = 3.714D+04 #integrals = 1.966D+05 #direct =  0.0% #cached =100.0%


File balance: exchanges=     0  moved=     0  time=   0.0


 Grid_pts file          = ./ch3f_rot.gridpts.0
 Record size in doubles =  12289        No. of grid_pts per rec  =   3070
 Max. records in memory =     18        Max. recs in file   =    862104

 Grid integrated density:      17.999997808937
 Requested integration accuracy:   0.10E-06

           Memory utilization after 1st SCF pass: 
           Heap Space remaining (MW):       85.83            85827346
          Stack Space remaining (MW):       86.25            86246804

   convergence    iter        energy       DeltaE   RMS-Dens  Diis-err    time
 ---------------- ----- ----------------- --------- --------- ---------  ------
 d= 0,ls=0.0,diis     1   -139.7045934484 -1.77D+02  1.78D-02  5.05D-01     0.2
 Grid integrated density:      17.999997754577
 Requested integration accuracy:   0.10E-06
 d= 0,ls=0.0,diis     2   -139.6932248154  1.14D-02  1.02D-02  6.68D-01     0.2
 d= 0,ls=0.0,diis     3   -139.7494356924 -5.62D-02  1.59D-03  3.42D-02     0.3
 d= 0,ls=0.0,diis     4   -139.7513769801 -1.94D-03  6.05D-04  1.59D-03     0.3
 d= 0,ls=0.0,diis     5   -139.7515473587 -1.70D-04  1.23D-04  7.02D-05     0.4
  Resetting Diis
 d= 0,ls=0.0,diis     6   -139.7515541972 -6.84D-06  5.14D-06  8.51D-08     0.5
 d= 0,ls=0.0,diis     7   -139.7515542064 -9.23D-09  3.96D-07  1.74D-10     0.5


         Total DFT energy =     -139.751554206398
      One electron energy =     -266.590801561193
           Coulomb energy =      106.458589200257
    Exchange-Corr. energy =      -17.036744494539
 Nuclear repulsion energy =       37.417402649077

 Numeric. integr. density =       18.000000050417

     Total iterative time =      0.5s



                       DFT Final Molecular Orbital Analysis
                       ------------------------------------

 Vector    1  Occ=2.000000D+00  E=-2.464175D+01
              MO Center=  1.2D+00, -4.4D-01,  5.3D-01, r^2= 1.2D-02
   Bfn.  Coefficient  Atom+Function         Bfn.  Coefficient  Atom+Function  
  ----- ------------  ---------------      ----- ------------  ---------------
    14      0.547666  2 F  s                 15      0.471996  2 F  s          

 Vector    2  Occ=2.000000D+00  E=-1.024407D+01
              MO Center=  1.4D-04, -5.1D-05,  6.1D-05, r^2= 2.8D-02
   Bfn.  Coefficient  Atom+Function         Bfn.  Coefficient  Atom+Function  
  ----- ------------  ---------------      ----- ------------  ---------------
     1      0.562841  1 C  s                  2      0.464020  1 C  s          

 Vector    3  Occ=2.000000D+00  E=-1.190496D+00
              MO Center=  1.0D+00, -3.8D-01,  4.6D-01, r^2= 4.2D-01
   Bfn.  Coefficient  Atom+Function         Bfn.  Coefficient  Atom+Function  
  ----- ------------  ---------------      ----- ------------  ---------------
    19      0.574054  2 F  s                 23      0.457116  2 F  s          
    15     -0.193907  2 F  s                  6      0.144400  1 C  s          
    14     -0.119889  2 F  s                 20     -0.071833  2 F  px         
     7      0.058507  1 C  px                 2     -0.054584  1 C  s          
    24     -0.046933  2 F  px                 3      0.041028  1 C  px         

 Vector    4  Occ=2.000000D+00  E=-7.086882D-01
              MO Center=  5.3D-02, -2.0D-02,  2.3D-02, r^2= 1.3D+00
   Bfn.  Coefficient  Atom+Function         Bfn.  Coefficient  Atom+Function  
  ----- ------------  ---------------      ----- ------------  ---------------
     6      0.466242  1 C  s                 10      0.313846  1 C  s          
    23     -0.217525  2 F  s                 19     -0.193018  2 F  s          
     2     -0.166818  1 C  s                  1     -0.104708  1 C  s          
    20     -0.097946  2 F  px                27      0.093001  3 H  s          
    30      0.093065  4 H  s                 33      0.093065  5 H  s          

 Vector    5  Occ=2.000000D+00  E=-4.879169D-01
              MO Center=  3.4D-01, -1.7D-02,  2.1D-01, r^2= 1.4D+00
   Bfn.  Coefficient  Atom+Function         Bfn.  Coefficient  Atom+Function  
  ----- ------------  ---------------      ----- ------------  ---------------
     8      0.238258  1 C  py                21      0.211380  2 F  py         
    25      0.182225  2 F  py                 4      0.151256  1 C  py         
    12      0.150477  1 C  py                17      0.147848  2 F  py         
    28      0.147454  3 H  s                  9      0.145371  1 C  pz         
    27      0.131921  3 H  s                 22      0.128072  2 F  pz         

 Vector    6  Occ=2.000000D+00  E=-4.879107D-01
              MO Center=  3.2D-01, -2.3D-01,  8.1D-02, r^2= 1.4D+00
   Bfn.  Coefficient  Atom+Function         Bfn.  Coefficient  Atom+Function  
  ----- ------------  ---------------      ----- ------------  ---------------
     9      0.214336  1 C  pz                22      0.189717  2 F  pz         
    26      0.163550  2 F  pz                 7     -0.137979  1 C  px         
     5      0.136080  1 C  pz                13      0.135280  1 C  pz         
    18      0.132696  2 F  pz                31      0.127806  4 H  s          
    34     -0.127794  5 H  s                 20     -0.122130  2 F  px         

 Vector    7  Occ=2.000000D+00  E=-4.814896D-01
              MO Center=  8.0D-01, -2.9D-01,  3.5D-01, r^2= 1.3D+00
   Bfn.  Coefficient  Atom+Function         Bfn.  Coefficient  Atom+Function  
  ----- ------------  ---------------      ----- ------------  ---------------
    20      0.310144  2 F  px                24      0.275348  2 F  px         
     7     -0.217965  1 C  px                16      0.216691  2 F  px         
    23      0.141847  2 F  s                 22      0.137501  2 F  pz         
     3     -0.136408  1 C  px                19      0.127100  2 F  s          
    26      0.122069  2 F  pz                21     -0.114488  2 F  py         

 Vector    8  Occ=2.000000D+00  E=-3.432665D-01
              MO Center=  7.1D-01, -1.6D-01,  3.7D-01, r^2= 1.4D+00
   Bfn.  Coefficient  Atom+Function         Bfn.  Coefficient  Atom+Function  
  ----- ------------  ---------------      ----- ------------  ---------------
    25      0.334712  2 F  py                21      0.319996  2 F  py         
    17      0.230725  2 F  py                28     -0.221432  3 H  s          
    26      0.203617  2 F  pz                22      0.194667  2 F  pz         
     8     -0.152526  1 C  py                18      0.140359  2 F  pz         
    27     -0.120844  3 H  s                 31      0.110723  4 H  s          

 Vector    9  Occ=2.000000D+00  E=-3.432624D-01
              MO Center=  6.9D-01, -3.6D-01,  2.5D-01, r^2= 1.4D+00
   Bfn.  Coefficient  Atom+Function         Bfn.  Coefficient  Atom+Function  
  ----- ------------  ---------------      ----- ------------  ---------------
    26      0.300834  2 F  pz                22      0.287607  2 F  pz         
    18      0.207372  2 F  pz                24     -0.193641  2 F  px         
    31     -0.191763  4 H  s                 34      0.191772  5 H  s          
    20     -0.185127  2 F  px                25     -0.163264  2 F  py         
    21     -0.156086  2 F  py                 9     -0.137096  1 C  pz         

 Vector   10  Occ=0.000000D+00  E= 4.747254D-02
              MO Center= -4.1D-01,  1.5D-01, -1.8D-01, r^2= 4.7D+00
   Bfn.  Coefficient  Atom+Function         Bfn.  Coefficient  Atom+Function  
  ----- ------------  ---------------      ----- ------------  ---------------
    10      1.913423  1 C  s                 29     -0.923940  3 H  s          
    32     -0.923595  4 H  s                 35     -0.923595  5 H  s          
    11     -0.334198  1 C  px                 6      0.191504  1 C  s          
    13     -0.147716  1 C  pz                12      0.124193  1 C  py         
     2     -0.088726  1 C  s                  7     -0.088123  1 C  px         

 Vector   11  Occ=0.000000D+00  E= 9.454699D-02
              MO Center=  8.2D-02, -3.0D-02,  3.6D-02, r^2= 2.2D+00
   Bfn.  Coefficient  Atom+Function         Bfn.  Coefficient  Atom+Function  
  ----- ------------  ---------------      ----- ------------  ---------------
    11      0.971896  1 C  px                23     -0.834990  2 F  s          
    10      0.579702  1 C  s                 13      0.429477  1 C  pz         
    24      0.420136  2 F  px                12     -0.361364  1 C  py         
     7      0.233493  1 C  px                20      0.188435  2 F  px         
    26      0.185853  2 F  pz                 6      0.177960  1 C  s          

 Vector   12  Occ=0.000000D+00  E= 1.052204D-01
              MO Center= -3.5D-01,  7.7D-01,  1.9D-01, r^2= 4.3D+00
   Bfn.  Coefficient  Atom+Function         Bfn.  Coefficient  Atom+Function  
  ----- ------------  ---------------      ----- ------------  ---------------
    29      1.984873  3 H  s                 32     -0.992795  4 H  s          
    35     -0.992840  5 H  s                 12     -0.921835  1 C  py         
    13     -0.561455  1 C  pz                 8     -0.216686  1 C  py         
     4     -0.150820  1 C  py                 9     -0.131963  1 C  pz         
    11     -0.094913  1 C  px                 5     -0.091846  1 C  pz         

 Vector   13  Occ=0.000000D+00  E= 1.052441D-01
              MO Center= -4.8D-01, -4.7D-01, -5.6D-01, r^2= 4.3D+00
   Bfn.  Coefficient  Atom+Function         Bfn.  Coefficient  Atom+Function  
  ----- ------------  ---------------      ----- ------------  ---------------
    32      1.719592  4 H  s                 35     -1.719566  5 H  s          
    13     -0.828822  1 C  pz                11      0.533522  1 C  px         
    12      0.449872  1 C  py                 9     -0.194795  1 C  pz         
     5     -0.135588  1 C  pz                 7      0.125392  1 C  px         
     8      0.105732  1 C  py                 3      0.087280  1 C  px         

 Vector   14  Occ=0.000000D+00  E= 3.037365D-01
              MO Center=  1.9D-02,  1.9D-01,  1.1D-01, r^2= 2.9D+00
   Bfn.  Coefficient  Atom+Function         Bfn.  Coefficient  Atom+Function  
  ----- ------------  ---------------      ----- ------------  ---------------
    13      1.205630  1 C  pz                31     -1.138210  4 H  s          
    34      1.138225  5 H  s                 11     -0.776060  1 C  px         
    12     -0.654353  1 C  py                26     -0.212659  2 F  pz         
    32      0.191137  4 H  s                 35     -0.191140  5 H  s          
    24      0.136888  2 F  px                25      0.115420  2 F  py         

 Vector   15  Occ=0.000000D+00  E= 3.037760D-01
              MO Center= -1.9D-02, -1.9D-01, -1.1D-01, r^2= 2.9D+00
   Bfn.  Coefficient  Atom+Function         Bfn.  Coefficient  Atom+Function  
  ----- ------------  ---------------      ----- ------------  ---------------
    12      1.341452  1 C  py                28     -1.314805  3 H  s          
    13      0.816258  1 C  pz                31      0.656965  4 H  s          
    34      0.656937  5 H  s                 25     -0.236653  2 F  py         
    29      0.221176  3 H  s                 26     -0.143937  2 F  pz         
    11      0.137001  1 C  px                32     -0.110039  4 H  s          

 Vector   16  Occ=0.000000D+00  E= 4.233398D-01
              MO Center= -4.6D-02,  1.7D-02, -2.0D-02, r^2= 2.0D+00
   Bfn.  Coefficient  Atom+Function         Bfn.  Coefficient  Atom+Function  
  ----- ------------  ---------------      ----- ------------  ---------------
    11      1.032648  1 C  px                 7     -0.650818  1 C  px         
    10     -0.638135  1 C  s                 28      0.518183  3 H  s          
    31      0.518646  4 H  s                 34      0.518646  5 H  s          
     6     -0.509738  1 C  s                 13      0.457109  1 C  pz         
    12     -0.382505  1 C  py                 9     -0.287859  1 C  pz         

 Vector   17  Occ=0.000000D+00  E= 4.734899D-01
              MO Center= -5.1D-02,  1.9D-02, -2.3D-02, r^2= 2.6D+00
   Bfn.  Coefficient  Atom+Function         Bfn.  Coefficient  Atom+Function  
  ----- ------------  ---------------      ----- ------------  ---------------
    10      1.711062  1 C  s                 28     -1.119222  3 H  s          
    31     -1.119920  4 H  s                 34     -1.119920  5 H  s          
    23     -0.482213  2 F  s                  7     -0.466173  1 C  px         
    11      0.293890  1 C  px                29      0.273794  3 H  s          
    32      0.271612  4 H  s                 35      0.271612  5 H  s          

 Vector   18  Occ=0.000000D+00  E= 5.538186D-01
              MO Center= -1.7D-01,  2.9D-01,  4.9D-02, r^2= 3.0D+00
   Bfn.  Coefficient  Atom+Function         Bfn.  Coefficient  Atom+Function  
  ----- ------------  ---------------      ----- ------------  ---------------
    29      1.931535  3 H  s                 12     -1.643803  1 C  py         
    13     -1.000262  1 C  pz                32     -0.965875  4 H  s          
    35     -0.966036  5 H  s                  8      0.889962  1 C  py         
     9      0.541668  1 C  pz                28     -0.518681  3 H  s          
    31      0.260554  4 H  s                 34      0.260597  5 H  s          

 Vector   19  Occ=0.000000D+00  E= 5.538599D-01
              MO Center= -2.1D-01, -1.5D-01, -2.2D-01, r^2= 3.0D+00
   Bfn.  Coefficient  Atom+Function         Bfn.  Coefficient  Atom+Function  
  ----- ------------  ---------------      ----- ------------  ---------------
    32      1.673230  4 H  s                 35     -1.673137  5 H  s          
    13     -1.477253  1 C  pz                11      0.950952  1 C  px         
     9      0.800002  1 C  pz                12      0.801908  1 C  py         
     7     -0.514985  1 C  px                31     -0.450217  4 H  s          
    34      0.450192  5 H  s                  8     -0.434271  1 C  py         

 Vector   20  Occ=0.000000D+00  E= 7.118885D-01
              MO Center= -2.7D-01,  9.8D-02, -1.2D-01, r^2= 2.9D+00
   Bfn.  Coefficient  Atom+Function         Bfn.  Coefficient  Atom+Function  
  ----- ------------  ---------------      ----- ------------  ---------------
    10      5.078251  1 C  s                  6     -2.066262  1 C  s          
    29     -0.936946  3 H  s                 32     -0.937889  4 H  s          
    35     -0.937889  5 H  s                 23     -0.519731  2 F  s          
    11     -0.474841  1 C  px                28     -0.452233  3 H  s          
    31     -0.452204  4 H  s                 34     -0.452204  5 H  s          

 Vector   21  Occ=0.000000D+00  E= 1.028747D+00
              MO Center=  1.6D+00, -6.0D-01,  7.1D-01, r^2= 9.3D-01
   Bfn.  Coefficient  Atom+Function         Bfn.  Coefficient  Atom+Function  
  ----- ------------  ---------------      ----- ------------  ---------------
    24      1.175605  2 F  px                20     -0.626027  2 F  px         
     6      0.571194  1 C  s                 26      0.520019  2 F  pz         
    25     -0.436140  2 F  py                19     -0.425374  2 F  s          
     7      0.348229  1 C  px                22     -0.276924  2 F  pz         
    23      0.265516  2 F  s                 21      0.232240  2 F  py         

 Vector   22  Occ=0.000000D+00  E= 1.055289D+00
              MO Center=  1.2D+00, -4.0D-01,  5.4D-01, r^2= 1.4D+00
   Bfn.  Coefficient  Atom+Function         Bfn.  Coefficient  Atom+Function  
  ----- ------------  ---------------      ----- ------------  ---------------
    26      1.023254  2 F  pz                24     -0.658645  2 F  px         
    22     -0.599319  2 F  pz                13     -0.569166  1 C  pz         
    25     -0.555315  2 F  py                20      0.385768  2 F  px         
    11      0.366359  1 C  px                21      0.325247  2 F  py         
    12      0.308883  1 C  py                31      0.292622  4 H  s          

 Vector   23  Occ=0.000000D+00  E= 1.055308D+00
              MO Center=  1.2D+00, -4.7D-01,  5.0D-01, r^2= 1.4D+00
   Bfn.  Coefficient  Atom+Function         Bfn.  Coefficient  Atom+Function  
  ----- ------------  ---------------      ----- ------------  ---------------
    25      1.138534  2 F  py                26      0.692571  2 F  pz         
    21     -0.666816  2 F  py                12     -0.633408  1 C  py         
    22     -0.405622  2 F  pz                13     -0.385420  1 C  pz         
    28      0.337858  3 H  s                 17     -0.221899  2 F  py         
    31     -0.169207  4 H  s                 34     -0.169179  5 H  s          

 Vector   24  Occ=0.000000D+00  E= 1.699204D+00
              MO Center=  8.6D-01, -3.2D-01,  3.8D-01, r^2= 1.3D+00
   Bfn.  Coefficient  Atom+Function         Bfn.  Coefficient  Atom+Function  
  ----- ------------  ---------------      ----- ------------  ---------------
    23      2.998966  2 F  s                 10     -2.717296  1 C  s          
    19     -1.780414  2 F  s                 24     -1.169165  2 F  px         
     7     -0.570961  1 C  px                26     -0.517148  2 F  pz         
    28      0.459366  3 H  s                 31      0.459579  4 H  s          
    34      0.459579  5 H  s                 25      0.433792  2 F  py         

 Vector   25  Occ=0.000000D+00  E= 2.175484D+00
              MO Center= -2.9D-01,  1.1D-01, -1.3D-01, r^2= 2.1D+00
   Bfn.  Coefficient  Atom+Function         Bfn.  Coefficient  Atom+Function  
  ----- ------------  ---------------      ----- ------------  ---------------
    28      1.462776  3 H  s                 31      1.462334  4 H  s          
    34      1.462333  5 H  s                 10     -1.301262  1 C  s          
    27     -0.869046  3 H  s                 30     -0.868616  4 H  s          
    33     -0.868616  5 H  s                 23      0.470968  2 F  s          
     7      0.329969  1 C  px                 3     -0.280453  1 C  px         

 Vector   26  Occ=0.000000D+00  E= 2.192195D+00
              MO Center= -2.6D-01,  5.6D-01,  1.3D-01, r^2= 1.8D+00
   Bfn.  Coefficient  Atom+Function         Bfn.  Coefficient  Atom+Function  
  ----- ------------  ---------------      ----- ------------  ---------------
    28      1.771274  3 H  s                 27     -1.158399  3 H  s          
    29     -0.977698  3 H  s                 31     -0.886204  4 H  s          
    34     -0.886406  5 H  s                  8     -0.596074  1 C  py         
    30      0.579438  4 H  s                 33      0.579570  5 H  s          
    32      0.488745  4 H  s                 35      0.488857  5 H  s          

 Vector   27  Occ=0.000000D+00  E= 2.192238D+00
              MO Center= -3.5D-01, -3.3D-01, -4.1D-01, r^2= 1.8D+00
   Bfn.  Coefficient  Atom+Function         Bfn.  Coefficient  Atom+Function  
  ----- ------------  ---------------      ----- ------------  ---------------
    31      1.534543  4 H  s                 34     -1.534427  5 H  s          
    30     -1.003496  4 H  s                 33      1.003420  5 H  s          
    32     -0.846785  4 H  s                 35      0.846720  5 H  s          
     9     -0.535534  1 C  pz                 5      0.377159  1 C  pz         
     7      0.344744  1 C  px                 8      0.290722  1 C  py         

 Vector   28  Occ=0.000000D+00  E= 2.769103D+00
              MO Center= -9.0D-02,  3.3D-02, -4.0D-02, r^2= 8.4D-01
   Bfn.  Coefficient  Atom+Function         Bfn.  Coefficient  Atom+Function  
  ----- ------------  ---------------      ----- ------------  ---------------
     7      1.442687  1 C  px                 3     -1.132680  1 C  px         
    10      1.064024  1 C  s                  9      0.637768  1 C  pz         
    11     -0.615357  1 C  px                 8     -0.535950  1 C  py         
     5     -0.500700  1 C  pz                 4      0.420827  1 C  py         
    28     -0.420734  3 H  s                 31     -0.420504  4 H  s          

 Vector   29  Occ=0.000000D+00  E= 2.830850D+00
              MO Center=  6.4D-03,  1.1D-02,  1.0D-02, r^2= 9.2D-01
   Bfn.  Coefficient  Atom+Function         Bfn.  Coefficient  Atom+Function  
  ----- ------------  ---------------      ----- ------------  ---------------
     9      1.223883  1 C  pz                 5     -0.963377  1 C  pz         
    13     -0.841686  1 C  pz                 7     -0.787805  1 C  px         
     8     -0.664247  1 C  py                 3      0.620119  1 C  px         
    11      0.541788  1 C  px                30     -0.530866  4 H  s          
    33      0.530878  5 H  s                  4      0.522860  1 C  py         

 Vector   30  Occ=0.000000D+00  E= 2.830951D+00
              MO Center=  3.7D-03, -1.5D-02, -5.6D-03, r^2= 9.2D-01
   Bfn.  Coefficient  Atom+Function         Bfn.  Coefficient  Atom+Function  
  ----- ------------  ---------------      ----- ------------  ---------------
     8      1.361269  1 C  py                 4     -1.071602  1 C  py         
    12     -0.936310  1 C  py                 9      0.828655  1 C  pz         
     5     -0.652296  1 C  pz                27     -0.612970  3 H  s          
    13     -0.569890  1 C  pz                28      0.480044  3 H  s          
    29      0.421900  3 H  s                 30      0.306751  4 H  s          

 Vector   31  Occ=0.000000D+00  E= 6.093808D+00
              MO Center=  1.2D+00, -4.4D-01,  5.3D-01, r^2= 3.6D-01
   Bfn.  Coefficient  Atom+Function         Bfn.  Coefficient  Atom+Function  
  ----- ------------  ---------------      ----- ------------  ---------------
    22      1.081306  2 F  pz                18     -0.956982  2 F  pz         
    20     -0.695911  2 F  px                16      0.615898  2 F  px         
    21     -0.586546  2 F  py                17      0.519107  2 F  py         
    26     -0.483164  2 F  pz                24      0.310956  2 F  px         
    25      0.262088  2 F  py                13      0.211097  1 C  pz         

 Vector   32  Occ=0.000000D+00  E= 6.093818D+00
              MO Center=  1.2D+00, -4.5D-01,  5.3D-01, r^2= 3.6D-01
   Bfn.  Coefficient  Atom+Function         Bfn.  Coefficient  Atom+Function  
  ----- ------------  ---------------      ----- ------------  ---------------
    21      1.203034  2 F  py                17     -1.064709  2 F  py         
    22      0.731580  2 F  pz                18     -0.647464  2 F  pz         
    25     -0.537565  2 F  py                26     -0.326910  2 F  pz         
    12      0.234892  1 C  py                13      0.142881  1 C  pz         
    20      0.122756  2 F  px                16     -0.108642  2 F  px         

 Vector   33  Occ=0.000000D+00  E= 6.108952D+00
              MO Center=  1.2D+00, -4.6D-01,  5.5D-01, r^2= 3.7D-01
   Bfn.  Coefficient  Atom+Function         Bfn.  Coefficient  Atom+Function  
  ----- ------------  ---------------      ----- ------------  ---------------
    20      1.252951  2 F  px                16     -1.088206  2 F  px         
    24     -0.620835  2 F  px                22      0.554211  2 F  pz         
    18     -0.481340  2 F  pz                21     -0.464875  2 F  py         
    17      0.403749  2 F  py                23      0.342781  2 F  s          
    10     -0.321590  1 C  s                 26     -0.274609  2 F  pz         

 Vector   34  Occ=0.000000D+00  E= 2.330025D+01
              MO Center= -1.1D-03,  4.0D-04, -4.8D-04, r^2= 9.6D-02
   Bfn.  Coefficient  Atom+Function         Bfn.  Coefficient  Atom+Function  
  ----- ------------  ---------------      ----- ------------  ---------------
     2     -2.173144  1 C  s                  1      2.026009  1 C  s          
    10     -0.503112  1 C  s                  6      0.468663  1 C  s          
    29      0.100334  3 H  s                 32      0.100385  4 H  s          
    35      0.100385  5 H  s                 11      0.040979  1 C  px         

 Vector   35  Occ=0.000000D+00  E= 6.672694D+01
              MO Center=  1.2D+00, -4.4D-01,  5.3D-01, r^2= 2.7D-02
   Bfn.  Coefficient  Atom+Function         Bfn.  Coefficient  Atom+Function  
  ----- ------------  ---------------      ----- ------------  ---------------
    15     -2.394458  2 F  s                 14      2.325823  2 F  s          
    23     -0.235710  2 F  s                 19      0.209433  2 F  s          
    10      0.167139  1 C  s                 24      0.062681  2 F  px         
    11      0.042296  1 C  px                28     -0.033132  3 H  s          
    31     -0.033147  4 H  s                 34     -0.033147  5 H  s          


 center of mass
 --------------
 x =   1.21299008 y =  -0.45015712 z =   0.53647636

 moments of inertia (a.u.)
 ------------------
          26.067244250201          16.322052990080         -19.452332476698
          16.322052990080          63.989278669074           7.217418466343
         -19.452332476698           7.217418466343          61.445083909491

     Multipole analysis of the density
     ---------------------------------

     L   x y z        total         alpha         beta         nuclear
     -   - - -        -----         -----         ----         -------
     0   0 0 0     -0.000000     -9.000000     -9.000000     18.000000

     1   1 0 0     -0.738466     -9.695117     -9.695117     18.651768
     1   0 1 0      0.273960      3.597942      3.597942     -6.921925
     1   0 0 1     -0.326657     -4.287943     -4.287943      8.249229

     2   2 0 0    -10.745182    -29.624283    -29.624283     48.503385
     2   1 1 0      0.727375      8.313940      8.313940    -15.900505
     2   1 0 1     -0.866615     -9.908281     -9.908281     18.949947
     2   0 2 0     -9.055022    -10.307908    -10.307908     11.560794
     2   0 1 1      0.321965      3.676477      3.676477     -7.030989
     2   0 0 2     -9.168663    -11.603957    -11.603957     14.039252


 Parallel integral file used       8 records with       0 large values


          -----------------------------------------
          Chemical Shielding Tensors (GIAO, in ppm)
          -----------------------------------------

    0 giaofock schwarz done =     100.00%
    0 giaofock schwarz done =     100.00%
                                NWChem CPHF Module
                                ------------------


  scftype          =     RHF 
  nclosed          =        9
  nopen            =        0
  variables        =      234
  # of vectors     =        3
  tolerance        = 0.10D-03
  level shift      = 0.00D+00
  max iterations   =       50
  max subspace     =       30


 Integral file          = ./ch3f_rot.aoints.0
 Record size in doubles =  65536        No. of integs per rec  =  43688
 Max. records in memory =      3        Max. records in file   = 161655
 No. of bits per label  =      8        No. of bits per value  =     64


 #quartets = 3.714D+04 #integrals = 1.965D+05 #direct =  0.0% #cached =100.0%


File balance: exchanges=     0  moved=     0  time=   0.0

 SCF residual:    1.1792899711762178E-005


Iterative solution of linear equations
  No. of variables      234
  No. of equations        3
  Maximum subspace       30
        Iterations       50
       Convergence  1.0D-04
        Start time      1.3


   iter   nsub   residual    time
   ----  ------  --------  ---------
     1      3    1.93D-01       1.5
     2      6    3.38D-03       1.7
     3      9    2.64D-04       1.9
     4     12    1.93D-05       2.1

 Parallel integral file used       8 records with       0 large values


 Wrote CPHF data to ./ch3f_rot.shieldcphf

 Calc. par tensor-> nonrel
      Atom:    1  C 
        Diamagnetic
    253.5287     -3.7793      4.5039
     -3.7793    244.7456     -1.6727
      4.5039     -1.6727    245.3364

        Paramagnetic
    -91.0123    -24.4685     29.1381
    -24.4685   -147.8252    -10.8194
     29.1381    -10.8194   -144.0264

        Total Shielding Tensor
    162.5163    -28.2478     33.6420
    -28.2478     96.9203    -12.4920
     33.6420    -12.4920    101.3101

           isotropic =     120.2489
          anisotropy =     101.4470

          Principal Components and Axis System
                 1           2           3
              187.8802     86.4348     86.4317

      1         0.8660     -0.4924      0.0870
      2        -0.3215     -0.4152      0.8510
      3         0.3829      0.7650      0.5178



      Atom:    2  F 
        Diamagnetic
    486.7861     -8.3897      9.9997
     -8.3897    467.2902     -3.7109
      9.9997     -3.7109    468.6001

        Paramagnetic
    -60.0102     29.0366    -34.6390
     29.0366      7.5437     12.8608
    -34.6390     12.8608      2.9685

        Total Shielding Tensor
    426.7759     20.6470    -24.6393
     20.6470    474.8340      9.1500
    -24.6393      9.1500    471.5685

           isotropic =     457.7262
          anisotropy =      37.1559

          Principal Components and Axis System
                 1           2           3
              482.4968    482.4626    408.2191

      1         0.0865     -0.4924      0.8661
      2         0.8512     -0.4152     -0.3211
      3         0.5177      0.7650      0.3832



      Atom:    3  H 
        Diamagnetic
     26.5956     -4.8847     -0.4802
     -4.8847     36.1048      3.8476
     -0.4802      3.8476     25.0021

        Paramagnetic
      3.1187      1.4941      1.2825
      1.4941     -6.1295     -3.6603
      1.2825     -3.6603      1.2251

        Total Shielding Tensor
     29.7143     -3.3906      0.8022
     -3.3906     29.9752      0.1872
      0.8022      0.1872     26.2272

           isotropic =      28.6389
          anisotropy =       6.9367

          Principal Components and Axis System
                 1           2           3
               33.2634     27.0442     25.6091

      1        -0.6966      0.5218     -0.4924
      2         0.7149      0.5626     -0.4152
      3        -0.0604      0.6412      0.7650



      Atom:    4  H 
        Diamagnetic
     35.0433      6.2189     -1.5295
      6.2189     28.4579     -2.0519
     -1.5295     -2.0519     24.2201

        Paramagnetic
     -2.0127     -5.2910      2.4651
     -5.2910     -1.7062      1.5178
      2.4651      1.5178      1.9271

        Total Shielding Tensor
     33.0307      0.9279      0.9357
      0.9279     26.7517     -0.5341
      0.9357     -0.5341     26.1471

           isotropic =      28.6432
          anisotropy =       6.9361

          Principal Components and Axis System
                 1           2           3
               33.2672     27.0482     25.6140

      1         0.9842     -0.0450     -0.1711
      2         0.1304      0.8382      0.5296
      3         0.1196     -0.5435      0.8308



      Atom:    5  H 
        Diamagnetic
     25.2577     -0.7855      1.3595
     -0.7855     23.6032     -1.5528
      1.3595     -1.5528     38.8605

        Paramagnetic
      3.4811     -0.4649      1.3284
     -0.4649      2.5265      0.2582
      1.3284      0.2582     -7.7995

        Total Shielding Tensor
     28.7388     -1.2504      2.6879
     -1.2504     26.1297     -1.2947
      2.6879     -1.2947     31.0610

           isotropic =      28.6432
          anisotropy =       6.9361

          Principal Components and Axis System
                 1           2           3
               33.2672     27.0482     25.6140

      1         0.5437      0.7754      0.3212
      2        -0.2411     -0.2223      0.9447
      3         0.8039     -0.5911      0.0660




 Task  times  cpu:        2.1s     wall:        2.2s


                                NWChem Input Module
                                -------------------


 Summary of allocated global arrays
-----------------------------------
  No active global arrays



                         GA Statistics for process    0
                         ------------------------------

       create   destroy   get      put      acc     scatter   gather  read&inc
calls:  599      599     1.90e+05 1717     1.01e+05  136        0      249     
number of processes/call 1.01e+00 1.74e+00 1.05e+00 0.00e+00 0.00e+00
bytes total:             1.84e+07 1.84e+06 1.44e+07 5.41e+03 0.00e+00 1.99e+03
bytes remote:            3.42e+06 4.56e+05 4.04e+06 -4.39e+03 0.00e+00 0.00e+00
Max memory consumed for GA by this process: 216800 bytes

MA_summarize_allocated_blocks: starting scan ...
MA_summarize_allocated_blocks: scan completed: 0 heap blocks, 0 stack blocks
MA usage statistics:

	allocation statistics:
					      heap	     stack
					      ----	     -----
	current number of blocks	         0	         0
	maximum number of blocks	        26	        53
	current total bytes		         0	         0
	maximum total bytes		   3358432	  22511640
	maximum total K-bytes		      3359	     22512
	maximum total M-bytes		         4	        23


                                     CITATION
                                     --------
                Please cite the following reference when publishing
                           results obtained with NWChem:

                 M. Valiev, E.J. Bylaska, N. Govind, K. Kowalski,
              T.P. Straatsma, H.J.J. van Dam, D. Wang, J. Nieplocha,
                        E. Apra, T.L. Windus, W.A. de Jong
                 "NWChem: a comprehensive and scalable open-source
                  solution for large scale molecular simulations"
                      Comput. Phys. Commun. 181, 1477 (2010)
                           doi:10.1016/j.cpc.2010.04.018

                                      AUTHORS
                                      -------
          E. Apra, E. J. Bylaska, W. A. de Jong, N. Govind, K. Kowalski,
       T. P. Straatsma, M. Valiev, H. J. J. van Dam, D. Wang, T. L. Windus,
        J. Hammond, J. Autschbach, K. Bhaskaran-Nair, J. Brabec, K. Lopata,
    S. A. Fischer, S. Krishnamoorthy, M. Jacquelin, W. Ma, M. Klemm, O. Villa,
      Y. Chen, V. Anisimov, F. Aquino, S. Hirata, M. T. Hackler, V. Konjkov,
            D. Mejia-Rodriguez, T. Risthaus, M. Malagoli, A. Marenich,
   A. Otero-de-la-Roza, J. Mullin, P. Nichols, R. Peverati, J. Pittner, Y. Zhao,
        P.-D. Fan, A. Fonari, M. J. Williamson, R. J. Harrison, J. R. Rehr,
      M. Dupuis, D. Silverstein, D. M. A. Smith, J. Nieplocha, V. Tipparaju,
    M. Krishnan, B. E. Van Kuiken, A. Vazquez-Mayagoitia, L. Jensen, M. Swart,
      Q. Wu, T. Van Voorhis, A. A. Auer, M. Nooijen, L. D. Crosby, E. Brown,
      G. Cisneros, G. I. Fann, H. Fruchtl, J. Garza, K. Hirao, R. A. Kendall,
      J. A. Nichols, K. Tsemekhman, K. Wolinski, J. Anchell, D. E. Bernholdt,
      P. Borowski, T. Clark, D. Clerc, H. Dachsel, M. J. O. Deegan, K. Dyall,
    D. Elwood, E. Glendening, M. Gutowski, A. C. Hess, J. Jaffe, B. G. Johnson,
     J. Ju, R. Kobayashi, R. Kutteh, Z. Lin, R. Littlefield, X. Long, B. Meng,
      T. Nakajima, S. Niu, L. Pollack, M. Rosing, K. Glaesemann, G. Sandrone,
      M. Stave, H. Taylor, G. Thomas, J. H. van Lenthe, A. T. Wong, Z. Zhang.

 Total times  cpu:        2.1s     wall:        2.2s
[0] ARMCI Warning: Freed 1 leaked allocations
