 argument  1 = /home/list1234/source/nwchem-6.8.1-release/QA/tests/cho_bp_zora_finite/cho_bp_zora_finite.nw



============================== echo of input deck ==============================

echo
start cho_bp_zora_finite
title cho_bp_zora_finite

memory total 800 stack 400 heap 50 global 350 mb

geometry noautoz units angstrom nocenter nucleus finite
symmetry c1
  C    +10.00000000    +20.00000000    +30.00000000
  O    +11.18337200    +20.00000000    +30.00000000
  H     +9.36848179    +20.94387462    +30.00000000
end

basis
"*" library 6-311G**
end

charge 0

relativistic
  zora on
  zora:cutoff 1d-30
end

dft
odft
mult 2
direct
xc becke88 perdew86
end

task dft
================================================================================


                                         
                                         


              Northwest Computational Chemistry Package (NWChem) 6.8
              ------------------------------------------------------


                    Environmental Molecular Sciences Laboratory
                       Pacific Northwest National Laboratory
                                Richland, WA 99352

                              Copyright (c) 1994-2018
                       Pacific Northwest National Laboratory
                            Battelle Memorial Institute

             NWChem is an open-source computational chemistry package
                        distributed under the terms of the
                      Educational Community License (ECL) 2.0
             A copy of the license is included with this distribution
                              in the LICENSE.TXT file

                                  ACKNOWLEDGMENT
                                  --------------

            This software and its documentation were developed at the
            EMSL at Pacific Northwest National Laboratory, a multiprogram
            national laboratory, operated for the U.S. Department of Energy
            by Battelle under Contract Number DE-AC05-76RL01830. Support
            for this work was provided by the Department of Energy Office
            of Biological and Environmental Research, Office of Basic
            Energy Sciences, and the Office of Advanced Scientific Computing.


           Job information
           ---------------

    hostname        = list1234-B360M-H
    program         = /home/list1234/source/nwchem-6.8.1-release/bin/LINUX64/nwchem
    date            = Sun Jun 30 14:07:27 2019

    compiled        = Sun_Jun_30_11:55:59_2019
    source          = /home/list1234/source/nwchem-6.8.1-release
    nwchem branch   = Development
    nwchem revision = N/A
    ga revision     = 5.6.5
    use scalapack   = T
    input           = /home/list1234/source/nwchem-6.8.1-release/QA/tests/cho_bp_zora_finite/cho_bp_zora_finite.nw
    prefix          = cho_bp_zora_finite.
    data base       = ./cho_bp_zora_finite.db
    status          = startup
    nproc           =        4
    time left       =     -1s



           Memory information
           ------------------

    heap     =    6553596 doubles =     50.0 Mbytes
    stack    =   52428801 doubles =    400.0 Mbytes
    global   =   45875200 doubles =    350.0 Mbytes (distinct from heap & stack)
    total    =  104857597 doubles =    800.0 Mbytes
    verify   = yes
    hardfail = no 


           Directory information
           ---------------------

  0 permanent = .
  0 scratch   = .




                                NWChem Input Module
                                -------------------


                                cho_bp_zora_finite
                                ------------------

 Scaling coordinates for geometry "geometry" by  1.889725989
 (inverse scale =  0.529177249)

 Turning off AUTOSYM since
 SYMMETRY directive was detected!



                             Geometry "geometry" -> ""
                             -------------------------

 Output coordinates in angstroms (scale by  1.889725989 to convert to a.u.)

  No.       Tag          Charge          X              Y              Z
 ---- ---------------- ---------- -------------- -------------- --------------
    1 C                    6.0000    10.00000000    20.00000000    30.00000000
    2 O                    8.0000    11.18337200    20.00000000    30.00000000
    3 H                    1.0000     9.36848179    20.94387462    30.00000000

      Atomic Mass and Nuclear Exponent 
      -------------------------------- 

      C                 12.000000        6.807750E+08
      O                 15.994910        5.863144E+08
      H                  1.007825        2.124824E+09


 Effective nuclear repulsion energy (a.u.)      26.3297764084

            Nuclear Dipole moment (a.u.) 
            ----------------------------
        X                 Y               Z
 ---------------- ---------------- ----------------
   300.1554924938   568.7014609734   850.3766948610


            XYZ format geometry
            -------------------
     3
 geometry
 C                    10.00000000    20.00000000    30.00000000
 O                    11.18337200    20.00000000    30.00000000
 H                     9.36848179    20.94387462    30.00000000

 ==============================================================================
                                internuclear distances
 ------------------------------------------------------------------------------
       center one      |      center two      | atomic units |  angstroms
 ------------------------------------------------------------------------------
    2 O                |   1 C                |     2.23625  |     1.18337
    3 H                |   1 C                |     2.14608  |     1.13566
 ------------------------------------------------------------------------------
                         number of included internuclear distances:          2
 ==============================================================================



 ==============================================================================
                                 internuclear angles
 ------------------------------------------------------------------------------
        center 1       |       center 2       |       center 3       |  degrees
 ------------------------------------------------------------------------------
    2 O                |   1 C                |   3 H                |   123.79
 ------------------------------------------------------------------------------
                            number of included internuclear angles:          1
 ==============================================================================





 Summary of "ao basis" -> "" (cartesian)
 ------------------------------------------------------------------------------
       Tag                 Description            Shells   Functions and Types
 ---------------- ------------------------------  ------  ---------------------
 *                          6-311G**                  on all atoms 


  perdew86 is a nonlocal functional; adding perdew81 local functional. 

                                 NWChem DFT Module
                                 -----------------


                                cho_bp_zora_finite


                      Basis "ao basis" -> "ao basis" (cartesian)
                      -----
  C (Carbon)
  ----------
            Exponent  Coefficients 
       -------------- ---------------------------------------------------------
  1 S  4.56324000E+03  0.001967
  1 S  6.82024000E+02  0.015231
  1 S  1.54973000E+02  0.076127
  1 S  4.44553000E+01  0.260801
  1 S  1.30290000E+01  0.616462
  1 S  1.82773000E+00  0.221006

  2 S  2.09642000E+01  0.114660
  2 S  4.80331000E+00  0.919999
  2 S  1.45933000E+00 -0.003031

  3 P  2.09642000E+01  0.040249
  3 P  4.80331000E+00  0.237594
  3 P  1.45933000E+00  0.815854

  4 S  4.83456000E-01  1.000000

  5 P  4.83456000E-01  1.000000

  6 S  1.45585000E-01  1.000000

  7 P  1.45585000E-01  1.000000

  8 D  6.26000000E-01  1.000000

  O (Oxygen)
  ----------
            Exponent  Coefficients 
       -------------- ---------------------------------------------------------
  1 S  8.58850000E+03  0.001895
  1 S  1.29723000E+03  0.014386
  1 S  2.99296000E+02  0.070732
  1 S  8.73771000E+01  0.240001
  1 S  2.56789000E+01  0.594797
  1 S  3.74004000E+00  0.280802

  2 S  4.21175000E+01  0.113889
  2 S  9.62837000E+00  0.920811
  2 S  2.85332000E+00 -0.003274

  3 P  4.21175000E+01  0.036511
  3 P  9.62837000E+00  0.237153
  3 P  2.85332000E+00  0.819702

  4 S  9.05661000E-01  1.000000

  5 P  9.05661000E-01  1.000000

  6 S  2.55611000E-01  1.000000

  7 P  2.55611000E-01  1.000000

  8 D  1.29200000E+00  1.000000

  H (Hydrogen)
  ------------
            Exponent  Coefficients 
       -------------- ---------------------------------------------------------
  1 S  3.38650000E+01  0.025494
  1 S  5.09479000E+00  0.190373
  1 S  1.15879000E+00  0.852161

  2 S  3.25840000E-01  1.000000

  3 S  1.02741000E-01  1.000000

  4 P  7.50000000E-01  1.000000



 Summary of "ao basis" -> "ao basis" (cartesian)
 ------------------------------------------------------------------------------
       Tag                 Description            Shells   Functions and Types
 ---------------- ------------------------------  ------  ---------------------
 C                          6-311G**                 8       19   4s3p1d
 O                          6-311G**                 8       19   4s3p1d
 H                          6-311G**                 4        6   3s1p




 Summary of "ao basis" -> "ao basis" (cartesian)
 ------------------------------------------------------------------------------
       Tag                 Description            Shells   Functions and Types
 ---------------- ------------------------------  ------  ---------------------
 C                          6-311G**                 8       19   4s3p1d
 O                          6-311G**                 8       19   4s3p1d
 H                          6-311G**                 4        6   3s1p


  Caching 1-el integrals 

            General Information
            -------------------
          SCF calculation type: DFT
          Wavefunction type:  spin polarized.
          No. of atoms     :     3
          No. of electrons :    15
           Alpha electrons :     8
            Beta electrons :     7
          Charge           :     0
          Spin multiplicity:     2
          Use of symmetry is: off; symmetry adaption is: off
          Maximum number of iterations:  30
          This is a Direct SCF calculation.
          AO basis - number of functions:    44
                     number of shells:    20
          Convergence on energy requested:  1.00D-06
          Convergence on density requested:  1.00D-05
          Convergence on gradient requested:  5.00D-04

              XC Information
              --------------
                    Becke 1988 Exchange Functional  1.000          
                Perdew 1981 Correlation Functional  1.000 local    
                Perdew 1986 Correlation Functional  1.000 non-local

             Grid Information
             ----------------
          Grid used for XC integration:  medium    
          Radial quadrature: Mura-Knowles        
          Angular quadrature: Lebedev. 
          Tag              B.-S. Rad. Rad. Pts. Rad. Cut. Ang. Pts.
          ---              ---------- --------- --------- ---------
          C                   0.70       49           6.0       434
          O                   0.60       49           7.0       434
          H                   0.35       45           6.0       434
          Grid pruning is: on 
          Number of quadrature shells:   143
          Spatial weights used:  Erf1

          Convergence Information
          -----------------------
          Convergence aids based upon iterative change in 
          total energy or number of iterations. 
          Levelshifting, if invoked, occurs when the 
          HOMO/LUMO gap drops below (HL_TOL):  1.00D-02
          DIIS, if invoked, will attempt to extrapolate 
          using up to (NFOCK): 10 stored Fock matrices.

                    Damping( 0%)  Levelshifting(0.5)       DIIS
                  --------------- ------------------- ---------------
          dE  on:    start            ASAP                start   
          dE off:    2 iters         30 iters            30 iters 


      Screening Tolerance Information
      -------------------------------
          Density screening/tol_rho:  1.00D-10
          AO Gaussian exp screening on grid/accAOfunc:  14
          CD Gaussian exp screening on grid/accCDfunc:  20
          XC Gaussian exp screening on grid/accXCfunc:  20
          Schwarz screening/accCoul:  1.00D-08

          Performing ZORA calculations
          ----------------------------


      Superposition of Atomic Density Guess
      -------------------------------------

 Sum of atomic energies:        -112.94448641

 Read atomic ZORA corrections from ./cho_bp_zora_finite.zora_sf

 dft_zora_read: failed to open./cho_bp_zora_finite.zora_sf
       Generating atomic ZORA corrections
       ----------------------------------

 In dft_scf:: zora:Knucl= F

 Grid_pts file          = ./cho_bp_zora_finite.gridpts.0
 Record size in doubles =  12289        No. of grid_pts per rec  =   3070
 Max. records in memory =      7        Max. recs in file   =    861952


 Wrote atomic ZORA corrections to ./cho_bp_zora_finite.zora_sf


      Superposition of Atomic Density Guess
      -------------------------------------

 Sum of atomic energies:        -112.94448641

      Non-variational initial energy
      ------------------------------

 Total energy =    -113.416809
 1-e energy   =    -205.865318
 2-e energy   =      66.118733
 HOMO         =      -0.119913
 LUMO         =      -0.003902

   Time after variat. SCF:      0.5
   Time prior to 1st pass:      0.5

           Memory utilization after 1st SCF pass: 
           Heap Space remaining (MW):        6.47             6465420
          Stack Space remaining (MW):       52.42            52424380

   convergence    iter        energy       DeltaE   RMS-Dens  Diis-err    time
 ---------------- ----- ----------------- --------- --------- ---------  ------
 d= 0,ls=0.0,diis     1   -113.9063776611 -1.40D+02  1.54D-02  2.91D-01     0.6
                                                     1.26D-02  2.89D-01
 d= 0,ls=0.0,diis     2   -113.2411601884  6.65D-01  1.37D-02  1.85D+00     0.6
                                                     1.11D-02  1.77D+00
 d= 0,ls=0.0,diis     3   -113.9720127717 -7.31D-01  2.55D-03  5.77D-02     0.7
                                                     1.83D-03  5.86D-02
 d= 0,ls=0.0,diis     4   -113.9899343774 -1.79D-02  1.56D-03  3.38D-03     0.7
                                                     7.19D-04  2.79D-03
 d= 0,ls=0.0,diis     5   -113.9911879903 -1.25D-03  4.67D-04  2.11D-04     0.8
                                                     1.86D-04  1.85D-04
  Resetting Diis
 d= 0,ls=0.0,diis     6   -113.9912888428 -1.01D-04  7.05D-05  9.51D-06     0.8
                                                     3.32D-05  8.47D-06
 d= 0,ls=0.0,diis     7   -113.9912936702 -4.83D-06  1.81D-05  2.78D-07     0.9
                                                     1.51D-05  2.18D-07
 d= 0,ls=0.0,diis     8   -113.9912928073  8.63D-07  1.18D-05  2.49D-06     1.0
                                                     1.15D-05  2.62D-06
 d= 0,ls=0.0,diis     9   -113.9912937759 -9.69D-07  1.36D-06  7.50D-09     1.0
                                                     9.64D-07  6.20D-09
(nogshift,skip_gshiftAOev,done_Fji)=( 1,F,F)


         Total DFT energy =     -113.991293775885
      One electron energy =     -206.954051399037
           Coulomb energy =       80.932231516755
    Exchange-Corr. energy =      -14.299250302031
 Nuclear repulsion energy =       26.329776408429

       Scaling correction =        0.038086827767

 Numeric. integr. density =       14.999999579566

     Total iterative time =      0.5s



                    DFT Final Alpha Molecular Orbital Analysis
                    ------------------------------------------

 Vector    1  Occ=1.000000D+00  E=-1.884413D+01
              MO Center=  1.1D+01,  2.0D+01,  3.0D+01, r^2= 1.5D-02
   Bfn.  Coefficient  Atom+Function         Bfn.  Coefficient  Atom+Function  
  ----- ------------  ---------------      ----- ------------  ---------------
    20      0.555789  2 O  s                 21      0.461813  2 O  s          

 Vector    2  Occ=1.000000D+00  E=-1.000387D+01
              MO Center=  1.0D+01,  2.0D+01,  3.0D+01, r^2= 2.8D-02
   Bfn.  Coefficient  Atom+Function         Bfn.  Coefficient  Atom+Function  
  ----- ------------  ---------------      ----- ------------  ---------------
     1      0.566175  1 C  s                  2      0.456010  1 C  s          
     6      0.025495  1 C  s          

 Vector    3  Occ=1.000000D+00  E=-1.025001D+00
              MO Center=  1.1D+01,  2.0D+01,  3.0D+01, r^2= 4.5D-01
   Bfn.  Coefficient  Atom+Function         Bfn.  Coefficient  Atom+Function  
  ----- ------------  ---------------      ----- ------------  ---------------
    25      0.516057  2 O  s                 29      0.333190  2 O  s          
     6      0.249846  1 C  s                 21     -0.175826  2 O  s          
    26     -0.116855  2 O  px                 7      0.115014  1 C  px         
    20     -0.111480  2 O  s                  3      0.098135  1 C  px         
     2     -0.095707  1 C  s                 22     -0.082302  2 O  px         

 Vector    4  Occ=1.000000D+00  E=-5.576486D-01
              MO Center=  1.0D+01,  2.0D+01,  3.0D+01, r^2= 1.3D+00
   Bfn.  Coefficient  Atom+Function         Bfn.  Coefficient  Atom+Function  
  ----- ------------  ---------------      ----- ------------  ---------------
     6      0.403854  1 C  s                 10      0.272147  1 C  s          
    29     -0.273250  2 O  s                 25     -0.249314  2 O  s          
    40      0.199615  3 H  s                 39      0.147172  3 H  s          
     2     -0.139023  1 C  s                 26     -0.117876  2 O  px         
     8      0.099161  1 C  py                 1     -0.089839  1 C  s          

 Vector    5  Occ=1.000000D+00  E=-4.473703D-01
              MO Center=  1.1D+01,  2.0D+01,  3.0D+01, r^2= 1.1D+00
   Bfn.  Coefficient  Atom+Function         Bfn.  Coefficient  Atom+Function  
  ----- ------------  ---------------      ----- ------------  ---------------
    26      0.288998  2 O  px                29      0.272157  2 O  s          
    22      0.209452  2 O  px                30      0.209519  2 O  px         
    25      0.194752  2 O  s                  7     -0.165147  1 C  px         
    27      0.163046  2 O  py                 8      0.158770  1 C  py         
    40      0.134954  3 H  s                  6     -0.125650  1 C  s          

 Vector    6  Occ=1.000000D+00  E=-3.967485D-01
              MO Center=  1.1D+01,  2.0D+01,  3.0D+01, r^2= 8.9D-01
   Bfn.  Coefficient  Atom+Function         Bfn.  Coefficient  Atom+Function  
  ----- ------------  ---------------      ----- ------------  ---------------
    28      0.364996  2 O  pz                32      0.295369  2 O  pz         
    24      0.250782  2 O  pz                 9      0.239652  1 C  pz         
    13      0.162324  1 C  pz                 5      0.158343  1 C  pz         
    16      0.071251  1 C  dxz               35     -0.041023  2 O  dxz        

 Vector    7  Occ=1.000000D+00  E=-3.856308D-01
              MO Center=  1.1D+01,  2.0D+01,  3.0D+01, r^2= 1.1D+00
   Bfn.  Coefficient  Atom+Function         Bfn.  Coefficient  Atom+Function  
  ----- ------------  ---------------      ----- ------------  ---------------
    27      0.304027  2 O  py                31      0.245848  2 O  py         
    23      0.210328  2 O  py                10     -0.191538  1 C  s          
     7      0.184609  1 C  px                26     -0.168603  2 O  px         
     8      0.166093  1 C  py                30     -0.133025  2 O  px         
     3      0.131793  1 C  px                12      0.127075  1 C  py         

 Vector    8  Occ=1.000000D+00  E=-1.781968D-01
              MO Center=  1.0D+01,  2.0D+01,  3.0D+01, r^2= 1.6D+00
   Bfn.  Coefficient  Atom+Function         Bfn.  Coefficient  Atom+Function  
  ----- ------------  ---------------      ----- ------------  ---------------
    10      0.527129  1 C  s                 31      0.339925  2 O  py         
    27      0.285308  2 O  py                40     -0.285687  3 H  s          
     8     -0.254266  1 C  py                12     -0.226217  1 C  py         
    41     -0.225927  3 H  s                 23      0.204061  2 O  py         
     6      0.189928  1 C  s                  4     -0.166071  1 C  py         

 Vector    9  Occ=0.000000D+00  E=-9.292580D-02
              MO Center=  1.0D+01,  2.0D+01,  3.0D+01, r^2= 1.4D+00
   Bfn.  Coefficient  Atom+Function         Bfn.  Coefficient  Atom+Function  
  ----- ------------  ---------------      ----- ------------  ---------------
    13      0.538296  1 C  pz                32     -0.422356  2 O  pz         
     9      0.388747  1 C  pz                28     -0.284514  2 O  pz         
     5      0.243033  1 C  pz                24     -0.207747  2 O  pz         
    16     -0.047659  1 C  dxz               44      0.031888  3 H  pz         

 Vector   10  Occ=0.000000D+00  E= 4.480080D-02
              MO Center=  9.2D+00,  2.1D+01,  3.0D+01, r^2= 2.7D+00
   Bfn.  Coefficient  Atom+Function         Bfn.  Coefficient  Atom+Function  
  ----- ------------  ---------------      ----- ------------  ---------------
    41      1.835716  3 H  s                 10     -1.207317  1 C  s          
    12     -0.669559  1 C  py                11      0.289021  1 C  px         
     8     -0.205321  1 C  py                31      0.203332  2 O  py         
     6     -0.193928  1 C  s                  4     -0.152681  1 C  py         
    27      0.073628  2 O  py                 2      0.072935  1 C  s          

 Vector   11  Occ=0.000000D+00  E= 1.648245D-01
              MO Center=  1.0D+01,  2.0D+01,  3.0D+01, r^2= 2.8D+00
   Bfn.  Coefficient  Atom+Function         Bfn.  Coefficient  Atom+Function  
  ----- ------------  ---------------      ----- ------------  ---------------
    29     -1.812979  2 O  s                 10      1.667334  1 C  s          
    11      1.632302  1 C  px                30      0.653294  2 O  px         
    41      0.232450  3 H  s                 25     -0.218952  2 O  s          
    40     -0.201606  3 H  s                  7      0.121871  1 C  px         
    26      0.092511  2 O  px                21      0.087596  2 O  s          

 Vector   12  Occ=0.000000D+00  E= 3.118264D-01
              MO Center=  9.5D+00,  2.0D+01,  3.0D+01, r^2= 2.1D+00
   Bfn.  Coefficient  Atom+Function         Bfn.  Coefficient  Atom+Function  
  ----- ------------  ---------------      ----- ------------  ---------------
    40      1.614292  3 H  s                 11      0.754292  1 C  px         
    41     -0.616323  3 H  s                 10     -0.604035  1 C  s          
    12     -0.553574  1 C  py                 8     -0.444081  1 C  py         
    29     -0.273984  2 O  s                 31      0.221742  2 O  py         
     4     -0.161384  1 C  py                39      0.146356  3 H  s          

 Vector   13  Occ=0.000000D+00  E= 3.498455D-01
              MO Center=  9.9D+00,  1.9D+01,  3.0D+01, r^2= 2.2D+00
   Bfn.  Coefficient  Atom+Function         Bfn.  Coefficient  Atom+Function  
  ----- ------------  ---------------      ----- ------------  ---------------
    12      1.367737  1 C  py                 8     -0.618064  1 C  py         
    40     -0.538842  3 H  s                  6      0.510055  1 C  s          
    10     -0.471682  1 C  s                  7     -0.250345  1 C  px         
     4     -0.175914  1 C  py                31     -0.157756  2 O  py         
    29      0.154796  2 O  s                 19      0.097083  1 C  dzz        

 Vector   14  Occ=0.000000D+00  E= 3.532705D-01
              MO Center=  1.0D+01,  2.0D+01,  3.0D+01, r^2= 2.5D+00
   Bfn.  Coefficient  Atom+Function         Bfn.  Coefficient  Atom+Function  
  ----- ------------  ---------------      ----- ------------  ---------------
    13      1.214220  1 C  pz                 9     -0.841643  1 C  pz         
     5     -0.245396  1 C  pz                32     -0.071204  2 O  pz         
    16     -0.062296  1 C  dxz               28     -0.038019  2 O  pz         
    35      0.037653  2 O  dxz        

 Vector   15  Occ=0.000000D+00  E= 5.143418D-01
              MO Center=  9.5D+00,  2.1D+01,  3.0D+01, r^2= 2.6D+00
   Bfn.  Coefficient  Atom+Function         Bfn.  Coefficient  Atom+Function  
  ----- ------------  ---------------      ----- ------------  ---------------
    10      3.214521  1 C  s                 41     -1.982835  3 H  s          
    12      1.354681  1 C  py                 6     -1.330756  1 C  s          
    11     -0.752171  1 C  px                 8     -0.404916  1 C  py         
     7      0.245656  1 C  px                19     -0.222877  1 C  dzz        
    17     -0.214312  1 C  dyy               29     -0.202549  2 O  s          

 Vector   16  Occ=0.000000D+00  E= 5.570550D-01
              MO Center=  1.1D+01,  2.0D+01,  3.0D+01, r^2= 1.5D+00
   Bfn.  Coefficient  Atom+Function         Bfn.  Coefficient  Atom+Function  
  ----- ------------  ---------------      ----- ------------  ---------------
     7      1.009302  1 C  px                30      0.943150  2 O  px         
    11     -0.763244  1 C  px                 6      0.737683  1 C  s          
    41     -0.389069  3 H  s                  3      0.316042  1 C  px         
    10      0.281000  1 C  s                 29     -0.253477  2 O  s          
    12      0.242123  1 C  py                25     -0.229489  2 O  s          

 Vector   17  Occ=0.000000D+00  E= 6.666213D-01
              MO Center=  1.2D+01,  2.0D+01,  3.0D+01, r^2= 1.4D+00
   Bfn.  Coefficient  Atom+Function         Bfn.  Coefficient  Atom+Function  
  ----- ------------  ---------------      ----- ------------  ---------------
    30      1.537820  2 O  px                10      0.733911  1 C  s          
    29     -0.679023  2 O  s                 26     -0.628122  2 O  px         
    11      0.399441  1 C  px                14      0.319459  1 C  dxx        
     6      0.312341  1 C  s                 22     -0.256620  2 O  px         
    25     -0.176656  2 O  s                  7      0.132150  1 C  px         

 Vector   18  Occ=0.000000D+00  E= 7.540656D-01
              MO Center=  1.1D+01,  2.0D+01,  3.0D+01, r^2= 1.7D+00
   Bfn.  Coefficient  Atom+Function         Bfn.  Coefficient  Atom+Function  
  ----- ------------  ---------------      ----- ------------  ---------------
    32      1.387440  2 O  pz                28     -0.782397  2 O  pz         
    13     -0.535504  1 C  pz                24     -0.257318  2 O  pz         
    44     -0.085590  3 H  pz                16     -0.083489  1 C  dxz        
     5      0.063719  1 C  pz                18     -0.042148  1 C  dyz        
    35      0.036680  2 O  dxz        

 Vector   19  Occ=0.000000D+00  E= 7.843211D-01
              MO Center=  1.1D+01,  2.0D+01,  3.0D+01, r^2= 1.9D+00
   Bfn.  Coefficient  Atom+Function         Bfn.  Coefficient  Atom+Function  
  ----- ------------  ---------------      ----- ------------  ---------------
    31      1.536914  2 O  py                12     -1.093743  1 C  py         
    10     -0.834636  1 C  s                 27     -0.750712  2 O  py         
    41      0.466624  3 H  s                 40      0.366420  3 H  s          
    11      0.259822  1 C  px                23     -0.236130  2 O  py         
     6      0.194120  1 C  s                 15     -0.164376  1 C  dxy        

 Vector   20  Occ=0.000000D+00  E= 1.014918D+00
              MO Center=  9.8D+00,  2.0D+01,  3.0D+01, r^2= 1.1D+00
   Bfn.  Coefficient  Atom+Function         Bfn.  Coefficient  Atom+Function  
  ----- ------------  ---------------      ----- ------------  ---------------
    18      1.113370  1 C  dyz               44      0.554730  3 H  pz         
    16     -0.324420  1 C  dxz               13     -0.299389  1 C  pz         
    32      0.299064  2 O  pz                37      0.075988  2 O  dyz        
    35      0.054011  2 O  dxz               28     -0.053063  2 O  pz         
     9     -0.026181  1 C  pz         

 Vector   21  Occ=0.000000D+00  E= 1.095888D+00
              MO Center=  1.0D+01,  2.0D+01,  3.0D+01, r^2= 1.7D+00
   Bfn.  Coefficient  Atom+Function         Bfn.  Coefficient  Atom+Function  
  ----- ------------  ---------------      ----- ------------  ---------------
    29      3.007932  2 O  s                 10     -1.770088  1 C  s          
    30     -1.168241  2 O  px                25     -1.082088  2 O  s          
    11     -0.714683  1 C  px                15     -0.571583  1 C  dxy        
     7     -0.383185  1 C  px                42     -0.379190  3 H  px         
    19      0.297606  1 C  dzz               31      0.294572  2 O  py         

 Vector   22  Occ=0.000000D+00  E= 1.155066D+00
              MO Center=  1.0D+01,  2.0D+01,  3.0D+01, r^2= 1.8D+00
   Bfn.  Coefficient  Atom+Function         Bfn.  Coefficient  Atom+Function  
  ----- ------------  ---------------      ----- ------------  ---------------
    29      3.507599  2 O  s                 10     -1.613091  1 C  s          
    11     -1.332405  1 C  px                30     -1.066129  2 O  px         
    25     -1.058469  2 O  s                 15      0.606198  1 C  dxy        
    17      0.493990  1 C  dyy                7     -0.457922  1 C  px         
    19     -0.387845  1 C  dzz                6     -0.335429  1 C  s          

 Vector   23  Occ=0.000000D+00  E= 1.280061D+00
              MO Center=  1.0D+01,  2.0D+01,  3.0D+01, r^2= 1.0D+00
   Bfn.  Coefficient  Atom+Function         Bfn.  Coefficient  Atom+Function  
  ----- ------------  ---------------      ----- ------------  ---------------
    16      1.564424  1 C  dxz               18      0.748806  1 C  dyz        
    32     -0.363498  2 O  pz                13      0.296340  1 C  pz         
    35     -0.217794  2 O  dxz               44     -0.157718  3 H  pz         
    28     -0.107837  2 O  pz                37      0.070477  2 O  dyz        
    24     -0.065242  2 O  pz         

 Vector   24  Occ=0.000000D+00  E= 1.378964D+00
              MO Center=  9.9D+00,  2.0D+01,  3.0D+01, r^2= 1.4D+00
   Bfn.  Coefficient  Atom+Function         Bfn.  Coefficient  Atom+Function  
  ----- ------------  ---------------      ----- ------------  ---------------
    40      1.395121  3 H  s                 15      1.198447  1 C  dxy        
    10     -0.832068  1 C  s                 12     -0.590907  1 C  py         
    19      0.556046  1 C  dzz               17     -0.473344  1 C  dyy        
    29      0.392314  2 O  s                 39     -0.328570  3 H  s          
    11      0.225129  1 C  px                41     -0.225520  3 H  s          

 Vector   25  Occ=0.000000D+00  E= 1.519197D+00
              MO Center=  9.9D+00,  2.0D+01,  3.0D+01, r^2= 1.4D+00
   Bfn.  Coefficient  Atom+Function         Bfn.  Coefficient  Atom+Function  
  ----- ------------  ---------------      ----- ------------  ---------------
    29      1.517508  2 O  s                 10     -1.142179  1 C  s          
    11     -0.867604  1 C  px                19      0.710274  1 C  dzz        
    15     -0.705069  1 C  dxy               42      0.600707  3 H  px         
    14     -0.478303  1 C  dxx               43      0.419302  3 H  py         
    26     -0.355031  2 O  px                12     -0.263565  1 C  py         

 Vector   26  Occ=0.000000D+00  E= 1.685082D+00
              MO Center=  9.7D+00,  2.0D+01,  3.0D+01, r^2= 1.2D+00
   Bfn.  Coefficient  Atom+Function         Bfn.  Coefficient  Atom+Function  
  ----- ------------  ---------------      ----- ------------  ---------------
    18      1.198655  1 C  dyz               44     -0.954964  3 H  pz         
    16     -0.809042  1 C  dxz               13      0.246820  1 C  pz         
    37      0.200928  2 O  dyz               35      0.140079  2 O  dxz        
     5      0.124025  1 C  pz                28      0.108969  2 O  pz         
    32     -0.073565  2 O  pz                24      0.053982  2 O  pz         

 Vector   27  Occ=0.000000D+00  E= 1.956239D+00
              MO Center=  9.9D+00,  2.0D+01,  3.0D+01, r^2= 1.2D+00
   Bfn.  Coefficient  Atom+Function         Bfn.  Coefficient  Atom+Function  
  ----- ------------  ---------------      ----- ------------  ---------------
    14      0.965495  1 C  dxx               17     -0.918742  1 C  dyy        
    25     -0.633339  2 O  s                 42      0.540915  3 H  px         
    19     -0.535118  1 C  dzz               26      0.526929  2 O  px         
    30     -0.441578  2 O  px                29      0.421568  2 O  s          
    43      0.408286  3 H  py                15     -0.326490  1 C  dxy        

 Vector   28  Occ=0.000000D+00  E= 2.107611D+00
              MO Center=  9.7D+00,  2.1D+01,  3.0D+01, r^2= 1.3D+00
   Bfn.  Coefficient  Atom+Function         Bfn.  Coefficient  Atom+Function  
  ----- ------------  ---------------      ----- ------------  ---------------
    40      1.607136  3 H  s                 39     -1.248176  3 H  s          
    41     -0.914464  3 H  s                 10      0.619549  1 C  s          
     8     -0.601954  1 C  py                 4      0.525572  1 C  py         
     7      0.452464  1 C  px                15     -0.408993  1 C  dxy        
    34      0.327452  2 O  dxy               19     -0.281217  1 C  dzz        

 Vector   29  Occ=0.000000D+00  E= 2.324281D+00
              MO Center=  9.6D+00,  2.1D+01,  3.0D+01, r^2= 1.2D+00
   Bfn.  Coefficient  Atom+Function         Bfn.  Coefficient  Atom+Function  
  ----- ------------  ---------------      ----- ------------  ---------------
    40      2.687030  3 H  s                 43     -1.352068  3 H  py         
    10     -1.105612  1 C  s                 15      1.071227  1 C  dxy        
    42      0.917368  3 H  px                12     -0.860330  1 C  py         
    39     -0.670473  3 H  s                  7      0.655052  1 C  px         
     6     -0.631091  1 C  s                 17     -0.583433  1 C  dyy        

 Vector   30  Occ=0.000000D+00  E= 2.455516D+00
              MO Center=  1.0D+01,  2.0D+01,  3.0D+01, r^2= 8.3D-01
   Bfn.  Coefficient  Atom+Function         Bfn.  Coefficient  Atom+Function  
  ----- ------------  ---------------      ----- ------------  ---------------
     9      1.390923  1 C  pz                 5     -1.261296  1 C  pz         
    13     -0.573547  1 C  pz                35     -0.321497  2 O  dxz        
    16     -0.288338  1 C  dxz               44     -0.171403  3 H  pz         
    37      0.123152  2 O  dyz               18      0.107041  1 C  dyz        
    32      0.102095  2 O  pz                28     -0.049940  2 O  pz         

 Vector   31  Occ=0.000000D+00  E= 2.501140D+00
              MO Center=  9.8D+00,  2.0D+01,  3.0D+01, r^2= 8.7D-01
   Bfn.  Coefficient  Atom+Function         Bfn.  Coefficient  Atom+Function  
  ----- ------------  ---------------      ----- ------------  ---------------
     6      1.299133  1 C  s                 10      1.185719  1 C  s          
     8      1.101034  1 C  py                19     -0.898126  1 C  dzz        
     4     -0.806808  1 C  py                14     -0.728199  1 C  dxx        
    17     -0.615551  1 C  dyy                3     -0.560576  1 C  px         
     7      0.543203  1 C  px                15     -0.479785  1 C  dxy        

 Vector   32  Occ=0.000000D+00  E= 2.699745D+00
              MO Center=  1.1D+01,  2.0D+01,  3.0D+01, r^2= 7.8D-01
   Bfn.  Coefficient  Atom+Function         Bfn.  Coefficient  Atom+Function  
  ----- ------------  ---------------      ----- ------------  ---------------
    36     -0.805443  2 O  dyy               38      0.794883  2 O  dzz        
    10      0.744981  1 C  s                 19     -0.601679  1 C  dzz        
     6      0.589536  1 C  s                 14     -0.504454  1 C  dxx        
    12      0.334467  1 C  py                41     -0.277388  3 H  s          
     8     -0.246061  1 C  py                 7      0.241144  1 C  px         

 Vector   33  Occ=0.000000D+00  E= 2.711571D+00
              MO Center=  1.1D+01,  2.0D+01,  3.0D+01, r^2= 4.9D-01
   Bfn.  Coefficient  Atom+Function         Bfn.  Coefficient  Atom+Function  
  ----- ------------  ---------------      ----- ------------  ---------------
    37      1.722071  2 O  dyz               18     -0.419198  1 C  dyz        
    44      0.144391  3 H  pz                 9     -0.107261  1 C  pz         
     5      0.082187  1 C  pz                16      0.072835  1 C  dxz        

 Vector   34  Occ=0.000000D+00  E= 2.995544D+00
              MO Center=  1.0D+01,  2.0D+01,  3.0D+01, r^2= 8.3D-01
   Bfn.  Coefficient  Atom+Function         Bfn.  Coefficient  Atom+Function  
  ----- ------------  ---------------      ----- ------------  ---------------
    14      2.097523  1 C  dxx                7      1.507437  1 C  px         
     6     -1.219858  1 C  s                 17      1.188472  1 C  dyy        
    29     -1.170561  2 O  s                  3     -0.816461  1 C  px         
    19      0.775498  1 C  dzz                8      0.756816  1 C  py         
    26      0.740526  2 O  px                30      0.668055  2 O  px         

 Vector   35  Occ=0.000000D+00  E= 3.192467D+00
              MO Center=  1.1D+01,  2.0D+01,  3.0D+01, r^2= 6.9D-01
   Bfn.  Coefficient  Atom+Function         Bfn.  Coefficient  Atom+Function  
  ----- ------------  ---------------      ----- ------------  ---------------
    35      1.857544  2 O  dxz               16      0.986468  1 C  dxz        
     9      0.608982  1 C  pz                32     -0.338211  2 O  pz         
     5     -0.327141  1 C  pz                24     -0.064095  2 O  pz         
    13     -0.041411  1 C  pz                44      0.034903  3 H  pz         
    18     -0.028058  1 C  dyz        

 Vector   36  Occ=0.000000D+00  E= 3.243325D+00
              MO Center=  1.1D+01,  2.0D+01,  3.0D+01, r^2= 1.0D+00
   Bfn.  Coefficient  Atom+Function         Bfn.  Coefficient  Atom+Function  
  ----- ------------  ---------------      ----- ------------  ---------------
    34      1.584740  2 O  dxy                8      1.327293  1 C  py         
    40     -0.814846  3 H  s                  7     -0.654869  1 C  px         
    17      0.607256  1 C  dyy                4     -0.583976  1 C  py         
    42     -0.514343  3 H  px                43      0.388056  3 H  py         
    29     -0.375792  2 O  s                  3      0.352852  1 C  px         

 Vector   37  Occ=0.000000D+00  E= 3.366465D+00
              MO Center=  1.0D+01,  2.0D+01,  3.0D+01, r^2= 1.3D+00
   Bfn.  Coefficient  Atom+Function         Bfn.  Coefficient  Atom+Function  
  ----- ------------  ---------------      ----- ------------  ---------------
    15      1.609500  1 C  dxy                8     -1.063990  1 C  py         
    40      0.962819  3 H  s                 17     -0.935600  1 C  dyy        
    43     -0.937384  3 H  py                29      0.914680  2 O  s          
    34      0.915974  2 O  dxy                7      0.773379  1 C  px         
    14     -0.680840  1 C  dxx               33      0.599358  2 O  dxx        

 Vector   38  Occ=0.000000D+00  E= 3.594713D+00
              MO Center=  1.1D+01,  2.0D+01,  3.0D+01, r^2= 1.2D+00
   Bfn.  Coefficient  Atom+Function         Bfn.  Coefficient  Atom+Function  
  ----- ------------  ---------------      ----- ------------  ---------------
     7      2.463585  1 C  px                29     -2.217382  2 O  s          
    30      1.343585  2 O  px                10      1.178290  1 C  s          
    33     -1.050545  2 O  dxx               15      0.962336  1 C  dxy        
     8     -0.950813  1 C  py                14      0.906066  1 C  dxx        
    17     -0.759838  1 C  dyy               40      0.761508  3 H  s          

 Vector   39  Occ=0.000000D+00  E= 4.661692D+00
              MO Center=  1.1D+01,  2.0D+01,  3.0D+01, r^2= 4.8D-01
   Bfn.  Coefficient  Atom+Function         Bfn.  Coefficient  Atom+Function  
  ----- ------------  ---------------      ----- ------------  ---------------
    28      1.467539  2 O  pz                24     -1.264155  2 O  pz         
    32     -0.618336  2 O  pz                16     -0.256927  1 C  dxz        
    13      0.211779  1 C  pz                 9     -0.161899  1 C  pz         
    35     -0.125763  2 O  dxz                5      0.073381  1 C  pz         
    44     -0.044694  3 H  pz                18      0.030436  1 C  dyz        

 Vector   40  Occ=0.000000D+00  E= 4.709967D+00
              MO Center=  1.1D+01,  2.0D+01,  3.0D+01, r^2= 5.1D-01
   Bfn.  Coefficient  Atom+Function         Bfn.  Coefficient  Atom+Function  
  ----- ------------  ---------------      ----- ------------  ---------------
    27      1.502714  2 O  py                23     -1.262105  2 O  py         
    31     -0.681443  2 O  py                15     -0.477156  1 C  dxy        
    12      0.394335  1 C  py                40     -0.341000  3 H  s          
    10      0.282296  1 C  s                 34     -0.181661  2 O  dxy        
    43      0.152106  3 H  py                11     -0.126984  1 C  px         

 Vector   41  Occ=0.000000D+00  E= 5.224431D+00
              MO Center=  1.1D+01,  2.0D+01,  3.0D+01, r^2= 5.5D-01
   Bfn.  Coefficient  Atom+Function         Bfn.  Coefficient  Atom+Function  
  ----- ------------  ---------------      ----- ------------  ---------------
    29      2.042424  2 O  s                 26     -1.821274  2 O  px         
     7     -1.286772  1 C  px                25      1.218898  2 O  s          
    22      1.108923  2 O  px                14     -0.914935  1 C  dxx        
    36     -0.869712  2 O  dyy               38     -0.856837  2 O  dzz        
    10     -0.784113  1 C  s                 11     -0.430935  1 C  px         

 Vector   42  Occ=0.000000D+00  E= 6.235878D+00
              MO Center=  1.1D+01,  2.0D+01,  3.0D+01, r^2= 5.0D-01
   Bfn.  Coefficient  Atom+Function         Bfn.  Coefficient  Atom+Function  
  ----- ------------  ---------------      ----- ------------  ---------------
    25      2.100216  2 O  s                 33     -1.908426  2 O  dxx        
    26      1.409842  2 O  px                38     -1.324998  2 O  dzz        
    36     -1.298752  2 O  dyy                7      1.219799  1 C  px         
    14      0.966092  1 C  dxx               29      0.755970  2 O  s          
    22     -0.625005  2 O  px                21     -0.610262  2 O  s          

 Vector   43  Occ=0.000000D+00  E= 2.590516D+01
              MO Center=  1.0D+01,  2.0D+01,  3.0D+01, r^2= 1.4D-01
   Bfn.  Coefficient  Atom+Function         Bfn.  Coefficient  Atom+Function  
  ----- ------------  ---------------      ----- ------------  ---------------
     2      2.556167  1 C  s                  1     -2.107234  1 C  s          
     6     -1.130301  1 C  s                 17      0.645162  1 C  dyy        
    14      0.627720  1 C  dxx               19      0.577433  1 C  dzz        
    10     -0.386685  1 C  s                 41      0.187212  3 H  s          
    40     -0.136192  3 H  s                  8      0.122948  1 C  py         

 Vector   44  Occ=0.000000D+00  E= 5.451450D+01
              MO Center=  1.1D+01,  2.0D+01,  3.0D+01, r^2= 6.6D-02
   Bfn.  Coefficient  Atom+Function         Bfn.  Coefficient  Atom+Function  
  ----- ------------  ---------------      ----- ------------  ---------------
    21      2.716115  2 O  s                 20     -2.320035  2 O  s          
    25     -1.094930  2 O  s                 33      0.612537  2 O  dxx        
    36      0.561636  2 O  dyy               38      0.564228  2 O  dzz        
    29     -0.424126  2 O  s                 10      0.191793  1 C  s          
    26     -0.132563  2 O  px                 7     -0.127476  1 C  px         


                     DFT Final Beta Molecular Orbital Analysis
                     -----------------------------------------

 Vector    1  Occ=1.000000D+00  E=-1.883663D+01
              MO Center=  1.1D+01,  2.0D+01,  3.0D+01, r^2= 1.5D-02
   Bfn.  Coefficient  Atom+Function         Bfn.  Coefficient  Atom+Function  
  ----- ------------  ---------------      ----- ------------  ---------------
    20      0.556003  2 O  s                 21      0.461881  2 O  s          

 Vector    2  Occ=1.000000D+00  E=-9.995718D+00
              MO Center=  1.0D+01,  2.0D+01,  3.0D+01, r^2= 2.8D-02
   Bfn.  Coefficient  Atom+Function         Bfn.  Coefficient  Atom+Function  
  ----- ------------  ---------------      ----- ------------  ---------------
     1      0.566393  1 C  s                  2      0.456276  1 C  s          

 Vector    3  Occ=1.000000D+00  E=-1.012757D+00
              MO Center=  1.1D+01,  2.0D+01,  3.0D+01, r^2= 4.5D-01
   Bfn.  Coefficient  Atom+Function         Bfn.  Coefficient  Atom+Function  
  ----- ------------  ---------------      ----- ------------  ---------------
    25      0.506991  2 O  s                 29      0.332392  2 O  s          
     6      0.247838  1 C  s                 21     -0.173969  2 O  s          
     7      0.120728  1 C  px                26     -0.117627  2 O  px         
    20     -0.110525  2 O  s                  3      0.099381  1 C  px         
     2     -0.095278  1 C  s                 22     -0.083537  2 O  px         

 Vector    4  Occ=1.000000D+00  E=-5.376111D-01
              MO Center=  1.0D+01,  2.0D+01,  3.0D+01, r^2= 1.3D+00
   Bfn.  Coefficient  Atom+Function         Bfn.  Coefficient  Atom+Function  
  ----- ------------  ---------------      ----- ------------  ---------------
     6      0.391100  1 C  s                 29     -0.282538  2 O  s          
    10      0.270736  1 C  s                 25     -0.253136  2 O  s          
    40      0.182464  3 H  s                 39      0.139470  3 H  s          
     2     -0.135343  1 C  s                 26     -0.127259  2 O  px         
     8      0.124323  1 C  py                22     -0.093669  2 O  px         

 Vector    5  Occ=1.000000D+00  E=-4.299935D-01
              MO Center=  1.1D+01,  2.0D+01,  3.0D+01, r^2= 1.2D+00
   Bfn.  Coefficient  Atom+Function         Bfn.  Coefficient  Atom+Function  
  ----- ------------  ---------------      ----- ------------  ---------------
    26      0.305432  2 O  px                29      0.278294  2 O  s          
    30      0.230900  2 O  px                22      0.223364  2 O  px         
    25      0.197652  2 O  s                  7     -0.195910  1 C  px         
     3     -0.144423  1 C  px                 8      0.135654  1 C  py         
    40      0.131294  3 H  s                 27      0.114422  2 O  py         

 Vector    6  Occ=1.000000D+00  E=-3.891066D-01
              MO Center=  1.1D+01,  2.0D+01,  3.0D+01, r^2= 8.8D-01
   Bfn.  Coefficient  Atom+Function         Bfn.  Coefficient  Atom+Function  
  ----- ------------  ---------------      ----- ------------  ---------------
    28      0.366478  2 O  pz                32      0.303713  2 O  pz         
    24      0.252620  2 O  pz                 9      0.230868  1 C  pz         
    13      0.158090  1 C  pz                 5      0.153923  1 C  pz         
    16      0.078299  1 C  dxz               35     -0.041117  2 O  dxz        

 Vector    7  Occ=1.000000D+00  E=-3.500526D-01
              MO Center=  1.1D+01,  2.0D+01,  3.0D+01, r^2= 1.1D+00
   Bfn.  Coefficient  Atom+Function         Bfn.  Coefficient  Atom+Function  
  ----- ------------  ---------------      ----- ------------  ---------------
    27      0.329932  2 O  py                31      0.291923  2 O  py         
    23      0.230598  2 O  py                10     -0.193761  1 C  s          
     8      0.151480  1 C  py                 7      0.142766  1 C  px         
     6     -0.136258  1 C  s                 12      0.130168  1 C  py         
    26     -0.119106  2 O  px                 4      0.109460  1 C  py         

 Vector    8  Occ=0.000000D+00  E=-1.170721D-01
              MO Center=  1.0D+01,  2.0D+01,  3.0D+01, r^2= 1.6D+00
   Bfn.  Coefficient  Atom+Function         Bfn.  Coefficient  Atom+Function  
  ----- ------------  ---------------      ----- ------------  ---------------
    10      0.617528  1 C  s                 31      0.335289  2 O  py         
    40     -0.290594  3 H  s                 27      0.261803  2 O  py         
    41     -0.259391  3 H  s                 12     -0.248349  1 C  py         
     8     -0.238779  1 C  py                 6      0.185403  1 C  s          
    23      0.186239  2 O  py                11     -0.170666  1 C  px         

 Vector    9  Occ=0.000000D+00  E=-7.649446D-02
              MO Center=  1.0D+01,  2.0D+01,  3.0D+01, r^2= 1.4D+00
   Bfn.  Coefficient  Atom+Function         Bfn.  Coefficient  Atom+Function  
  ----- ------------  ---------------      ----- ------------  ---------------
    13      0.551328  1 C  pz                32     -0.421258  2 O  pz         
     9      0.385088  1 C  pz                28     -0.280324  2 O  pz         
     5      0.244322  1 C  pz                24     -0.204316  2 O  pz         
    18      0.036256  1 C  dyz               16     -0.034537  1 C  dxz        
    44      0.031606  3 H  pz         

 Vector   10  Occ=0.000000D+00  E= 6.156209D-02
              MO Center=  9.2D+00,  2.1D+01,  3.0D+01, r^2= 2.7D+00
   Bfn.  Coefficient  Atom+Function         Bfn.  Coefficient  Atom+Function  
  ----- ------------  ---------------      ----- ------------  ---------------
    41      1.858482  3 H  s                 10     -1.177546  1 C  s          
    12     -0.650723  1 C  py                11      0.263134  1 C  px         
    31      0.200648  2 O  py                 6     -0.194621  1 C  s          
     8     -0.194600  1 C  py                 4     -0.149134  1 C  py         
    30     -0.074343  2 O  px                27      0.072414  2 O  py         

 Vector   11  Occ=0.000000D+00  E= 1.737391D-01
              MO Center=  1.0D+01,  2.0D+01,  3.0D+01, r^2= 2.8D+00
   Bfn.  Coefficient  Atom+Function         Bfn.  Coefficient  Atom+Function  
  ----- ------------  ---------------      ----- ------------  ---------------
    29     -1.815175  2 O  s                 10      1.698741  1 C  s          
    11      1.630305  1 C  px                30      0.647429  2 O  px         
    40     -0.230401  3 H  s                 41      0.230328  3 H  s          
    25     -0.218986  2 O  s                  7      0.112165  1 C  px         
    21      0.087353  2 O  s                 26      0.087779  2 O  px         

 Vector   12  Occ=0.000000D+00  E= 3.394749D-01
              MO Center=  9.6D+00,  2.0D+01,  3.0D+01, r^2= 2.3D+00
   Bfn.  Coefficient  Atom+Function         Bfn.  Coefficient  Atom+Function  
  ----- ------------  ---------------      ----- ------------  ---------------
    40      1.711611  3 H  s                 12     -0.877782  1 C  py         
    11      0.815593  1 C  px                10     -0.586178  1 C  s          
    41     -0.485390  3 H  s                 29     -0.321929  2 O  s          
     8     -0.314536  1 C  py                31      0.269451  2 O  py         
    27      0.159771  2 O  py                39      0.143590  3 H  s          

 Vector   13  Occ=0.000000D+00  E= 3.643922D-01
              MO Center=  1.0D+01,  2.0D+01,  3.0D+01, r^2= 2.4D+00
   Bfn.  Coefficient  Atom+Function         Bfn.  Coefficient  Atom+Function  
  ----- ------------  ---------------      ----- ------------  ---------------
    13      1.205717  1 C  pz                 9     -0.845862  1 C  pz         
     5     -0.245517  1 C  pz                16     -0.072601  1 C  dxz        
    32     -0.056583  2 O  pz                28     -0.043333  2 O  pz         
    35      0.038779  2 O  dxz        

 Vector   14  Occ=0.000000D+00  E= 3.877942D-01
              MO Center=  9.9D+00,  1.9D+01,  3.0D+01, r^2= 2.0D+00
   Bfn.  Coefficient  Atom+Function         Bfn.  Coefficient  Atom+Function  
  ----- ------------  ---------------      ----- ------------  ---------------
    12      1.286424  1 C  py                 8     -0.730920  1 C  py         
     6      0.468058  1 C  s                 10     -0.373377  1 C  s          
    41     -0.241479  3 H  s                 40     -0.222081  3 H  s          
     4     -0.211998  1 C  py                 7     -0.204479  1 C  px         
    15     -0.093797  1 C  dxy               19      0.093737  1 C  dzz        

 Vector   15  Occ=0.000000D+00  E= 5.277360D-01
              MO Center=  9.5D+00,  2.1D+01,  3.0D+01, r^2= 2.6D+00
   Bfn.  Coefficient  Atom+Function         Bfn.  Coefficient  Atom+Function  
  ----- ------------  ---------------      ----- ------------  ---------------
    10      3.196484  1 C  s                 41     -1.967808  3 H  s          
     6     -1.400988  1 C  s                 12      1.267521  1 C  py         
    11     -0.718754  1 C  px                 8     -0.366643  1 C  py         
    19     -0.240971  1 C  dzz               17     -0.226560  1 C  dyy        
     7      0.209236  1 C  px                14     -0.205603  1 C  dxx        

 Vector   16  Occ=0.000000D+00  E= 5.694075D-01
              MO Center=  1.1D+01,  2.0D+01,  3.0D+01, r^2= 1.6D+00
   Bfn.  Coefficient  Atom+Function         Bfn.  Coefficient  Atom+Function  
  ----- ------------  ---------------      ----- ------------  ---------------
     7      1.045139  1 C  px                30      1.034831  2 O  px         
    11     -0.735097  1 C  px                 6      0.672978  1 C  s          
    10      0.503660  1 C  s                 41     -0.488366  3 H  s          
    29     -0.357318  2 O  s                  3      0.315702  1 C  px         
    12      0.259906  1 C  py                25     -0.233587  2 O  s          

 Vector   17  Occ=0.000000D+00  E= 6.748010D-01
              MO Center=  1.1D+01,  2.0D+01,  3.0D+01, r^2= 1.5D+00
   Bfn.  Coefficient  Atom+Function         Bfn.  Coefficient  Atom+Function  
  ----- ------------  ---------------      ----- ------------  ---------------
    30      1.497800  2 O  px                10      0.752130  1 C  s          
    29     -0.671664  2 O  s                 26     -0.642441  2 O  px         
    11      0.411148  1 C  px                14      0.313516  1 C  dxx        
     6      0.273205  1 C  s                 22     -0.264124  2 O  px         
    25     -0.157211  2 O  s                 40     -0.112727  3 H  s          

 Vector   18  Occ=0.000000D+00  E= 7.585059D-01
              MO Center=  1.1D+01,  2.0D+01,  3.0D+01, r^2= 1.7D+00
   Bfn.  Coefficient  Atom+Function         Bfn.  Coefficient  Atom+Function  
  ----- ------------  ---------------      ----- ------------  ---------------
    32      1.389687  2 O  pz                28     -0.784338  2 O  pz         
    13     -0.549110  1 C  pz                24     -0.257536  2 O  pz         
    16     -0.084548  1 C  dxz               44     -0.079268  3 H  pz         
     5      0.065100  1 C  pz                18     -0.038197  1 C  dyz        
    35      0.036427  2 O  dxz        

 Vector   19  Occ=0.000000D+00  E= 8.056178D-01
              MO Center=  1.1D+01,  2.0D+01,  3.0D+01, r^2= 1.9D+00
   Bfn.  Coefficient  Atom+Function         Bfn.  Coefficient  Atom+Function  
  ----- ------------  ---------------      ----- ------------  ---------------
    31      1.537223  2 O  py                12     -1.093927  1 C  py         
    10     -0.784053  1 C  s                 27     -0.760830  2 O  py         
    41      0.451944  3 H  s                 40      0.358561  3 H  s          
    11      0.255281  1 C  px                23     -0.236670  2 O  py         
    15     -0.184923  1 C  dxy                6      0.178993  1 C  s          

 Vector   20  Occ=0.000000D+00  E= 1.039802D+00
              MO Center=  9.8D+00,  2.0D+01,  3.0D+01, r^2= 1.1D+00
   Bfn.  Coefficient  Atom+Function         Bfn.  Coefficient  Atom+Function  
  ----- ------------  ---------------      ----- ------------  ---------------
    18      1.085892  1 C  dyz               44      0.550481  3 H  pz         
    16     -0.419340  1 C  dxz               32      0.310788  2 O  pz         
    13     -0.307007  1 C  pz                37      0.075179  2 O  dyz        
    35      0.065827  2 O  dxz               28     -0.040115  2 O  pz         
     5     -0.031768  1 C  pz                 9     -0.030062  1 C  pz         

 Vector   21  Occ=0.000000D+00  E= 1.118390D+00
              MO Center=  1.0D+01,  2.0D+01,  3.0D+01, r^2= 1.9D+00
   Bfn.  Coefficient  Atom+Function         Bfn.  Coefficient  Atom+Function  
  ----- ------------  ---------------      ----- ------------  ---------------
    29      3.762047  2 O  s                 10     -2.110715  1 C  s          
    30     -1.377586  2 O  px                25     -1.308552  2 O  s          
    11     -1.014990  1 C  px                 7     -0.469673  1 C  px         
    15     -0.385158  1 C  dxy               14     -0.312707  1 C  dxx        
    42     -0.306177  3 H  px                 6     -0.264193  1 C  s          

 Vector   22  Occ=0.000000D+00  E= 1.182666D+00
              MO Center=  1.0D+01,  2.0D+01,  3.0D+01, r^2= 1.6D+00
   Bfn.  Coefficient  Atom+Function         Bfn.  Coefficient  Atom+Function  
  ----- ------------  ---------------      ----- ------------  ---------------
    29      2.706394  2 O  s                 10     -1.174085  1 C  s          
    11     -1.134094  1 C  px                25     -0.771349  2 O  s          
    30     -0.758131  2 O  px                15      0.689928  1 C  dxy        
    17      0.541277  1 C  dyy               19     -0.440213  1 C  dzz        
     7     -0.355642  1 C  px                42      0.332144  3 H  px         

 Vector   23  Occ=0.000000D+00  E= 1.309013D+00
              MO Center=  1.0D+01,  2.0D+01,  3.0D+01, r^2= 9.9D-01
   Bfn.  Coefficient  Atom+Function         Bfn.  Coefficient  Atom+Function  
  ----- ------------  ---------------      ----- ------------  ---------------
    16      1.553679  1 C  dxz               18      0.786697  1 C  dyz        
    32     -0.340902  2 O  pz                13      0.273657  1 C  pz         
    35     -0.221800  2 O  dxz               44     -0.112694  3 H  pz         
    28     -0.111853  2 O  pz                37      0.077091  2 O  dyz        
    24     -0.066254  2 O  pz                 5     -0.036254  1 C  pz         

 Vector   24  Occ=0.000000D+00  E= 1.405190D+00
              MO Center=  9.9D+00,  2.0D+01,  3.0D+01, r^2= 1.4D+00
   Bfn.  Coefficient  Atom+Function         Bfn.  Coefficient  Atom+Function  
  ----- ------------  ---------------      ----- ------------  ---------------
    40      1.394437  3 H  s                 15      1.206342  1 C  dxy        
    10     -0.858131  1 C  s                 12     -0.596793  1 C  py         
    19      0.575005  1 C  dzz               17     -0.463820  1 C  dyy        
    29      0.399570  2 O  s                 39     -0.319715  3 H  s          
    27     -0.215951  2 O  py                31      0.216153  2 O  py         

 Vector   25  Occ=0.000000D+00  E= 1.544656D+00
              MO Center=  9.9D+00,  2.0D+01,  3.0D+01, r^2= 1.4D+00
   Bfn.  Coefficient  Atom+Function         Bfn.  Coefficient  Atom+Function  
  ----- ------------  ---------------      ----- ------------  ---------------
    29      1.444619  2 O  s                 10     -1.081118  1 C  s          
    11     -0.853279  1 C  px                15     -0.739883  1 C  dxy        
    19      0.715246  1 C  dzz               42      0.584082  3 H  px         
    14     -0.494705  1 C  dxx               43      0.406205  3 H  py         
    26     -0.362831  2 O  px                12     -0.238229  1 C  py         

 Vector   26  Occ=0.000000D+00  E= 1.711930D+00
              MO Center=  9.7D+00,  2.0D+01,  3.0D+01, r^2= 1.2D+00
   Bfn.  Coefficient  Atom+Function         Bfn.  Coefficient  Atom+Function  
  ----- ------------  ---------------      ----- ------------  ---------------
    18      1.198301  1 C  dyz               44     -0.963290  3 H  pz         
    16     -0.775728  1 C  dxz               13      0.252488  1 C  pz         
    37      0.203536  2 O  dyz               35      0.139539  2 O  dxz        
     5      0.124861  1 C  pz                28      0.105367  2 O  pz         
    32     -0.078438  2 O  pz                24      0.053285  2 O  pz         

 Vector   27  Occ=0.000000D+00  E= 1.991473D+00
              MO Center=  9.9D+00,  2.0D+01,  3.0D+01, r^2= 1.2D+00
   Bfn.  Coefficient  Atom+Function         Bfn.  Coefficient  Atom+Function  
  ----- ------------  ---------------      ----- ------------  ---------------
    14      0.940798  1 C  dxx               17     -0.935233  1 C  dyy        
    25     -0.627654  2 O  s                 42      0.554414  3 H  px         
    19     -0.518186  1 C  dzz               26      0.509132  2 O  px         
    29      0.449160  2 O  s                 30     -0.444895  2 O  px         
    43      0.414617  3 H  py                15     -0.319292  1 C  dxy        

 Vector   28  Occ=0.000000D+00  E= 2.140072D+00
              MO Center=  9.7D+00,  2.1D+01,  3.0D+01, r^2= 1.3D+00
   Bfn.  Coefficient  Atom+Function         Bfn.  Coefficient  Atom+Function  
  ----- ------------  ---------------      ----- ------------  ---------------
    40      1.557700  3 H  s                 39     -1.231676  3 H  s          
    41     -0.913389  3 H  s                 10      0.655005  1 C  s          
     8     -0.593904  1 C  py                 4      0.536753  1 C  py         
     7      0.460922  1 C  px                15     -0.409870  1 C  dxy        
    34      0.326037  2 O  dxy               19     -0.292546  1 C  dzz        

 Vector   29  Occ=0.000000D+00  E= 2.355950D+00
              MO Center=  9.6D+00,  2.1D+01,  3.0D+01, r^2= 1.2D+00
   Bfn.  Coefficient  Atom+Function         Bfn.  Coefficient  Atom+Function  
  ----- ------------  ---------------      ----- ------------  ---------------
    40      2.696843  3 H  s                 43     -1.349110  3 H  py         
    10     -1.129372  1 C  s                 15      1.058912  1 C  dxy        
    42      0.922342  3 H  px                12     -0.846367  1 C  py         
    39     -0.696163  3 H  s                  6     -0.674079  1 C  s          
     7      0.639340  1 C  px                 8     -0.580844  1 C  py         

 Vector   30  Occ=0.000000D+00  E= 2.469750D+00
              MO Center=  1.0D+01,  2.0D+01,  3.0D+01, r^2= 8.3D-01
   Bfn.  Coefficient  Atom+Function         Bfn.  Coefficient  Atom+Function  
  ----- ------------  ---------------      ----- ------------  ---------------
     9      1.390785  1 C  pz                 5     -1.260665  1 C  pz         
    13     -0.572133  1 C  pz                35     -0.321614  2 O  dxz        
    16     -0.300477  1 C  dxz               44     -0.175831  3 H  pz         
    37      0.116458  2 O  dyz               32      0.102721  2 O  pz         
    18      0.100156  1 C  dyz               28     -0.048933  2 O  pz         

 Vector   31  Occ=0.000000D+00  E= 2.560646D+00
              MO Center=  9.8D+00,  2.0D+01,  3.0D+01, r^2= 8.6D-01
   Bfn.  Coefficient  Atom+Function         Bfn.  Coefficient  Atom+Function  
  ----- ------------  ---------------      ----- ------------  ---------------
     6      1.264789  1 C  s                 10      1.106422  1 C  s          
     8      1.075477  1 C  py                19     -0.867050  1 C  dzz        
     4     -0.824755  1 C  py                14     -0.727528  1 C  dxx        
    17     -0.644520  1 C  dyy                3     -0.552190  1 C  px         
     7      0.547891  1 C  px                15     -0.453813  1 C  dxy        

 Vector   32  Occ=0.000000D+00  E= 2.722235D+00
              MO Center=  1.1D+01,  2.0D+01,  3.0D+01, r^2= 8.0D-01
   Bfn.  Coefficient  Atom+Function         Bfn.  Coefficient  Atom+Function  
  ----- ------------  ---------------      ----- ------------  ---------------
    38      0.797094  2 O  dzz               36     -0.792315  2 O  dyy        
    10      0.780571  1 C  s                  6      0.651441  1 C  s          
    19     -0.637084  1 C  dzz               14     -0.544429  1 C  dxx        
    12      0.330119  1 C  py                41     -0.286498  3 H  s          
    17     -0.273996  1 C  dyy                7      0.250710  1 C  px         

 Vector   33  Occ=0.000000D+00  E= 2.735413D+00
              MO Center=  1.1D+01,  2.0D+01,  3.0D+01, r^2= 4.9D-01
   Bfn.  Coefficient  Atom+Function         Bfn.  Coefficient  Atom+Function  
  ----- ------------  ---------------      ----- ------------  ---------------
    37      1.721832  2 O  dyz               18     -0.422705  1 C  dyz        
    44      0.145105  3 H  pz                 9     -0.106515  1 C  pz         
     5      0.081164  1 C  pz                16      0.059173  1 C  dxz        

 Vector   34  Occ=0.000000D+00  E= 3.009355D+00
              MO Center=  1.0D+01,  2.0D+01,  3.0D+01, r^2= 8.2D-01
   Bfn.  Coefficient  Atom+Function         Bfn.  Coefficient  Atom+Function  
  ----- ------------  ---------------      ----- ------------  ---------------
    14      2.092600  1 C  dxx                7      1.541425  1 C  px         
     6     -1.201007  1 C  s                 29     -1.184255  2 O  s          
    17      1.157654  1 C  dyy                3     -0.832317  1 C  px         
    19      0.757189  1 C  dzz               26      0.747228  2 O  px         
     8      0.741386  1 C  py                30      0.673258  2 O  px         

 Vector   35  Occ=0.000000D+00  E= 3.198112D+00
              MO Center=  1.1D+01,  2.0D+01,  3.0D+01, r^2= 6.9D-01
   Bfn.  Coefficient  Atom+Function         Bfn.  Coefficient  Atom+Function  
  ----- ------------  ---------------      ----- ------------  ---------------
    35      1.856637  2 O  dxz               16      0.990628  1 C  dxz        
     9      0.608602  1 C  pz                32     -0.338318  2 O  pz         
     5     -0.328034  1 C  pz                24     -0.064588  2 O  pz         
    13     -0.041503  1 C  pz                44      0.037422  3 H  pz         
    18     -0.032044  1 C  dyz        

 Vector   36  Occ=0.000000D+00  E= 3.263021D+00
              MO Center=  1.1D+01,  2.0D+01,  3.0D+01, r^2= 1.0D+00
   Bfn.  Coefficient  Atom+Function         Bfn.  Coefficient  Atom+Function  
  ----- ------------  ---------------      ----- ------------  ---------------
    34      1.532127  2 O  dxy                8      1.388966  1 C  py         
    40     -0.873046  3 H  s                  7     -0.690548  1 C  px         
    17      0.655528  1 C  dyy                4     -0.605709  1 C  py         
    42     -0.546886  3 H  px                43      0.445035  3 H  py         
    29     -0.437332  2 O  s                  3      0.379714  1 C  px         

 Vector   37  Occ=0.000000D+00  E= 3.388429D+00
              MO Center=  1.1D+01,  2.0D+01,  3.0D+01, r^2= 1.3D+00
   Bfn.  Coefficient  Atom+Function         Bfn.  Coefficient  Atom+Function  
  ----- ------------  ---------------      ----- ------------  ---------------
    15      1.624214  1 C  dxy               34      0.996563  2 O  dxy        
     8     -0.985397  1 C  py                29      0.946834  2 O  s          
    40      0.912832  3 H  s                 43     -0.915214  3 H  py         
    17     -0.897749  1 C  dyy               14     -0.714553  1 C  dxx        
     7      0.669603  1 C  px                33      0.609581  2 O  dxx        

 Vector   38  Occ=0.000000D+00  E= 3.607953D+00
              MO Center=  1.1D+01,  2.0D+01,  3.0D+01, r^2= 1.3D+00
   Bfn.  Coefficient  Atom+Function         Bfn.  Coefficient  Atom+Function  
  ----- ------------  ---------------      ----- ------------  ---------------
     7      2.459566  1 C  px                29     -2.188818  2 O  s          
    30      1.324624  2 O  px                10      1.170511  1 C  s          
    33     -1.036575  2 O  dxx               15      0.996116  1 C  dxy        
     8     -0.975150  1 C  py                14      0.878711  1 C  dxx        
    17     -0.789431  1 C  dyy               40      0.784781  3 H  s          

 Vector   39  Occ=0.000000D+00  E= 4.667932D+00
              MO Center=  1.1D+01,  2.0D+01,  3.0D+01, r^2= 4.8D-01
   Bfn.  Coefficient  Atom+Function         Bfn.  Coefficient  Atom+Function  
  ----- ------------  ---------------      ----- ------------  ---------------
    28      1.467203  2 O  pz                24     -1.264269  2 O  pz         
    32     -0.617759  2 O  pz                16     -0.258074  1 C  dxz        
    13      0.211989  1 C  pz                 9     -0.162151  1 C  pz         
    35     -0.125877  2 O  dxz                5      0.073505  1 C  pz         
    44     -0.045233  3 H  pz                18      0.030940  1 C  dyz        

 Vector   40  Occ=0.000000D+00  E= 4.747616D+00
              MO Center=  1.1D+01,  2.0D+01,  3.0D+01, r^2= 5.0D-01
   Bfn.  Coefficient  Atom+Function         Bfn.  Coefficient  Atom+Function  
  ----- ------------  ---------------      ----- ------------  ---------------
    27      1.500148  2 O  py                23     -1.263698  2 O  py         
    31     -0.678517  2 O  py                15     -0.480448  1 C  dxy        
    12      0.393202  1 C  py                40     -0.343118  3 H  s          
    10      0.274051  1 C  s                 34     -0.179563  2 O  dxy        
    43      0.154548  3 H  py                11     -0.129856  1 C  px         

 Vector   41  Occ=0.000000D+00  E= 5.235818D+00
              MO Center=  1.1D+01,  2.0D+01,  3.0D+01, r^2= 5.6D-01
   Bfn.  Coefficient  Atom+Function         Bfn.  Coefficient  Atom+Function  
  ----- ------------  ---------------      ----- ------------  ---------------
    29      2.040725  2 O  s                 26     -1.826421  2 O  px         
     7     -1.291461  1 C  px                25      1.212926  2 O  s          
    22      1.110779  2 O  px                14     -0.919686  1 C  dxx        
    36     -0.867327  2 O  dyy               38     -0.851705  2 O  dzz        
    10     -0.786038  1 C  s                 11     -0.429357  1 C  px         

 Vector   42  Occ=0.000000D+00  E= 6.253447D+00
              MO Center=  1.1D+01,  2.0D+01,  3.0D+01, r^2= 5.0D-01
   Bfn.  Coefficient  Atom+Function         Bfn.  Coefficient  Atom+Function  
  ----- ------------  ---------------      ----- ------------  ---------------
    25      2.106124  2 O  s                 33     -1.909142  2 O  dxx        
    26      1.404224  2 O  px                38     -1.327517  2 O  dzz        
    36     -1.300587  2 O  dyy                7      1.216330  1 C  px         
    14      0.965031  1 C  dxx               29      0.757361  2 O  s          
    22     -0.621368  2 O  px                21     -0.611309  2 O  s          

 Vector   43  Occ=0.000000D+00  E= 2.591879D+01
              MO Center=  1.0D+01,  2.0D+01,  3.0D+01, r^2= 1.4D-01
   Bfn.  Coefficient  Atom+Function         Bfn.  Coefficient  Atom+Function  
  ----- ------------  ---------------      ----- ------------  ---------------
     2      2.556400  1 C  s                  1     -2.107126  1 C  s          
     6     -1.131128  1 C  s                 17      0.645446  1 C  dyy        
    14      0.628228  1 C  dxx               19      0.577741  1 C  dzz        
    10     -0.386592  1 C  s                 41      0.187299  3 H  s          
    40     -0.136411  3 H  s                  8      0.123140  1 C  py         

 Vector   44  Occ=0.000000D+00  E= 5.452468D+01
              MO Center=  1.1D+01,  2.0D+01,  3.0D+01, r^2= 6.6D-02
   Bfn.  Coefficient  Atom+Function         Bfn.  Coefficient  Atom+Function  
  ----- ------------  ---------------      ----- ------------  ---------------
    21      2.716202  2 O  s                 20     -2.319979  2 O  s          
    25     -1.095200  2 O  s                 33      0.612669  2 O  dxx        
    36      0.561656  2 O  dyy               38      0.564329  2 O  dzz        
    29     -0.424020  2 O  s                 10      0.191744  1 C  s          
    26     -0.132599  2 O  px                 7     -0.127550  1 C  px         


   alpha - beta orbital overlaps 
   ----------------------------- 


   alpha      1      2      3      4      5      6      7      8      9     10
    beta      1      2      3      4      5      6      7      8      9     10
 overlap   1.000  1.000  1.000  0.998  0.989  1.000  0.986  0.997  1.000  0.999


   alpha     11     12     13     14     15     16     17     18     19     20
    beta     11     12     14     13     15     16     17     18     19     20
 overlap   1.000  0.979  0.977  1.000  0.997  0.997  0.999  1.000  1.000  0.998


   alpha     21     22     23     24     25     26     27     28     29     30
    beta     21     22     23     24     25     26     27     28     29     30
 overlap   0.971  0.971  0.998  0.999  0.999  1.000  1.000  1.000  0.999  1.000


   alpha     31     32     33     34     35     36     37     38     39     40
    beta     31     32     33     34     35     36     37     38     39     40
 overlap   0.999  0.999  1.000  1.000  1.000  0.998  0.998  1.000  1.000  1.000


   alpha     41     42     43     44
    beta     41     42     43     44
 overlap   1.000  1.000  1.000  1.000

     --------------------------
     Expectation value of S2:  
     --------------------------
      <S2> =      0.7518 (Exact =     0.7500)


 center of mass
 --------------
 x =  20.08907383 y =  37.85650088 z =  56.69177966

 moments of inertia (a.u.)
 ------------------
           3.094935031741           4.287705521905           0.000000000000
           4.287705521905          40.226747247856           0.000000000000
           0.000000000000           0.000000000000          43.321682279597

     Multipole analysis of the density
     ---------------------------------

     L   x y z        total         alpha         beta         nuclear
     -   - - -        -----         -----         ----         -------
     0   0 0 0      0.000000     -8.000000     -7.000000     15.000000

     1   1 0 0     -0.449814   -159.812017   -140.793289    300.155492
     1   0 1 0      0.372577   -303.027144   -265.301739    568.701461
     1   0 0 1      0.000000   -453.534237   -396.842458    850.376695

     2   2 0 0    -26.592574  -3209.941374  -2845.718093   6029.066893
     2   1 1 0    -10.385626  -6051.796837  -5334.399236  11375.810447
     2   1 0 1    -25.500743  -9060.027672  -7981.822114  17016.349043
     2   0 2 0     19.817876 -11484.981110 -10059.593823  21564.392809
     2   0 1 1     21.122069 -17179.148089 -15040.427758  32240.697916
     2   0 0 2     -8.053431 -25716.025340 -22501.396302  48209.368211


 Task  times  cpu:        1.0s     wall:        1.0s


                                NWChem Input Module
                                -------------------


 Summary of allocated global arrays
-----------------------------------
  array 0 => double precision sf 1(44,44),  handle: -981 
  array 1 => double precision sf 1(44,44),  handle: -980 



                         GA Statistics for process    0
                         ------------------------------

       create   destroy   get      put      acc     scatter   gather  read&inc
calls:  352      350     1.08e+04 1213     1780        0        0      332     
number of processes/call 1.21e+00 1.49e+00 1.48e+00 0.00e+00 0.00e+00
bytes total:             1.28e+07 4.33e+06 7.10e+06 0.00e+00 0.00e+00 2.66e+03
bytes remote:            2.07e+06 2.75e+05 1.48e+06 0.00e+00 0.00e+00 0.00e+00
Max memory consumed for GA by this process: 835936 bytes

MA_summarize_allocated_blocks: starting scan ...
MA_summarize_allocated_blocks: scan completed: 0 heap blocks, 0 stack blocks
MA usage statistics:

	allocation statistics:
					      heap	     stack
					      ----	     -----
	current number of blocks	         0	         0
	maximum number of blocks	        21	        55
	current total bytes		         0	         0
	maximum total bytes		    705408	  22544040
	maximum total K-bytes		       706	     22545
	maximum total M-bytes		         1	        23


                                     CITATION
                                     --------
                Please cite the following reference when publishing
                           results obtained with NWChem:

                 M. Valiev, E.J. Bylaska, N. Govind, K. Kowalski,
              T.P. Straatsma, H.J.J. van Dam, D. Wang, J. Nieplocha,
                        E. Apra, T.L. Windus, W.A. de Jong
                 "NWChem: a comprehensive and scalable open-source
                  solution for large scale molecular simulations"
                      Comput. Phys. Commun. 181, 1477 (2010)
                           doi:10.1016/j.cpc.2010.04.018

                                      AUTHORS
                                      -------
          E. Apra, E. J. Bylaska, W. A. de Jong, N. Govind, K. Kowalski,
       T. P. Straatsma, M. Valiev, H. J. J. van Dam, D. Wang, T. L. Windus,
        J. Hammond, J. Autschbach, K. Bhaskaran-Nair, J. Brabec, K. Lopata,
    S. A. Fischer, S. Krishnamoorthy, M. Jacquelin, W. Ma, M. Klemm, O. Villa,
      Y. Chen, V. Anisimov, F. Aquino, S. Hirata, M. T. Hackler, V. Konjkov,
            D. Mejia-Rodriguez, T. Risthaus, M. Malagoli, A. Marenich,
   A. Otero-de-la-Roza, J. Mullin, P. Nichols, R. Peverati, J. Pittner, Y. Zhao,
        P.-D. Fan, A. Fonari, M. J. Williamson, R. J. Harrison, J. R. Rehr,
      M. Dupuis, D. Silverstein, D. M. A. Smith, J. Nieplocha, V. Tipparaju,
    M. Krishnan, B. E. Van Kuiken, A. Vazquez-Mayagoitia, L. Jensen, M. Swart,
      Q. Wu, T. Van Voorhis, A. A. Auer, M. Nooijen, L. D. Crosby, E. Brown,
      G. Cisneros, G. I. Fann, H. Fruchtl, J. Garza, K. Hirao, R. A. Kendall,
      J. A. Nichols, K. Tsemekhman, K. Wolinski, J. Anchell, D. E. Bernholdt,
      P. Borowski, T. Clark, D. Clerc, H. Dachsel, M. J. O. Deegan, K. Dyall,
    D. Elwood, E. Glendening, M. Gutowski, A. C. Hess, J. Jaffe, B. G. Johnson,
     J. Ju, R. Kobayashi, R. Kutteh, Z. Lin, R. Littlefield, X. Long, B. Meng,
      T. Nakajima, S. Niu, L. Pollack, M. Rosing, K. Glaesemann, G. Sandrone,
      M. Stave, H. Taylor, G. Thomas, J. H. van Lenthe, A. T. Wong, Z. Zhang.

 Total times  cpu:        1.0s     wall:        1.1s
[0] ARMCI Warning: Freed 1 leaked allocations
