 argument  1 = /home/list1234/source/nwchem-6.8.1-release/QA/tests/cosmo_h2o_bq/cosmo_h2o_bq.nw



============================== echo of input deck ==============================
echo
memory total 2000 Mb
start cosmo_h2o_bq_dat

#permanent_dir ./perm
#scratch_dir ./data

geometry "bq_end" nocenter noautosym noautoz
H    0.290  -1.478   2.133
O    -0.526  -1.642   2.602
H   -0.729  -0.989   3.278
Bq   1.49104334820998       -1.12622254780829        2.48477745219171  charge     -1.038081477585204E-002
bQ   0.641777452191707      -0.276956651790021        2.48477745219171 charge      1.038081477585204E-002
end

geometry "bq_mid" nocenter noautosym noautoz
H    0.290  -1.478   2.133
Bq   1.49104334820998       -1.12622254780829        2.48477745219171  charge     -1.038081477585204E-002
bQ   0.641777452191707      -0.276956651790021        2.48477745219171 charge      1.038081477585204E-002
O    -0.526  -1.642   2.602
H   -0.729  -0.989   3.278
end

basis "atoms_only"
* library 6-31G
end

basis "atoms_bq"
* library 6-31G
bQ library h 6-31G
Bq library h cc-pVQZ
end

dft
print medium tasks
xc hfexch
iterations 200
noio
direct
GRID nodisk
end

set "geometry" "bq_end"
set "ao basis" "atoms_only"
set dft:xcreplicated f
set fock:replicated .false.
task dft energy

set "geometry" "bq_mid"
set dft:xcreplicated f
set fock:replicated .false.
task dft energy

set "ao basis" "atoms_bq"
set dft:xcreplicated f
set fock:replicated .false.
task dft energy
================================================================================


                                         
                                         


              Northwest Computational Chemistry Package (NWChem) 6.8
              ------------------------------------------------------


                    Environmental Molecular Sciences Laboratory
                       Pacific Northwest National Laboratory
                                Richland, WA 99352

                              Copyright (c) 1994-2018
                       Pacific Northwest National Laboratory
                            Battelle Memorial Institute

             NWChem is an open-source computational chemistry package
                        distributed under the terms of the
                      Educational Community License (ECL) 2.0
             A copy of the license is included with this distribution
                              in the LICENSE.TXT file

                                  ACKNOWLEDGMENT
                                  --------------

            This software and its documentation were developed at the
            EMSL at Pacific Northwest National Laboratory, a multiprogram
            national laboratory, operated for the U.S. Department of Energy
            by Battelle under Contract Number DE-AC05-76RL01830. Support
            for this work was provided by the Department of Energy Office
            of Biological and Environmental Research, Office of Basic
            Energy Sciences, and the Office of Advanced Scientific Computing.


           Job information
           ---------------

    hostname        = list1234-B360M-H
    program         = /home/list1234/source/nwchem-6.8.1-release/bin/LINUX64/nwchem
    date            = Sun Jun 30 12:39:28 2019

    compiled        = Sun_Jun_30_11:55:59_2019
    source          = /home/list1234/source/nwchem-6.8.1-release
    nwchem branch   = Development
    nwchem revision = N/A
    ga revision     = 5.6.5
    use scalapack   = T
    input           = /home/list1234/source/nwchem-6.8.1-release/QA/tests/cosmo_h2o_bq/cosmo_h2o_bq.nw
    prefix          = cosmo_h2o_bq_dat.
    data base       = ./cosmo_h2o_bq_dat.db
    status          = startup
    nproc           =        4
    time left       =     -1s



           Memory information
           ------------------

    heap     =   65535994 doubles =    500.0 Mbytes
    stack    =   65535999 doubles =    500.0 Mbytes
    global   =  131072000 doubles =   1000.0 Mbytes (distinct from heap & stack)
    total    =  262143993 doubles =   2000.0 Mbytes
    verify   = yes
    hardfail = no 


           Directory information
           ---------------------

  0 permanent = .
  0 scratch   = .




                                NWChem Input Module
                                -------------------



 Scaling coordinates for geometry "bq_end" by  1.889725989
 (inverse scale =  0.529177249)



                              Geometry "bq_end" -> ""
                              -----------------------

 Output coordinates in angstroms (scale by  1.889725989 to convert to a.u.)

  No.       Tag          Charge          X              Y              Z
 ---- ---------------- ---------- -------------- -------------- --------------
    1 H                    1.0000     0.29000000    -1.47800000     2.13300000
    2 O                    8.0000    -0.52600000    -1.64200000     2.60200000
    3 H                    1.0000    -0.72900000    -0.98900000     3.27800000
    4 Bq                  -0.0104     1.49104335    -1.12622255     2.48477745
    5 bQ                   0.0104     0.64177745    -0.27695665     2.48477745

      Atomic Mass 
      ----------- 

      H                  1.007825
      O                 15.994910


 Effective nuclear repulsion energy (a.u.)       9.1669757029

            Nuclear Dipole moment (a.u.) 
            ----------------------------
        X                 Y               Z
 ---------------- ---------------- ----------------
    -8.7815566689   -29.4853945998    49.5618435025


            XYZ format geometry
            -------------------
     5
 bq_end
 H                     0.29000000    -1.47800000     2.13300000
 O                    -0.52600000    -1.64200000     2.60200000
 H                    -0.72900000    -0.98900000     3.27800000
 Bq                    1.49104335    -1.12622255     2.48477745
 bQ                    0.64177745    -0.27695665     2.48477745

 ==============================================================================
                                internuclear distances
 ------------------------------------------------------------------------------
       center one      |      center two      | atomic units |  angstroms
 ------------------------------------------------------------------------------
    2 O                |   1 H                |     1.80537  |     0.95536
    3 H                |   2 O                |     1.81708  |     0.96156
    4 Bq               |   1 H                |     2.45664  |     1.30000
    4 Bq               |   2 O                |     3.94053  |     2.08524
    4 Bq               |   3 H                |     4.46256  |     2.36149
    5 bQ               |   1 H                |     2.45664  |     1.30000
    5 bQ               |   2 O                |     3.40192  |     1.80022
    5 bQ               |   3 H                |     3.28140  |     1.73644
    5 bQ               |   4 Bq               |     2.26964  |     1.20104
 ------------------------------------------------------------------------------
                         number of included internuclear distances:          9
 ==============================================================================



 ==============================================================================
                                 internuclear angles
 ------------------------------------------------------------------------------
        center 1       |       center 2       |       center 3       |  degrees
 ------------------------------------------------------------------------------
    2 O                |   1 H                |   4 Bq               |   134.65
    2 O                |   1 H                |   5 bQ               |   104.89
    1 H                |   5 bQ               |   4 Bq               |    62.49
    1 H                |   2 O                |   3 H                |   114.13
    2 O                |   1 H                |   4 Bq               |   134.65
    2 O                |   1 H                |   5 bQ               |   104.89
    3 H                |   2 O                |   4 Bq               |    94.34
    2 O                |   3 H                |   5 bQ               |    77.92
    2 O                |   5 bQ               |   4 Bq               |    85.56
    3 H                |   2 O                |   4 Bq               |    94.34
    2 O                |   3 H                |   5 bQ               |    77.92
    3 H                |   5 bQ               |   4 Bq               |   105.56
    4 Bq               |   1 H                |   2 O                |   134.65
    1 H                |   4 Bq               |   3 H                |    40.37
    4 Bq               |   5 bQ               |   1 H                |    62.49
    4 Bq               |   2 O                |   3 H                |    94.34
    4 Bq               |   5 bQ               |   2 O                |    85.56
    4 Bq               |   5 bQ               |   3 H                |   105.56
    5 bQ               |   1 H                |   2 O                |   104.89
    1 H                |   5 bQ               |   3 H                |    62.04
    1 H                |   5 bQ               |   4 Bq               |    62.49
    5 bQ               |   3 H                |   2 O                |    77.92
    2 O                |   5 bQ               |   4 Bq               |    85.56
    3 H                |   5 bQ               |   4 Bq               |   105.56
 ------------------------------------------------------------------------------
                            number of included internuclear angles:         24
 ==============================================================================




 Scaling coordinates for geometry "bq_mid" by  1.889725989
 (inverse scale =  0.529177249)



                           Geometry "bq_mid" -> "      "
                           -----------------------------

 Output coordinates in angstroms (scale by  1.889725989 to convert to a.u.)

  No.       Tag          Charge          X              Y              Z
 ---- ---------------- ---------- -------------- -------------- --------------
    1 H                    1.0000     0.29000000    -1.47800000     2.13300000
    2 Bq                  -0.0104     1.49104335    -1.12622255     2.48477745
    3 bQ                   0.0104     0.64177745    -0.27695665     2.48477745
    4 O                    8.0000    -0.52600000    -1.64200000     2.60200000
    5 H                    1.0000    -0.72900000    -0.98900000     3.27800000

      Atomic Mass 
      ----------- 

      H                  1.007825
      O                 15.994910


 Effective nuclear repulsion energy (a.u.)       9.1669757029

            Nuclear Dipole moment (a.u.) 
            ----------------------------
        X                 Y               Z
 ---------------- ---------------- ----------------
    -8.7815566689   -29.4853945998    49.5618435025


            XYZ format geometry
            -------------------
     5
 bq_mid
 H                     0.29000000    -1.47800000     2.13300000
 Bq                    1.49104335    -1.12622255     2.48477745
 bQ                    0.64177745    -0.27695665     2.48477745
 O                    -0.52600000    -1.64200000     2.60200000
 H                    -0.72900000    -0.98900000     3.27800000

 ==============================================================================
                                internuclear distances
 ------------------------------------------------------------------------------
       center one      |      center two      | atomic units |  angstroms
 ------------------------------------------------------------------------------
    2 Bq               |   1 H                |     2.45664  |     1.30000
    3 bQ               |   1 H                |     2.45664  |     1.30000
    3 bQ               |   2 Bq               |     2.26964  |     1.20104
    4 O                |   1 H                |     1.80537  |     0.95536
    4 O                |   2 Bq               |     3.94053  |     2.08524
    4 O                |   3 bQ               |     3.40192  |     1.80022
    5 H                |   2 Bq               |     4.46256  |     2.36149
    5 H                |   3 bQ               |     3.28140  |     1.73644
    5 H                |   4 O                |     1.81708  |     0.96156
 ------------------------------------------------------------------------------
                         number of included internuclear distances:          9
 ==============================================================================



 ==============================================================================
                                 internuclear angles
 ------------------------------------------------------------------------------
        center 1       |       center 2       |       center 3       |  degrees
 ------------------------------------------------------------------------------
    1 H                |   3 bQ               |   2 Bq               |    62.49
    2 Bq               |   1 H                |   4 O                |   134.65
    3 bQ               |   1 H                |   4 O                |   104.89
    2 Bq               |   3 bQ               |   1 H                |    62.49
    2 Bq               |   1 H                |   4 O                |   134.65
    1 H                |   2 Bq               |   5 H                |    40.37
    2 Bq               |   3 bQ               |   4 O                |    85.56
    2 Bq               |   3 bQ               |   5 H                |   105.56
    2 Bq               |   4 O                |   5 H                |    94.34
    1 H                |   3 bQ               |   2 Bq               |    62.49
    3 bQ               |   1 H                |   4 O                |   104.89
    1 H                |   3 bQ               |   5 H                |    62.04
    2 Bq               |   3 bQ               |   4 O                |    85.56
    2 Bq               |   3 bQ               |   5 H                |   105.56
    3 bQ               |   5 H                |   4 O                |    77.92
    4 O                |   1 H                |   2 Bq               |   134.65
    4 O                |   1 H                |   3 bQ               |   104.89
    1 H                |   4 O                |   5 H                |   114.13
    4 O                |   3 bQ               |   2 Bq               |    85.56
    2 Bq               |   4 O                |   5 H                |    94.34
    4 O                |   5 H                |   3 bQ               |    77.92
    5 H                |   3 bQ               |   2 Bq               |   105.56
    5 H                |   4 O                |   2 Bq               |    94.34
    3 bQ               |   5 H                |   4 O                |    77.92
 ------------------------------------------------------------------------------
                            number of included internuclear angles:         24
 ==============================================================================





 Summary of "atoms_only" -> "" (cartesian)
 ------------------------------------------------------------------------------
       Tag                 Description            Shells   Functions and Types
 ---------------- ------------------------------  ------  ---------------------
 *                           6-31G                    on all atoms 




 Summary of "atoms_bq" -> "" (cartesian)
 ------------------------------------------------------------------------------
       Tag                 Description            Shells   Functions and Types
 ---------------- ------------------------------  ------  ---------------------
 bQ                          6-31G                   2        2   2s
 Bq                         cc-pVQZ                 10       35   4s3p2d1f
 *                           6-31G                    on all atoms 


  xc_inp: hfexch multiplicative factor not found.

                                 NWChem DFT Module
                                 -----------------


                      Basis "ao basis" -> "atoms_only" (cartesian)
                      -----
  H (Hydrogen)
  ------------
            Exponent  Coefficients 
       -------------- ---------------------------------------------------------
  1 S  1.87311370E+01  0.033495
  1 S  2.82539370E+00  0.234727
  1 S  6.40121700E-01  0.813757

  2 S  1.61277800E-01  1.000000

  O (Oxygen)
  ----------
            Exponent  Coefficients 
       -------------- ---------------------------------------------------------
  1 S  5.48467170E+03  0.001831
  1 S  8.25234950E+02  0.013950
  1 S  1.88046960E+02  0.068445
  1 S  5.29645000E+01  0.232714
  1 S  1.68975700E+01  0.470193
  1 S  5.79963530E+00  0.358521

  2 S  1.55396160E+01 -0.110778
  2 S  3.59993360E+00 -0.148026
  2 S  1.01376180E+00  1.130767

  3 P  1.55396160E+01  0.070874
  3 P  3.59993360E+00  0.339753
  3 P  1.01376180E+00  0.727159

  4 S  2.70005800E-01  1.000000

  5 P  2.70005800E-01  1.000000



 Summary of "ao basis" -> "atoms_only" (cartesian)
 ------------------------------------------------------------------------------
       Tag                 Description            Shells   Functions and Types
 ---------------- ------------------------------  ------  ---------------------
 H                           6-31G                   2        2   2s
 O                           6-31G                   5        9   3s2p




 Summary of "ao basis" -> "atoms_only" (cartesian)
 ------------------------------------------------------------------------------
       Tag                 Description            Shells   Functions and Types
 ---------------- ------------------------------  ------  ---------------------
 H                           6-31G                   2        2   2s
 O                           6-31G                   5        9   3s2p


  Caching 1-el integrals 

            General Information
            -------------------
          SCF calculation type: DFT
          Wavefunction type:  closed shell.
          No. of atoms     :     5
          No. of electrons :    10
           Alpha electrons :     5
            Beta electrons :     5
          Charge           :     0
          Spin multiplicity:     1
          Use of symmetry is: off; symmetry adaption is: off
          Maximum number of iterations: 200
          This is a Direct SCF calculation.
          AO basis - number of functions:    13
                     number of shells:     9
          Convergence on energy requested:  1.00D-06
          Convergence on density requested:  1.00D-05
          Convergence on gradient requested:  5.00D-04

              XC Information
              --------------
                     Hartree-Fock (Exact) Exchange  1.000          

          Convergence Information
          -----------------------
          Convergence aids based upon iterative change in 
          total energy or number of iterations. 
          Levelshifting, if invoked, occurs when the 
          HOMO/LUMO gap drops below (HL_TOL):  1.00D-02
          DIIS, if invoked, will attempt to extrapolate 
          using up to (NFOCK): 10 stored Fock matrices.

                    Damping( 0%)  Levelshifting(0.5)       DIIS
                  --------------- ------------------- ---------------
          dE  on:    start            ASAP                start   
          dE off:    2 iters        200 iters           200 iters 


      Screening Tolerance Information
      -------------------------------
          Density screening/tol_rho:  1.00D-10
          AO Gaussian exp screening on grid/accAOfunc:  14
          CD Gaussian exp screening on grid/accCDfunc:  20
          XC Gaussian exp screening on grid/accXCfunc:  20
          Schwarz screening/accCoul:  1.00D-08


      Superposition of Atomic Density Guess
      -------------------------------------

 Sum of atomic energies:         -75.75081731

 Fock matrix atom blocking: min nbf per block:    2
                            max nbf per block:    9
                                no. of blocks:    3

(   1:   1)   (   2:   2)   (   3:   3)


      Non-variational initial energy
      ------------------------------

 Total energy =     -75.908285
 1-e energy   =    -121.681184
 2-e energy   =      36.605923
 HOMO         =      -0.469021
 LUMO         =       0.113106

   Time after variat. SCF:      0.0
   Time prior to 1st pass:      0.0

           Memory utilization after 1st SCF pass: 
           Heap Space remaining (MW):       65.53            65534770
          Stack Space remaining (MW):       65.54            65535756

   convergence    iter        energy       DeltaE   RMS-Dens  Diis-err    time
 ---------------- ----- ----------------- --------- --------- ---------  ------
 d= 0,ls=0.0,diis     1    -75.9504453241 -8.51D+01  2.93D-02  3.18D-01     0.1
 d= 0,ls=0.0,diis     2    -75.9768149869 -2.64D-02  1.00D-02  9.03D-02     0.1
 d= 0,ls=0.0,diis     3    -75.9847468069 -7.93D-03  1.82D-03  9.53D-04     0.1
 d= 0,ls=0.0,diis     4    -75.9849104903 -1.64D-04  3.65D-04  2.14D-05     0.1
 d= 0,ls=0.0,diis     5    -75.9849155318 -5.04D-06  6.66D-05  4.82D-07     0.1
 d= 0,ls=0.0,diis     6    -75.9849156638 -1.32D-07  6.31D-06  4.19D-09     0.1


         Total DFT energy =      -75.984915663825
      One electron energy =     -122.976953030294
           Coulomb energy =       46.778392658187
    Exchange-Corr. energy =       -8.953330994582
 Nuclear repulsion energy =        9.166975702864

 Numeric. integr. density =        0.000000000000

     Total iterative time =      0.0s



                       DFT Final Molecular Orbital Analysis
                       ------------------------------------

 Vector    1  Occ=2.000000D+00  E=-2.055340D+01
              MO Center= -5.3D-01, -1.6D+00,  2.6D+00, r^2= 1.5D-02
   Bfn.  Coefficient  Atom+Function         Bfn.  Coefficient  Atom+Function  
  ----- ------------  ---------------      ----- ------------  ---------------
     3      0.995772  2 O  s          

 Vector    2  Occ=2.000000D+00  E=-1.345497D+00
              MO Center= -4.2D-01, -1.5D+00,  2.6D+00, r^2= 5.1D-01
   Bfn.  Coefficient  Atom+Function         Bfn.  Coefficient  Atom+Function  
  ----- ------------  ---------------      ----- ------------  ---------------
     8      0.484012  2 O  s                  4      0.470730  2 O  s          
     3     -0.213568  2 O  s                  1      0.139617  1 H  s          
    12      0.137110  3 H  s                  6      0.078614  2 O  py         
     5      0.060698  2 O  px                10      0.043600  2 O  py         
     9      0.032831  2 O  px         

 Vector    3  Occ=2.000000D+00  E=-7.253733D-01
              MO Center= -4.1D-01, -1.5D+00,  2.6D+00, r^2= 8.0D-01
   Bfn.  Coefficient  Atom+Function         Bfn.  Coefficient  Atom+Function  
  ----- ------------  ---------------      ----- ------------  ---------------
     7      0.356780  2 O  pz                 5     -0.320015  2 O  px         
     1     -0.264482  1 H  s                 12      0.263207  3 H  s          
    11      0.187881  2 O  pz                 9     -0.168034  2 O  px         
     6      0.149998  2 O  py                13      0.114562  3 H  s          
     2     -0.113417  1 H  s                 10      0.079236  2 O  py         

 Vector    4  Occ=2.000000D+00  E=-5.424425D-01
              MO Center= -5.9D-01, -1.7D+00,  2.6D+00, r^2= 6.7D-01
   Bfn.  Coefficient  Atom+Function         Bfn.  Coefficient  Atom+Function  
  ----- ------------  ---------------      ----- ------------  ---------------
     6      0.440707  2 O  py                 5      0.332001  2 O  px         
    10      0.332730  2 O  py                 8     -0.281036  2 O  s          
     9      0.250440  2 O  px                 4     -0.166426  2 O  s          
    12      0.132460  3 H  s                  1      0.130755  1 H  s          
     7      0.110567  2 O  pz                11      0.083403  2 O  pz         

 Vector    5  Occ=2.000000D+00  E=-4.967008D-01
              MO Center= -5.3D-01, -1.6D+00,  2.6D+00, r^2= 6.0D-01
   Bfn.  Coefficient  Atom+Function         Bfn.  Coefficient  Atom+Function  
  ----- ------------  ---------------      ----- ------------  ---------------
     7      0.432031  2 O  pz                 6     -0.348164  2 O  py         
    11      0.345656  2 O  pz                 5      0.318597  2 O  px         
    10     -0.278702  2 O  py                 9      0.254810  2 O  px         

 Vector    6  Occ=0.000000D+00  E= 2.047020D-01
              MO Center= -1.6D-01, -1.1D+00,  2.7D+00, r^2= 2.6D+00
   Bfn.  Coefficient  Atom+Function         Bfn.  Coefficient  Atom+Function  
  ----- ------------  ---------------      ----- ------------  ---------------
     8      1.199622  2 O  s                 13     -1.014070  3 H  s          
     2     -0.983030  1 H  s                 10      0.344237  2 O  py         
     9      0.249991  2 O  px                 6      0.170836  2 O  py         
     5      0.123668  2 O  px                 4      0.111323  2 O  s          
    11      0.093523  2 O  pz                 3     -0.088514  2 O  s          

 Vector    7  Occ=0.000000D+00  E= 3.012164D-01
              MO Center= -1.1D-01, -1.1D+00,  2.7D+00, r^2= 2.8D+00
   Bfn.  Coefficient  Atom+Function         Bfn.  Coefficient  Atom+Function  
  ----- ------------  ---------------      ----- ------------  ---------------
     2      1.386857  1 H  s                 13     -1.351315  3 H  s          
    11      0.601344  2 O  pz                 9     -0.540769  2 O  px         
    10      0.251822  2 O  py                 7      0.235515  2 O  pz         
     5     -0.211502  2 O  px                 6      0.098466  2 O  py         
    12     -0.031668  3 H  s                  1      0.031299  1 H  s          

 Vector    8  Occ=0.000000D+00  E= 1.118535D+00
              MO Center= -5.8D-01, -1.4D+00,  2.8D+00, r^2= 1.5D+00
   Bfn.  Coefficient  Atom+Function         Bfn.  Coefficient  Atom+Function  
  ----- ------------  ---------------      ----- ------------  ---------------
    12      1.195645  3 H  s                  1     -0.773308  1 H  s          
    11     -0.555748  2 O  pz                13     -0.548644  3 H  s          
     9      0.456992  2 O  px                 2      0.317739  1 H  s          
    10     -0.271346  2 O  py                 7     -0.127315  2 O  pz         
     6     -0.097740  2 O  py                 5      0.066202  2 O  px         

 Vector    9  Occ=0.000000D+00  E= 1.133066D+00
              MO Center= -3.7D-02, -1.3D+00,  2.5D+00, r^2= 1.2D+00
   Bfn.  Coefficient  Atom+Function         Bfn.  Coefficient  Atom+Function  
  ----- ------------  ---------------      ----- ------------  ---------------
     1      1.194413  1 H  s                 12      0.759106  3 H  s          
     2     -0.569003  1 H  s                 13     -0.406805  3 H  s          
     9     -0.310313  2 O  px                 4     -0.281061  2 O  s          
    10     -0.197787  2 O  py                 6     -0.168843  2 O  py         
     5     -0.155557  2 O  px                11      0.075784  2 O  pz         

 Vector   10  Occ=0.000000D+00  E= 1.168005D+00
              MO Center= -5.3D-01, -1.6D+00,  2.6D+00, r^2= 1.1D+00
   Bfn.  Coefficient  Atom+Function         Bfn.  Coefficient  Atom+Function  
  ----- ------------  ---------------      ----- ------------  ---------------
    11     -0.699029  2 O  pz                 7      0.649654  2 O  pz         
    10      0.565289  2 O  py                 6     -0.526218  2 O  py         
     9     -0.515510  2 O  px                 5      0.477184  2 O  px         

 Vector   11  Occ=0.000000D+00  E= 1.204110D+00
              MO Center= -6.8D-01, -1.9D+00,  2.5D+00, r^2= 1.0D+00
   Bfn.  Coefficient  Atom+Function         Bfn.  Coefficient  Atom+Function  
  ----- ------------  ---------------      ----- ------------  ---------------
    10      0.896493  2 O  py                 6     -0.742293  2 O  py         
     9      0.673659  2 O  px                 5     -0.566011  2 O  px         
    11      0.229245  2 O  pz                 4      0.212524  2 O  s          
     2     -0.185867  1 H  s                  7     -0.183937  2 O  pz         
    13     -0.168467  3 H  s                 12     -0.106637  3 H  s          

 Vector   12  Occ=0.000000D+00  E= 1.389530D+00
              MO Center= -5.2D-01, -1.6D+00,  2.6D+00, r^2= 1.4D+00
   Bfn.  Coefficient  Atom+Function         Bfn.  Coefficient  Atom+Function  
  ----- ------------  ---------------      ----- ------------  ---------------
    11      1.163326  2 O  pz                 9     -1.033921  2 O  px         
     2      0.897853  1 H  s                 13     -0.884362  3 H  s          
     7     -0.736209  2 O  pz                 5      0.656930  2 O  px         
    10      0.498185  2 O  py                 6     -0.312870  2 O  py         
     1     -0.035073  1 H  s          

 Vector   13  Occ=0.000000D+00  E= 1.668674D+00
              MO Center= -3.6D-01, -1.4D+00,  2.7D+00, r^2= 1.2D+00
   Bfn.  Coefficient  Atom+Function         Bfn.  Coefficient  Atom+Function  
  ----- ------------  ---------------      ----- ------------  ---------------
     8      2.712951  2 O  s                  4     -1.706542  2 O  s          
     2     -0.653080  1 H  s                 13     -0.636551  3 H  s          
    10      0.532376  2 O  py                 9      0.406505  2 O  px         
    12     -0.331090  3 H  s                  1     -0.327029  1 H  s          
     6     -0.139573  2 O  py                11      0.130485  2 O  pz         


 center of mass
 --------------
 x =  -0.92917465 y =  -3.01653702 z =   4.93895608

 moments of inertia (a.u.)
 ------------------
           3.924693981154           0.096308248243           1.896794114038
           0.096308248243           4.896728093959          -1.277822468465
           1.896794114038          -1.277822468465           3.966077698630

     Multipole analysis of the density
     ---------------------------------

     L   x y z        total         alpha         beta         nuclear
     -   - - -        -----         -----         ----         -------
     0   0 0 0     -0.000000     -5.000000     -5.000000     10.000000

     1   1 0 0      0.571066      4.676311      4.676311     -8.781557
     1   0 1 0      0.754964     15.120179     15.120179    -29.485395
     1   0 0 1      0.188663    -24.686590    -24.686590     49.561844

     2   2 0 0     -5.114372     -7.608365     -7.608365     10.102359
     2   1 1 0     -2.550161    -14.134299    -14.134299     25.718437
     2   1 0 1      1.577123     23.501080     23.501080    -45.425038
     2   0 2 0     -9.193862    -48.756564    -48.756564     88.319266
     2   0 1 1      3.838483     74.366116     74.366116   -144.893749
     2   0 0 2     -2.167924   -125.103820   -125.103820    248.039717


 Task  times  cpu:        0.1s     wall:        0.1s


                                NWChem Input Module
                                -------------------



                                 NWChem DFT Module
                                 -----------------




 Summary of "ao basis" -> "atoms_only" (cartesian)
 ------------------------------------------------------------------------------
       Tag                 Description            Shells   Functions and Types
 ---------------- ------------------------------  ------  ---------------------
 H                           6-31G                   2        2   2s
 O                           6-31G                   5        9   3s2p


  Caching 1-el integrals 

            General Information
            -------------------
          SCF calculation type: DFT
          Wavefunction type:  closed shell.
          No. of atoms     :     5
          No. of electrons :    10
           Alpha electrons :     5
            Beta electrons :     5
          Charge           :     0
          Spin multiplicity:     1
          Use of symmetry is: off; symmetry adaption is: off
          Maximum number of iterations: 200
          This is a Direct SCF calculation.
          AO basis - number of functions:    13
                     number of shells:     9
          Convergence on energy requested:  1.00D-06
          Convergence on density requested:  1.00D-05
          Convergence on gradient requested:  5.00D-04

              XC Information
              --------------
                     Hartree-Fock (Exact) Exchange  1.000          

          Convergence Information
          -----------------------
          Convergence aids based upon iterative change in 
          total energy or number of iterations. 
          Levelshifting, if invoked, occurs when the 
          HOMO/LUMO gap drops below (HL_TOL):  1.00D-02
          DIIS, if invoked, will attempt to extrapolate 
          using up to (NFOCK): 10 stored Fock matrices.

                    Damping( 0%)  Levelshifting(0.5)       DIIS
                  --------------- ------------------- ---------------
          dE  on:    start            ASAP                start   
          dE off:    2 iters        200 iters           200 iters 


      Screening Tolerance Information
      -------------------------------
          Density screening/tol_rho:  1.00D-10
          AO Gaussian exp screening on grid/accAOfunc:  14
          CD Gaussian exp screening on grid/accCDfunc:  20
          XC Gaussian exp screening on grid/accXCfunc:  20
          Schwarz screening/accCoul:  1.00D-08


 Loading old vectors from job with title :



   Time after variat. SCF:      0.1
   Time prior to 1st pass:      0.1

           Memory utilization after 1st SCF pass: 
           Heap Space remaining (MW):       65.53            65534770
          Stack Space remaining (MW):       65.54            65535756

   convergence    iter        energy       DeltaE   RMS-Dens  Diis-err    time
 ---------------- ----- ----------------- --------- --------- ---------  ------
 d= 0,ls=0.0,diis     1    -75.9849156651 -8.52D+01  1.26D-06  1.94D-10     0.1
 d= 0,ls=0.0,diis     2    -75.9849156651 -6.35D-11  1.02D-06  4.26D-11     0.1


         Total DFT energy =      -75.984915665129
      One electron energy =     -122.976944886434
           Coulomb energy =       46.778383658364
    Exchange-Corr. energy =       -8.953330139923
 Nuclear repulsion energy =        9.166975702864

 Numeric. integr. density =        0.000000000000

     Total iterative time =      0.0s



                       DFT Final Molecular Orbital Analysis
                       ------------------------------------

 Vector    1  Occ=2.000000D+00  E=-2.055340D+01
              MO Center= -5.3D-01, -1.6D+00,  2.6D+00, r^2= 1.5D-02
   Bfn.  Coefficient  Atom+Function         Bfn.  Coefficient  Atom+Function  
  ----- ------------  ---------------      ----- ------------  ---------------
     3      0.995772  4 O  s          

 Vector    2  Occ=2.000000D+00  E=-1.345498D+00
              MO Center= -4.2D-01, -1.5D+00,  2.6D+00, r^2= 5.1D-01
   Bfn.  Coefficient  Atom+Function         Bfn.  Coefficient  Atom+Function  
  ----- ------------  ---------------      ----- ------------  ---------------
     8      0.484012  4 O  s                  4      0.470730  4 O  s          
     3     -0.213569  4 O  s                  1      0.139617  1 H  s          
    12      0.137110  5 H  s                  6      0.078612  4 O  py         
     5      0.060698  4 O  px                10      0.043600  4 O  py         
     9      0.032831  4 O  px         

 Vector    3  Occ=2.000000D+00  E=-7.253766D-01
              MO Center= -4.1D-01, -1.5D+00,  2.6D+00, r^2= 8.0D-01
   Bfn.  Coefficient  Atom+Function         Bfn.  Coefficient  Atom+Function  
  ----- ------------  ---------------      ----- ------------  ---------------
     7      0.356781  4 O  pz                 5     -0.320017  4 O  px         
     1     -0.264481  1 H  s                 12      0.263207  5 H  s          
    11      0.187882  4 O  pz                 9     -0.168035  4 O  px         
     6      0.149998  4 O  py                13      0.114559  5 H  s          
     2     -0.113414  1 H  s                 10      0.079236  4 O  py         

 Vector    4  Occ=2.000000D+00  E=-5.424403D-01
              MO Center= -5.9D-01, -1.7D+00,  2.6D+00, r^2= 6.7D-01
   Bfn.  Coefficient  Atom+Function         Bfn.  Coefficient  Atom+Function  
  ----- ------------  ---------------      ----- ------------  ---------------
     6      0.440703  4 O  py                 5      0.332000  4 O  px         
    10      0.332729  4 O  py                 8     -0.281042  4 O  s          
     9      0.250440  4 O  px                 4     -0.166428  4 O  s          
    12      0.132462  5 H  s                  1      0.130756  1 H  s          
     7      0.110567  4 O  pz                11      0.083403  4 O  pz         

 Vector    5  Occ=2.000000D+00  E=-4.967019D-01
              MO Center= -5.3D-01, -1.6D+00,  2.6D+00, r^2= 6.0D-01
   Bfn.  Coefficient  Atom+Function         Bfn.  Coefficient  Atom+Function  
  ----- ------------  ---------------      ----- ------------  ---------------
     7      0.432032  4 O  pz                 6     -0.348165  4 O  py         
    11      0.345655  4 O  pz                 5      0.318597  4 O  px         
    10     -0.278702  4 O  py                 9      0.254809  4 O  px         

 Vector    6  Occ=0.000000D+00  E= 2.047031D-01
              MO Center= -1.6D-01, -1.1D+00,  2.7D+00, r^2= 2.6D+00
   Bfn.  Coefficient  Atom+Function         Bfn.  Coefficient  Atom+Function  
  ----- ------------  ---------------      ----- ------------  ---------------
     8      1.199619  4 O  s                 13     -1.014068  5 H  s          
     2     -0.983031  1 H  s                 10      0.344240  4 O  py         
     9      0.249994  4 O  px                 6      0.170838  4 O  py         
     5      0.123670  4 O  px                 4      0.111322  4 O  s          
    11      0.093524  4 O  pz                 3     -0.088514  4 O  s          

 Vector    7  Occ=0.000000D+00  E= 3.012160D-01
              MO Center= -1.1D-01, -1.1D+00,  2.7D+00, r^2= 2.8D+00
   Bfn.  Coefficient  Atom+Function         Bfn.  Coefficient  Atom+Function  
  ----- ------------  ---------------      ----- ------------  ---------------
     2      1.386856  1 H  s                 13     -1.351316  5 H  s          
    11      0.601343  4 O  pz                 9     -0.540767  4 O  px         
    10      0.251822  4 O  py                 7      0.235514  4 O  pz         
     5     -0.211501  4 O  px                 6      0.098466  4 O  py         
    12     -0.031668  5 H  s                  1      0.031300  1 H  s          

 Vector    8  Occ=0.000000D+00  E= 1.118536D+00
              MO Center= -5.8D-01, -1.4D+00,  2.8D+00, r^2= 1.5D+00
   Bfn.  Coefficient  Atom+Function         Bfn.  Coefficient  Atom+Function  
  ----- ------------  ---------------      ----- ------------  ---------------
    12      1.195636  5 H  s                  1     -0.773323  1 H  s          
    11     -0.555750  4 O  pz                13     -0.548638  5 H  s          
     9      0.456994  4 O  px                 2      0.317746  1 H  s          
    10     -0.271347  4 O  py                 7     -0.127314  4 O  pz         
     6     -0.097735  4 O  py                 5      0.066206  4 O  px         

 Vector    9  Occ=0.000000D+00  E= 1.133067D+00
              MO Center= -3.7D-02, -1.3D+00,  2.5D+00, r^2= 1.2D+00
   Bfn.  Coefficient  Atom+Function         Bfn.  Coefficient  Atom+Function  
  ----- ------------  ---------------      ----- ------------  ---------------
     1      1.194404  1 H  s                 12      0.759122  5 H  s          
     2     -0.568997  1 H  s                 13     -0.406810  5 H  s          
     9     -0.310315  4 O  px                 4     -0.281064  4 O  s          
    10     -0.197803  4 O  py                 6     -0.168836  4 O  py         
     5     -0.155550  4 O  px                11      0.075775  4 O  pz         

 Vector   10  Occ=0.000000D+00  E= 1.168004D+00
              MO Center= -5.3D-01, -1.6D+00,  2.6D+00, r^2= 1.1D+00
   Bfn.  Coefficient  Atom+Function         Bfn.  Coefficient  Atom+Function  
  ----- ------------  ---------------      ----- ------------  ---------------
    11     -0.699029  4 O  pz                 7      0.649654  4 O  pz         
    10      0.565287  4 O  py                 6     -0.526216  4 O  py         
     9     -0.515512  4 O  px                 5      0.477184  4 O  px         

 Vector   11  Occ=0.000000D+00  E= 1.204111D+00
              MO Center= -6.8D-01, -1.9D+00,  2.5D+00, r^2= 1.0D+00
   Bfn.  Coefficient  Atom+Function         Bfn.  Coefficient  Atom+Function  
  ----- ------------  ---------------      ----- ------------  ---------------
    10      0.896489  4 O  py                 6     -0.742297  4 O  py         
     9      0.673655  4 O  px                 5     -0.566013  4 O  px         
    11      0.229242  4 O  pz                 4      0.212522  4 O  s          
     2     -0.185872  1 H  s                  7     -0.183937  4 O  pz         
    13     -0.168472  5 H  s                 12     -0.106624  5 H  s          

 Vector   12  Occ=0.000000D+00  E= 1.389530D+00
              MO Center= -5.2D-01, -1.6D+00,  2.6D+00, r^2= 1.4D+00
   Bfn.  Coefficient  Atom+Function         Bfn.  Coefficient  Atom+Function  
  ----- ------------  ---------------      ----- ------------  ---------------
    11      1.163327  4 O  pz                 9     -1.033922  4 O  px         
     2      0.897854  1 H  s                 13     -0.884363  5 H  s          
     7     -0.736209  4 O  pz                 5      0.656929  4 O  px         
    10      0.498186  4 O  py                 6     -0.312870  4 O  py         
     1     -0.035073  1 H  s          

 Vector   13  Occ=0.000000D+00  E= 1.668674D+00
              MO Center= -3.6D-01, -1.4D+00,  2.7D+00, r^2= 1.2D+00
   Bfn.  Coefficient  Atom+Function         Bfn.  Coefficient  Atom+Function  
  ----- ------------  ---------------      ----- ------------  ---------------
     8      2.712952  4 O  s                  4     -1.706542  4 O  s          
     2     -0.653080  1 H  s                 13     -0.636552  5 H  s          
    10      0.532376  4 O  py                 9      0.406505  4 O  px         
    12     -0.331090  5 H  s                  1     -0.327029  1 H  s          
     6     -0.139573  4 O  py                11      0.130485  4 O  pz         


 center of mass
 --------------
 x =  -0.92917465 y =  -3.01653702 z =   4.93895608

 moments of inertia (a.u.)
 ------------------
           3.924693981154           0.096308248243           1.896794114038
           0.096308248243           4.896728093959          -1.277822468465
           1.896794114038          -1.277822468465           3.966077698630

     Multipole analysis of the density
     ---------------------------------

     L   x y z        total         alpha         beta         nuclear
     -   - - -        -----         -----         ----         -------
     0   0 0 0     -0.000000     -5.000000     -5.000000     10.000000

     1   1 0 0      0.571062      4.676310      4.676310     -8.781557
     1   0 1 0      0.754958     15.120176     15.120176    -29.485395
     1   0 0 1      0.188660    -24.686592    -24.686592     49.561844

     2   2 0 0     -5.114366     -7.608362     -7.608362     10.102359
     2   1 1 0     -2.550148    -14.134293    -14.134293     25.718437
     2   1 0 1      1.577106     23.501072     23.501072    -45.425038
     2   0 2 0     -9.193828    -48.756547    -48.756547     88.319266
     2   0 1 1      3.838454     74.366101     74.366101   -144.893749
     2   0 0 2     -2.167945   -125.103831   -125.103831    248.039717


 Task  times  cpu:        0.0s     wall:        0.0s


                                NWChem Input Module
                                -------------------



                                 NWChem DFT Module
                                 -----------------


                      Basis "ao basis" -> "atoms_bq" (cartesian)
                      -----
  bQ
  --
            Exponent  Coefficients 
       -------------- ---------------------------------------------------------
  1 S  1.87311370E+01  0.033495
  1 S  2.82539370E+00  0.234727
  1 S  6.40121700E-01  0.813757

  2 S  1.61277800E-01  1.000000

  Bq
  --
            Exponent  Coefficients 
       -------------- ---------------------------------------------------------
  1 S  8.26400000E+01  0.002006
  1 S  1.24100000E+01  0.015343
  1 S  2.82400000E+00  0.075579

  2 S  7.97700000E-01  1.000000

  3 S  2.58100000E-01  1.000000

  4 S  8.98900000E-02  1.000000

  5 P  2.29200000E+00  1.000000

  6 P  8.38000000E-01  1.000000

  7 P  2.92000000E-01  1.000000

  8 D  2.06200000E+00  1.000000

  9 D  6.62000000E-01  1.000000

 10 F  1.39700000E+00  1.000000

  H (Hydrogen)
  ------------
            Exponent  Coefficients 
       -------------- ---------------------------------------------------------
  1 S  1.87311370E+01  0.033495
  1 S  2.82539370E+00  0.234727
  1 S  6.40121700E-01  0.813757

  2 S  1.61277800E-01  1.000000

  O (Oxygen)
  ----------
            Exponent  Coefficients 
       -------------- ---------------------------------------------------------
  1 S  5.48467170E+03  0.001831
  1 S  8.25234950E+02  0.013950
  1 S  1.88046960E+02  0.068445
  1 S  5.29645000E+01  0.232714
  1 S  1.68975700E+01  0.470193
  1 S  5.79963530E+00  0.358521

  2 S  1.55396160E+01 -0.110778
  2 S  3.59993360E+00 -0.148026
  2 S  1.01376180E+00  1.130767

  3 P  1.55396160E+01  0.070874
  3 P  3.59993360E+00  0.339753
  3 P  1.01376180E+00  0.727159

  4 S  2.70005800E-01  1.000000

  5 P  2.70005800E-01  1.000000



 Summary of "ao basis" -> "atoms_bq" (cartesian)
 ------------------------------------------------------------------------------
       Tag                 Description            Shells   Functions and Types
 ---------------- ------------------------------  ------  ---------------------
 bQ                          6-31G                   2        2   2s
 Bq                         cc-pVQZ                 10       35   4s3p2d1f
 H                           6-31G                   2        2   2s
 O                           6-31G                   5        9   3s2p




 Summary of "ao basis" -> "atoms_bq" (cartesian)
 ------------------------------------------------------------------------------
       Tag                 Description            Shells   Functions and Types
 ---------------- ------------------------------  ------  ---------------------
 bQ                          6-31G                   2        2   2s
 Bq                         cc-pVQZ                 10       35   4s3p2d1f
 H                           6-31G                   2        2   2s
 O                           6-31G                   5        9   3s2p


  Caching 1-el integrals 

            General Information
            -------------------
          SCF calculation type: DFT
          Wavefunction type:  closed shell.
          No. of atoms     :     5
          No. of electrons :    10
           Alpha electrons :     5
            Beta electrons :     5
          Charge           :     0
          Spin multiplicity:     1
          Use of symmetry is: off; symmetry adaption is: off
          Maximum number of iterations: 200
          This is a Direct SCF calculation.
          AO basis - number of functions:    50
                     number of shells:    21
          Convergence on energy requested:  1.00D-06
          Convergence on density requested:  1.00D-05
          Convergence on gradient requested:  5.00D-04

              XC Information
              --------------
                     Hartree-Fock (Exact) Exchange  1.000          

          Convergence Information
          -----------------------
          Convergence aids based upon iterative change in 
          total energy or number of iterations. 
          Levelshifting, if invoked, occurs when the 
          HOMO/LUMO gap drops below (HL_TOL):  1.00D-02
          DIIS, if invoked, will attempt to extrapolate 
          using up to (NFOCK): 10 stored Fock matrices.

                    Damping( 0%)  Levelshifting(0.5)       DIIS
                  --------------- ------------------- ---------------
          dE  on:    start            ASAP                start   
          dE off:    2 iters        200 iters           200 iters 


      Screening Tolerance Information
      -------------------------------
          Density screening/tol_rho:  1.00D-10
          AO Gaussian exp screening on grid/accAOfunc:  14
          CD Gaussian exp screening on grid/accCDfunc:  20
          XC Gaussian exp screening on grid/accXCfunc:  20
          Schwarz screening/accCoul:  1.00D-08


 !! nbf/nmo/basis-name mismatch 
           nbf=  50 nbf_file=  13
           nmo=  50 nmo_file=  13
           basis="atoms_bq" basis_file="atoms_only"

  Either an incorrect movecs file was specified, or linear dependence has changed,
  or the basis name was changed. 

 Loading old vectors from job with title :




  Load of old vectors failed.   Forcing atomic density guess


      Superposition of Atomic Density Guess
      -------------------------------------

 Sum of atomic energies:         -75.75081731

      Non-variational initial energy
      ------------------------------

 Total energy =     -75.908285
 1-e energy   =    -121.681184
 2-e energy   =      36.605923
 HOMO         =      -0.469645
 LUMO         =       0.071034

   Time after variat. SCF:      0.2
   Time prior to 1st pass:      0.2

           Memory utilization after 1st SCF pass: 
           Heap Space remaining (MW):       65.53            65533306
          Stack Space remaining (MW):       65.54            65535580

   convergence    iter        energy       DeltaE   RMS-Dens  Diis-err    time
 ---------------- ----- ----------------- --------- --------- ---------  ------
 d= 0,ls=0.0,diis     1    -75.9580479403 -8.51D+01  9.69D-03  3.11D-01     0.2
 d= 0,ls=0.0,diis     2    -75.9832066727 -2.52D-02  3.03D-03  9.70D-02     0.2
 d= 0,ls=0.0,diis     3    -75.9918177628 -8.61D-03  4.49D-04  8.90D-04     0.3
 d= 0,ls=0.0,diis     4    -75.9919582430 -1.40D-04  1.55D-04  1.77D-05     0.3
 d= 0,ls=0.0,diis     5    -75.9919631985 -4.96D-06  3.33D-05  6.73D-07     0.3
 d= 0,ls=0.0,diis     6    -75.9919634158 -2.17D-07  3.45D-06  7.14D-09     0.4


         Total DFT energy =      -75.991963415821
      One electron energy =     -122.925789631097
           Coulomb energy =       46.706104308674
    Exchange-Corr. energy =       -8.939253796262
 Nuclear repulsion energy =        9.166975702864

 Numeric. integr. density =        0.000000000000

     Total iterative time =      0.2s



                       DFT Final Molecular Orbital Analysis
                       ------------------------------------

 Vector    1  Occ=2.000000D+00  E=-2.056204D+01
              MO Center= -5.3D-01, -1.6D+00,  2.6D+00, r^2= 1.5D-02
   Bfn.  Coefficient  Atom+Function         Bfn.  Coefficient  Atom+Function  
  ----- ------------  ---------------      ----- ------------  ---------------
    40      0.995784  4 O  s          

 Vector    2  Occ=2.000000D+00  E=-1.351096D+00
              MO Center= -4.3D-01, -1.5D+00,  2.6D+00, r^2= 5.1D-01
   Bfn.  Coefficient  Atom+Function         Bfn.  Coefficient  Atom+Function  
  ----- ------------  ---------------      ----- ------------  ---------------
    45      0.490505  4 O  s                 41      0.470780  4 O  s          
    40     -0.213989  4 O  s                  1      0.143352  1 H  s          
    49      0.137440  5 H  s                 43      0.077350  4 O  py         
    42      0.057982  4 O  px                10      0.052397  2 bq px         
    47      0.042351  4 O  py                46      0.033515  4 O  px         

 Vector    3  Occ=2.000000D+00  E=-7.312943D-01
              MO Center= -4.2D-01, -1.5D+00,  2.6D+00, r^2= 7.9D-01
   Bfn.  Coefficient  Atom+Function         Bfn.  Coefficient  Atom+Function  
  ----- ------------  ---------------      ----- ------------  ---------------
    44      0.359432  4 O  pz                42     -0.321636  4 O  px         
     1     -0.264619  1 H  s                 49      0.261591  5 H  s          
    48      0.190072  4 O  pz                46     -0.169604  4 O  px         
    43      0.150599  4 O  py                50      0.111762  5 H  s          
     2     -0.107335  1 H  s                 47      0.079293  4 O  py         

 Vector    4  Occ=2.000000D+00  E=-5.492341D-01
              MO Center= -5.7D-01, -1.7D+00,  2.6D+00, r^2= 7.0D-01
   Bfn.  Coefficient  Atom+Function         Bfn.  Coefficient  Atom+Function  
  ----- ------------  ---------------      ----- ------------  ---------------
    43      0.442503  4 O  py                42      0.331739  4 O  px         
    47      0.324313  4 O  py                46      0.258317  4 O  px         
    45     -0.233305  4 O  s                 41     -0.168348  4 O  s          
    49      0.135995  5 H  s                  1      0.129815  1 H  s          
    44      0.109963  4 O  pz                50      0.068034  5 H  s          

 Vector    5  Occ=2.000000D+00  E=-5.023709D-01
              MO Center= -5.1D-01, -1.6D+00,  2.6D+00, r^2= 6.3D-01
   Bfn.  Coefficient  Atom+Function         Bfn.  Coefficient  Atom+Function  
  ----- ------------  ---------------      ----- ------------  ---------------
    44      0.432519  4 O  pz                43     -0.346295  4 O  py         
    48      0.323792  4 O  pz                42      0.318781  4 O  px         
    47     -0.274573  4 O  py                46      0.259413  4 O  px         
    10      0.104701  2 bq px                 2     -0.083502  1 H  s          
     5      0.070707  2 bq s                 13     -0.065824  2 bq px         

 Vector    6  Occ=0.000000D+00  E= 9.971468D-02
              MO Center=  1.6D+00, -1.1D+00,  2.5D+00, r^2= 3.4D+00
   Bfn.  Coefficient  Atom+Function         Bfn.  Coefficient  Atom+Function  
  ----- ------------  ---------------      ----- ------------  ---------------
     6      1.561478  2 bq s                  5     -0.900754  2 bq s          
    45     -0.288895  4 O  s                 50      0.182296  5 H  s          
     4      0.170234  2 bq s                 46     -0.139470  4 O  px         
    42     -0.124788  4 O  px                22      0.123421  2 bq dxx        
     2     -0.117571  1 H  s                 25      0.111064  2 bq dyy        

 Vector    7  Occ=0.000000D+00  E= 2.439471D-01
              MO Center= -2.1D-01, -8.3D-01,  3.1D+00, r^2= 3.4D+00
   Bfn.  Coefficient  Atom+Function         Bfn.  Coefficient  Atom+Function  
  ----- ------------  ---------------      ----- ------------  ---------------
    50      1.366439  5 H  s                 45     -0.975845  4 O  s          
     6     -0.967782  2 bq s                 39      0.514106  3 bq s          
    47     -0.433914  4 O  py                 2      0.405953  1 H  s          
    48     -0.295902  4 O  pz                 5      0.263027  2 bq s          
    43     -0.202062  4 O  py                44     -0.122053  4 O  pz         

 Vector    8  Occ=0.000000D+00  E= 3.203737D-01
              MO Center=  4.7D-01, -4.5D-01,  2.6D+00, r^2= 2.9D+00
   Bfn.  Coefficient  Atom+Function         Bfn.  Coefficient  Atom+Function  
  ----- ------------  ---------------      ----- ------------  ---------------
    39      1.655073  3 bq s                 50     -0.779446  5 H  s          
     6     -0.700132  2 bq s                 45      0.604188  4 O  s          
     2     -0.481460  1 H  s                 10     -0.317137  2 bq px         
    13      0.172529  2 bq px                48      0.143813  4 O  pz         
    31      0.129950  2 bq fxyy              33      0.128628  2 bq fxzz       

 Vector    9  Occ=0.000000D+00  E= 3.372837D-01
              MO Center=  6.2D-01, -1.3D+00,  2.2D+00, r^2= 2.9D+00
   Bfn.  Coefficient  Atom+Function         Bfn.  Coefficient  Atom+Function  
  ----- ------------  ---------------      ----- ------------  ---------------
     2      2.229165  1 H  s                  6     -1.129622  2 bq s          
    45     -0.752495  4 O  s                 50     -0.611383  5 H  s          
    46     -0.577360  4 O  px                 5      0.542019  2 bq s          
    48      0.534443  4 O  pz                12      0.524612  2 bq pz         
    10     -0.300281  2 bq px                13      0.261494  2 bq px         

 Vector   10  Occ=0.000000D+00  E= 4.871329D-01
              MO Center=  1.2D+00, -1.2D+00,  2.4D+00, r^2= 2.7D+00
   Bfn.  Coefficient  Atom+Function         Bfn.  Coefficient  Atom+Function  
  ----- ------------  ---------------      ----- ------------  ---------------
     5      3.582062  2 bq s                  6     -1.310381  2 bq s          
     2     -0.818408  1 H  s                 12     -0.779252  2 bq pz         
     4     -0.709750  2 bq s                 27     -0.420505  2 bq dzz        
    25     -0.416312  2 bq dyy               22     -0.374420  2 bq dxx        
    15      0.350763  2 bq pz                45      0.347569  4 O  s          

 Vector   11  Occ=0.000000D+00  E= 5.931791D-01
              MO Center=  1.4D+00, -1.1D+00,  2.4D+00, r^2= 2.2D+00
   Bfn.  Coefficient  Atom+Function         Bfn.  Coefficient  Atom+Function  
  ----- ------------  ---------------      ----- ------------  ---------------
    12      2.535817  2 bq pz                15     -1.372150  2 bq pz         
     5      1.197551  2 bq s                 30     -1.006426  2 bq fxxz       
    11     -1.000902  2 bq py                35     -1.003676  2 bq fyyz       
    37     -1.004102  2 bq fzzz               2     -0.886618  1 H  s          
    10     -0.770113  2 bq px                 9     -0.683709  2 bq pz         

 Vector   12  Occ=0.000000D+00  E= 7.052462D-01
              MO Center=  1.3D+00, -1.1D+00,  2.4D+00, r^2= 2.5D+00
   Bfn.  Coefficient  Atom+Function         Bfn.  Coefficient  Atom+Function  
  ----- ------------  ---------------      ----- ------------  ---------------
    11      3.132115  2 bq py                14     -1.888983  2 bq py         
     2     -1.640118  1 H  s                 12      1.266273  2 bq pz         
    29     -1.233619  2 bq fxxy              34     -1.227738  2 bq fyyy       
    36     -1.227454  2 bq fyzz              39      1.100511  3 bq s          
     8     -0.840942  2 bq py                15     -0.754575  2 bq pz         

 Vector   13  Occ=0.000000D+00  E= 7.528734D-01
              MO Center=  1.3D+00, -1.2D+00,  2.4D+00, r^2= 2.8D+00
   Bfn.  Coefficient  Atom+Function         Bfn.  Coefficient  Atom+Function  
  ----- ------------  ---------------      ----- ------------  ---------------
    10      2.934620  2 bq px                13     -2.092841  2 bq px         
     2     -1.654049  1 H  s                  6      1.456833  2 bq s          
    28     -1.136738  2 bq fxxx              31     -1.130414  2 bq fxyy       
    33     -1.129907  2 bq fxzz              11     -0.978485  2 bq py         
    39     -0.880503  3 bq s                  7     -0.782058  2 bq px         

 Vector   14  Occ=0.000000D+00  E= 1.136085D+00
              MO Center= -7.3D-01, -1.3D+00,  3.0D+00, r^2= 1.3D+00
   Bfn.  Coefficient  Atom+Function         Bfn.  Coefficient  Atom+Function  
  ----- ------------  ---------------      ----- ------------  ---------------
    49      1.139141  5 H  s                 46      0.711209  4 O  px         
    50     -0.620349  5 H  s                 10      0.498406  2 bq px         
     1     -0.421293  1 H  s                 44     -0.373746  4 O  pz         
    42     -0.318359  4 O  px                13     -0.303936  2 bq px         
    43     -0.244583  4 O  py                31     -0.203130  2 bq fxyy       

 Vector   15  Occ=0.000000D+00  E= 1.174997D+00
              MO Center=  2.2D-01, -1.5D+00,  2.5D+00, r^2= 1.7D+00
   Bfn.  Coefficient  Atom+Function         Bfn.  Coefficient  Atom+Function  
  ----- ------------  ---------------      ----- ------------  ---------------
    10      1.770309  2 bq px                 1     -0.934510  1 H  s          
    31     -0.715673  2 bq fxyy              33     -0.712964  2 bq fxzz       
    28     -0.702235  2 bq fxxx              12      0.595746  2 bq pz         
    43      0.592361  4 O  py                13     -0.562836  2 bq px         
     2      0.522252  1 H  s                  7     -0.481746  2 bq px         

 Vector   16  Occ=0.000000D+00  E= 1.247675D+00
              MO Center= -1.7D-01, -1.5D+00,  2.5D+00, r^2= 1.9D+00
   Bfn.  Coefficient  Atom+Function         Bfn.  Coefficient  Atom+Function  
  ----- ------------  ---------------      ----- ------------  ---------------
    10      1.303818  2 bq px                47      0.895582  4 O  py         
     1     -0.751734  1 H  s                 39     -0.751221  3 bq s          
    13     -0.732032  2 bq px                43     -0.611917  4 O  py         
    48     -0.532353  4 O  pz                33     -0.514509  2 bq fxzz       
    28     -0.508887  2 bq fxxx              31     -0.509810  2 bq fxyy       

 Vector   17  Occ=0.000000D+00  E= 1.326652D+00
              MO Center= -4.3D-01, -1.5D+00,  2.7D+00, r^2= 2.0D+00
   Bfn.  Coefficient  Atom+Function         Bfn.  Coefficient  Atom+Function  
  ----- ------------  ---------------      ----- ------------  ---------------
    10      1.614056  2 bq px                46     -0.924557  4 O  px         
    13     -0.918426  2 bq px                42      0.795065  4 O  px         
    49      0.678442  5 H  s                  2     -0.629016  1 H  s          
    28     -0.627465  2 bq fxxx              31     -0.626967  2 bq fxyy       
    33     -0.623519  2 bq fxzz              50     -0.505712  5 H  s          

 Vector   18  Occ=0.000000D+00  E= 1.415402D+00
              MO Center= -3.6D-01, -1.6D+00,  2.7D+00, r^2= 1.9D+00
   Bfn.  Coefficient  Atom+Function         Bfn.  Coefficient  Atom+Function  
  ----- ------------  ---------------      ----- ------------  ---------------
    48      1.410609  4 O  pz                 2      1.326741  1 H  s          
     5      1.127216  2 bq s                 50     -0.874619  5 H  s          
    46     -0.788258  4 O  px                44     -0.768471  4 O  pz         
    47      0.684277  4 O  py                 4     -0.523578  2 bq s          
     6     -0.505372  2 bq s                 43     -0.379753  4 O  py         

 Vector   19  Occ=0.000000D+00  E= 1.536157D+00
              MO Center=  1.2D+00, -1.2D+00,  2.5D+00, r^2= 2.1D+00
   Bfn.  Coefficient  Atom+Function         Bfn.  Coefficient  Atom+Function  
  ----- ------------  ---------------      ----- ------------  ---------------
     5      5.475585  2 bq s                  4     -2.129384  2 bq s          
    22     -1.276820  2 bq dxx               25     -1.121472  2 bq dyy        
    27     -1.123537  2 bq dzz                6     -1.105314  2 bq s          
    10      0.777063  2 bq px                 2     -0.696484  1 H  s          
    48     -0.683909  4 O  pz                13     -0.524097  2 bq px         

 Vector   20  Occ=0.000000D+00  E= 1.662074D+00
              MO Center=  1.5D-01, -1.4D+00,  2.5D+00, r^2= 1.9D+00
   Bfn.  Coefficient  Atom+Function         Bfn.  Coefficient  Atom+Function  
  ----- ------------  ---------------      ----- ------------  ---------------
    45      2.471791  4 O  s                 10     -1.923512  2 bq px         
    41     -1.469697  4 O  s                  2     -1.017911  1 H  s          
    33      0.785110  2 bq fxzz              31      0.773194  2 bq fxyy       
    28      0.763290  2 bq fxxx               7      0.524497  2 bq px         
    46      0.524405  4 O  px                11      0.492562  2 bq py         

 Vector   21  Occ=0.000000D+00  E= 1.831515D+00
              MO Center=  1.0D+00, -8.5D-01,  2.5D+00, r^2= 1.3D+00
   Bfn.  Coefficient  Atom+Function         Bfn.  Coefficient  Atom+Function  
  ----- ------------  ---------------      ----- ------------  ---------------
    11      4.139400  2 bq py                10     -1.669451  2 bq px         
    34     -1.631217  2 bq fyyy              36     -1.637810  2 bq fyzz       
    29     -1.611346  2 bq fxxy               8     -1.118977  2 bq py         
    45     -0.837620  4 O  s                 14     -0.820169  2 bq py         
    23     -0.726378  2 bq dxy               38      0.717301  3 bq s          

 Vector   22  Occ=0.000000D+00  E= 2.005386D+00
              MO Center=  1.4D+00, -1.1D+00,  2.5D+00, r^2= 1.2D+00
   Bfn.  Coefficient  Atom+Function         Bfn.  Coefficient  Atom+Function  
  ----- ------------  ---------------      ----- ------------  ---------------
    12      8.726197  2 bq pz                30     -3.440486  2 bq fxxz       
    35     -3.450024  2 bq fyyz              37     -3.448868  2 bq fzzz       
     9     -2.357265  2 bq pz                15     -1.586388  2 bq pz         
    10     -1.441420  2 bq px                11     -1.186110  2 bq py         
    33      0.578849  2 bq fxzz              28      0.568610  2 bq fxxx       

 Vector   23  Occ=0.000000D+00  E= 2.134479D+00
              MO Center=  1.4D+00, -1.1D+00,  2.4D+00, r^2= 1.4D+00
   Bfn.  Coefficient  Atom+Function         Bfn.  Coefficient  Atom+Function  
  ----- ------------  ---------------      ----- ------------  ---------------
    11      6.717574  2 bq py                10      5.520982  2 bq px         
    29     -2.639567  2 bq fxxy              34     -2.629752  2 bq fyyy       
    36     -2.625396  2 bq fyzz              28     -2.146273  2 bq fxxx       
    31     -2.136606  2 bq fxyy              33     -2.142726  2 bq fxzz       
     8     -1.806219  2 bq py                12      1.772376  2 bq pz         

 Vector   24  Occ=0.000000D+00  E= 2.155300D+00
              MO Center=  1.5D+00, -1.1D+00,  2.5D+00, r^2= 8.4D-01
   Bfn.  Coefficient  Atom+Function         Bfn.  Coefficient  Atom+Function  
  ----- ------------  ---------------      ----- ------------  ---------------
    26      1.567047  2 bq dyz               10      1.078855  2 bq px         
    11      0.812257  2 bq py                24     -0.489073  2 bq dxz        
    25      0.468582  2 bq dyy               31     -0.425368  2 bq fxyy       
    28     -0.419419  2 bq fxxx              33     -0.416117  2 bq fxzz       
    23      0.354079  2 bq dxy               36     -0.320785  2 bq fyzz       

 Vector   25  Occ=0.000000D+00  E= 2.170317D+00
              MO Center=  1.5D+00, -1.2D+00,  2.5D+00, r^2= 9.0D-01
   Bfn.  Coefficient  Atom+Function         Bfn.  Coefficient  Atom+Function  
  ----- ------------  ---------------      ----- ------------  ---------------
    10      0.868373  2 bq px                25     -0.827246  2 bq dyy        
    26      0.805079  2 bq dyz               27      0.666334  2 bq dzz        
    23     -0.651695  2 bq dxy               12      0.619538  2 bq pz         
    11      0.605960  2 bq py                28     -0.337482  2 bq fxxx       
    33     -0.338515  2 bq fxzz              31     -0.328163  2 bq fxyy       

 Vector   26  Occ=0.000000D+00  E= 2.256614D+00
              MO Center=  1.5D+00, -1.2D+00,  2.5D+00, r^2= 1.4D+00
   Bfn.  Coefficient  Atom+Function         Bfn.  Coefficient  Atom+Function  
  ----- ------------  ---------------      ----- ------------  ---------------
    10      7.194480  2 bq px                11     -5.257055  2 bq py         
    28     -2.786541  2 bq fxxx              31     -2.795594  2 bq fxyy       
    33     -2.781002  2 bq fxzz              29      2.055270  2 bq fxxy       
    34      2.044448  2 bq fyyy              36      2.041126  2 bq fyzz       
     7     -1.924310  2 bq px                13     -1.712936  2 bq px         

 Vector   27  Occ=0.000000D+00  E= 2.381120D+00
              MO Center=  1.2D+00, -1.2D+00,  2.5D+00, r^2= 1.5D+00
   Bfn.  Coefficient  Atom+Function         Bfn.  Coefficient  Atom+Function  
  ----- ------------  ---------------      ----- ------------  ---------------
    12      2.734669  2 bq pz                24      1.607657  2 bq dxz        
    45      1.607603  4 O  s                  2     -1.140040  1 H  s          
    35     -1.053834  2 bq fyyz              37     -1.055750  2 bq fzzz       
    30     -1.037412  2 bq fxxz              15     -0.764625  2 bq pz         
    41     -0.744546  4 O  s                  9     -0.728191  2 bq pz         

 Vector   28  Occ=0.000000D+00  E= 2.622187D+00
              MO Center=  1.4D+00, -1.1D+00,  2.5D+00, r^2= 1.3D+00
   Bfn.  Coefficient  Atom+Function         Bfn.  Coefficient  Atom+Function  
  ----- ------------  ---------------      ----- ------------  ---------------
    10      3.935880  2 bq px                31     -1.529116  2 bq fxyy       
    33     -1.512854  2 bq fxzz              28     -1.486490  2 bq fxxx       
    13     -1.395135  2 bq px                 7     -1.042447  2 bq px         
    23      1.014906  2 bq dxy                5      0.940893  2 bq s          
    12      0.807498  2 bq pz                22      0.747798  2 bq dxx        

 Vector   29  Occ=0.000000D+00  E= 2.984161D+00
              MO Center=  1.1D+00, -7.6D-01,  2.5D+00, r^2= 1.1D+00
   Bfn.  Coefficient  Atom+Function         Bfn.  Coefficient  Atom+Function  
  ----- ------------  ---------------      ----- ------------  ---------------
     5      1.531509  2 bq s                 38     -1.315193  3 bq s          
    10      1.273292  2 bq px                23     -1.254047  2 bq dxy        
    27     -0.909058  2 bq dzz               13     -0.829911  2 bq px         
     4     -0.607690  2 bq s                 33     -0.562393  2 bq fxzz       
    28     -0.480941  2 bq fxxx              39      0.447466  3 bq s          

 Vector   30  Occ=0.000000D+00  E= 3.733103D+00
              MO Center=  1.5D+00, -1.1D+00,  2.5D+00, r^2= 9.2D-01
   Bfn.  Coefficient  Atom+Function         Bfn.  Coefficient  Atom+Function  
  ----- ------------  ---------------      ----- ------------  ---------------
     5      4.845728  2 bq s                 25     -1.888443  2 bq dyy        
    27     -1.893123  2 bq dzz               22     -1.812198  2 bq dxx        
     6     -0.827446  2 bq s                 10      0.336254  2 bq px         
     3     -0.321887  2 bq s                  4      0.212608  2 bq s          
    13     -0.186507  2 bq px                 2     -0.133422  1 H  s          

 Vector   31  Occ=0.000000D+00  E= 4.751707D+00
              MO Center=  1.5D+00, -1.1D+00,  2.5D+00, r^2= 8.5D-01
   Bfn.  Coefficient  Atom+Function         Bfn.  Coefficient  Atom+Function  
  ----- ------------  ---------------      ----- ------------  ---------------
    12     12.657198  2 bq pz                30     -6.133018  2 bq fxxz       
    35     -6.155776  2 bq fyyz              37     -6.156986  2 bq fzzz       
     9     -3.985363  2 bq pz                10     -2.432694  2 bq px         
    11     -2.408188  2 bq py                15     -1.305202  2 bq pz         
    33      1.200699  2 bq fxzz              28      1.182525  2 bq fxxx       

 Vector   32  Occ=0.000000D+00  E= 4.835016D+00
              MO Center=  1.5D+00, -1.1D+00,  2.5D+00, r^2= 9.0D-01
   Bfn.  Coefficient  Atom+Function         Bfn.  Coefficient  Atom+Function  
  ----- ------------  ---------------      ----- ------------  ---------------
    11     12.990542  2 bq py                29     -6.312604  2 bq fxxy       
    34     -6.244983  2 bq fyyy              36     -6.220459  2 bq fyzz       
     8     -4.070184  2 bq py                10      3.858428  2 bq px         
    12      3.300515  2 bq pz                28     -1.848163  2 bq fxxx       
    33     -1.852730  2 bq fxzz              31     -1.783765  2 bq fxyy       

 Vector   33  Occ=0.000000D+00  E= 4.951396D+00
              MO Center=  1.5D+00, -1.1D+00,  2.5D+00, r^2= 9.7D-01
   Bfn.  Coefficient  Atom+Function         Bfn.  Coefficient  Atom+Function  
  ----- ------------  ---------------      ----- ------------  ---------------
    10     14.364434  2 bq px                31     -6.853763  2 bq fxyy       
    28     -6.813308  2 bq fxxx              33     -6.759845  2 bq fxzz       
     7     -4.464182  2 bq px                11     -4.326393  2 bq py         
    29      2.105649  2 bq fxxy              34      2.062046  2 bq fyyy       
    36      2.031698  2 bq fyzz              12      1.967465  2 bq pz         

 Vector   34  Occ=0.000000D+00  E= 6.223025D+00
              MO Center=  1.5D+00, -1.1D+00,  2.5D+00, r^2= 4.5D-01
   Bfn.  Coefficient  Atom+Function         Bfn.  Coefficient  Atom+Function  
  ----- ------------  ---------------      ----- ------------  ---------------
    32      1.833222  2 bq fxyz              31      1.383668  2 bq fxyy       
    29      1.353198  2 bq fxxy              30     -0.829239  2 bq fxxz       
    35      0.570404  2 bq fyyz              28     -0.430901  2 bq fxxx       
    34     -0.397660  2 bq fyyy              36     -0.141867  2 bq fyzz       
    37      0.066984  2 bq fzzz              10     -0.033321  2 bq px         

 Vector   35  Occ=0.000000D+00  E= 6.234159D+00
              MO Center=  1.5D+00, -1.1D+00,  2.5D+00, r^2= 4.5D-01
   Bfn.  Coefficient  Atom+Function         Bfn.  Coefficient  Atom+Function  
  ----- ------------  ---------------      ----- ------------  ---------------
    32      2.242502  2 bq fxyz              36      1.525833  2 bq fyzz       
    31     -1.013145  2 bq fxyy              33      0.883456  2 bq fxzz       
    29     -0.638947  2 bq fxxy              34     -0.284574  2 bq fyyy       
    30     -0.232277  2 bq fxxz              37      0.205748  2 bq fzzz       
    35     -0.167134  2 bq fyyz              12     -0.100260  2 bq pz         

 Vector   36  Occ=0.000000D+00  E= 6.240210D+00
              MO Center=  1.5D+00, -1.1D+00,  2.5D+00, r^2= 4.5D-01
   Bfn.  Coefficient  Atom+Function         Bfn.  Coefficient  Atom+Function  
  ----- ------------  ---------------      ----- ------------  ---------------
    35      1.713513  2 bq fyyz              32      1.194621  2 bq fxyz       
    30     -0.773259  2 bq fxxz              33     -0.697078  2 bq fxzz       
    36     -0.664621  2 bq fyzz              29     -0.647523  2 bq fxxy       
    31     -0.558662  2 bq fxyy              34      0.463428  2 bq fyyy       
    28      0.416116  2 bq fxxx              37     -0.384437  2 bq fzzz       

 Vector   37  Occ=0.000000D+00  E= 6.244142D+00
              MO Center=  1.5D+00, -1.1D+00,  2.5D+00, r^2= 4.5D-01
   Bfn.  Coefficient  Atom+Function         Bfn.  Coefficient  Atom+Function  
  ----- ------------  ---------------      ----- ------------  ---------------
    35      1.577444  2 bq fyyz              32     -1.218459  2 bq fxyz       
    36      0.971541  2 bq fyzz              30      0.778145  2 bq fxxz       
    33      0.736217  2 bq fxzz              37     -0.701242  2 bq fzzz       
    34     -0.382508  2 bq fyyy              28     -0.286372  2 bq fxxx       
    29      0.173927  2 bq fxxy              12     -0.116127  2 bq pz         

 Vector   38  Occ=0.000000D+00  E= 6.246783D+00
              MO Center=  1.5D+00, -1.1D+00,  2.5D+00, r^2= 4.6D-01
   Bfn.  Coefficient  Atom+Function         Bfn.  Coefficient  Atom+Function  
  ----- ------------  ---------------      ----- ------------  ---------------
    32      1.512754  2 bq fxyz              30      1.485410  2 bq fxxz       
    36     -0.998217  2 bq fyzz              33      0.955147  2 bq fxzz       
    29     -0.567150  2 bq fxxy              28     -0.544070  2 bq fxxx       
    34      0.515650  2 bq fyyy              31      0.377061  2 bq fxyy       
    12     -0.277317  2 bq pz                37     -0.243905  2 bq fzzz       

 Vector   39  Occ=0.000000D+00  E= 6.304111D+00
              MO Center=  1.5D+00, -1.1D+00,  2.5D+00, r^2= 4.7D-01
   Bfn.  Coefficient  Atom+Function         Bfn.  Coefficient  Atom+Function  
  ----- ------------  ---------------      ----- ------------  ---------------
    30      1.553152  2 bq fxxz              33     -1.519479  2 bq fxzz       
    32      1.195276  2 bq fxyz              29      0.616784  2 bq fxxy       
    28      0.494245  2 bq fxxx              37     -0.376216  2 bq fzzz       
    34     -0.364029  2 bq fyyy              35     -0.339442  2 bq fyyz       
    36      0.304499  2 bq fyzz               5     -0.282276  2 bq s          

 Vector   40  Occ=0.000000D+00  E= 6.431178D+00
              MO Center=  1.4D+00, -1.1D+00,  2.5D+00, r^2= 4.9D-01
   Bfn.  Coefficient  Atom+Function         Bfn.  Coefficient  Atom+Function  
  ----- ------------  ---------------      ----- ------------  ---------------
    31      1.489087  2 bq fxyy              36      1.406178  2 bq fyzz       
    29     -1.296255  2 bq fxxy              33     -1.113271  2 bq fxzz       
    11     -0.673509  2 bq py                34      0.497461  2 bq fyyy       
    28     -0.356796  2 bq fxxx              38      0.349518  3 bq s          
    10      0.274523  2 bq px                 8      0.222640  2 bq py         

 Vector   41  Occ=0.000000D+00  E= 8.596394D+00
              MO Center=  1.5D+00, -1.1D+00,  2.5D+00, r^2= 3.1D-01
   Bfn.  Coefficient  Atom+Function         Bfn.  Coefficient  Atom+Function  
  ----- ------------  ---------------      ----- ------------  ---------------
    20      1.689067  2 bq dyz               26     -0.801405  2 bq dyz        
    19      0.586765  2 bq dyy               18     -0.506008  2 bq dxz        
    17      0.490291  2 bq dxy               21     -0.447934  2 bq dzz        
    25     -0.281116  2 bq dyy               24      0.241381  2 bq dxz        
    23     -0.235681  2 bq dxy               27      0.210191  2 bq dzz        

 Vector   42  Occ=0.000000D+00  E= 8.602550D+00
              MO Center=  1.5D+00, -1.1D+00,  2.5D+00, r^2= 3.1D-01
   Bfn.  Coefficient  Atom+Function         Bfn.  Coefficient  Atom+Function  
  ----- ------------  ---------------      ----- ------------  ---------------
    20      1.140383  2 bq dyz               19     -0.879160  2 bq dyy        
    17     -0.720724  2 bq dxy               21      0.699705  2 bq dzz        
    26     -0.542614  2 bq dyz               25      0.418851  2 bq dyy        
    23      0.344482  2 bq dxy               27     -0.333668  2 bq dzz        
    18     -0.264159  2 bq dxz               16      0.181752  2 bq dxx        

 Vector   43  Occ=0.000000D+00  E= 8.662733D+00
              MO Center=  1.5D+00, -1.1D+00,  2.5D+00, r^2= 3.3D-01
   Bfn.  Coefficient  Atom+Function         Bfn.  Coefficient  Atom+Function  
  ----- ------------  ---------------      ----- ------------  ---------------
    18      1.891733  2 bq dxz               24     -0.951313  2 bq dxz        
    20      0.518830  2 bq dyz               16     -0.443826  2 bq dxx        
    12     -0.374564  2 bq pz                17     -0.314415  2 bq dxy        
    45     -0.270561  4 O  s                 26     -0.260889  2 bq dyz        
    19      0.251067  2 bq dyy                2      0.237182  1 H  s          

 Vector   44  Occ=0.000000D+00  E= 8.809280D+00
              MO Center=  1.5D+00, -1.1D+00,  2.5D+00, r^2= 3.4D-01
   Bfn.  Coefficient  Atom+Function         Bfn.  Coefficient  Atom+Function  
  ----- ------------  ---------------      ----- ------------  ---------------
    17      1.392766  2 bq dxy               10     -0.824424  2 bq px         
    16      0.822654  2 bq dxx               23     -0.787368  2 bq dxy        
    18      0.764714  2 bq dxz               19     -0.573179  2 bq dyy        
    24     -0.431496  2 bq dxz               22     -0.418668  2 bq dxx        
    11     -0.406441  2 bq py                28      0.371997  2 bq fxxx       

 Vector   45  Occ=0.000000D+00  E= 8.843127D+00
              MO Center=  1.5D+00, -1.1D+00,  2.5D+00, r^2= 3.4D-01
   Bfn.  Coefficient  Atom+Function         Bfn.  Coefficient  Atom+Function  
  ----- ------------  ---------------      ----- ------------  ---------------
    17      1.372521  2 bq dxy               21      0.865587  2 bq dzz        
    10      0.829049  2 bq px                23     -0.802266  2 bq dxy        
    16     -0.793824  2 bq dxx               27     -0.575802  2 bq dzz        
     5      0.448379  2 bq s                 31     -0.440468  2 bq fxyy       
    22      0.382175  2 bq dxx               13     -0.374628  2 bq px         

 Vector   46  Occ=0.000000D+00  E= 1.044430D+01
              MO Center=  1.5D+00, -1.1D+00,  2.5D+00, r^2= 3.5D-01
   Bfn.  Coefficient  Atom+Function         Bfn.  Coefficient  Atom+Function  
  ----- ------------  ---------------      ----- ------------  ---------------
    12      8.252705  2 bq pz                30     -4.654111  2 bq fxxz       
    35     -4.648441  2 bq fyyz              37     -4.647870  2 bq fzzz       
    11     -1.476367  2 bq py                10     -1.463617  2 bq px         
     9     -1.146532  2 bq pz                29      0.836431  2 bq fxxy       
    34      0.835400  2 bq fyyy              36      0.836188  2 bq fyzz       

 Vector   47  Occ=0.000000D+00  E= 1.047706D+01
              MO Center=  1.5D+00, -1.1D+00,  2.5D+00, r^2= 3.6D-01
   Bfn.  Coefficient  Atom+Function         Bfn.  Coefficient  Atom+Function  
  ----- ------------  ---------------      ----- ------------  ---------------
    11      8.289819  2 bq py                34     -4.626337  2 bq fyyy       
    36     -4.633850  2 bq fyzz              29     -4.599162  2 bq fxxy       
    10      2.837010  2 bq px                12      2.043495  2 bq pz         
    31     -1.581969  2 bq fxyy              28     -1.558499  2 bq fxxx       
    33     -1.559824  2 bq fxzz               8     -1.209714  2 bq py         

 Vector   48  Occ=0.000000D+00  E= 1.052346D+01
              MO Center=  1.5D+00, -1.1D+00,  2.5D+00, r^2= 3.7D-01
   Bfn.  Coefficient  Atom+Function         Bfn.  Coefficient  Atom+Function  
  ----- ------------  ---------------      ----- ------------  ---------------
    10      9.078064  2 bq px                28     -4.975197  2 bq fxxx       
    33     -4.998738  2 bq fxzz              31     -4.965310  2 bq fxyy       
    11     -3.121483  2 bq py                36      1.736720  2 bq fyzz       
    34      1.724950  2 bq fyyy              29      1.712832  2 bq fxxy       
     7     -1.420779  2 bq px                12      1.088130  2 bq pz         

 Vector   49  Occ=0.000000D+00  E= 1.194172D+01
              MO Center=  1.5D+00, -1.1D+00,  2.5D+00, r^2= 2.1D-01
   Bfn.  Coefficient  Atom+Function         Bfn.  Coefficient  Atom+Function  
  ----- ------------  ---------------      ----- ------------  ---------------
     4      2.371686  2 bq s                  5     -1.414228  2 bq s          
    19     -1.111113  2 bq dyy               21     -1.114422  2 bq dzz        
    16     -1.090999  2 bq dxx                3      0.597549  2 bq s          
    27      0.356962  2 bq dzz               25      0.352701  2 bq dyy        
    22      0.329208  2 bq dxx                6      0.265066  2 bq s          

 Vector   50  Occ=0.000000D+00  E= 2.461185D+01
              MO Center=  1.5D+00, -1.1D+00,  2.5D+00, r^2= 1.2D+00
   Bfn.  Coefficient  Atom+Function         Bfn.  Coefficient  Atom+Function  
  ----- ------------  ---------------      ----- ------------  ---------------
     4     17.318745  2 bq s                  5      7.428939  2 bq s          
     3     -6.829659  2 bq s                 16     -4.909407  2 bq dxx        
    19     -4.892514  2 bq dyy               21     -4.889796  2 bq dzz        
    25     -4.750085  2 bq dyy               27     -4.754959  2 bq dzz        
    22     -4.718802  2 bq dxx                6     -1.108539  2 bq s          


 center of mass
 --------------
 x =  -0.92917465 y =  -3.01653702 z =   4.93895608

 moments of inertia (a.u.)
 ------------------
           3.924693981154           0.096308248243           1.896794114038
           0.096308248243           4.896728093959          -1.277822468465
           1.896794114038          -1.277822468465           3.966077698630

     Multipole analysis of the density
     ---------------------------------

     L   x y z        total         alpha         beta         nuclear
     -   - - -        -----         -----         ----         -------
     0   0 0 0     -0.000000     -5.000000     -5.000000     10.000000

     1   1 0 0      0.489882      4.635719      4.635719     -8.781557
     1   0 1 0      0.695037     15.090216     15.090216    -29.485395
     1   0 0 1      0.190550    -24.685647    -24.685647     49.561844

     2   2 0 0     -5.095894     -7.599127     -7.599127     10.102359
     2   1 1 0     -2.325847    -14.022142    -14.022142     25.718437
     2   1 0 1      1.137944     23.281491     23.281491    -45.425038
     2   0 2 0     -8.957936    -48.638601    -48.638601     88.319266
     2   0 1 1      3.555536     74.224642     74.224642   -144.893749
     2   0 0 2     -2.173831   -125.106774   -125.106774    248.039717


 Task  times  cpu:        0.3s     wall:        0.3s


                                NWChem Input Module
                                -------------------


 Summary of allocated global arrays
-----------------------------------
  No active global arrays



                         GA Statistics for process    0
                         ------------------------------

       create   destroy   get      put      acc     scatter   gather  read&inc
calls:  278      278     2422      689     2484        0        0      400     
number of processes/call 1.54e+00 1.41e+00 1.18e+00 0.00e+00 0.00e+00
bytes total:             4.88e+06 9.68e+05 3.58e+06 0.00e+00 0.00e+00 3.20e+03
bytes remote:            1.88e+06 9.88e+04 1.55e+06 0.00e+00 0.00e+00 0.00e+00
Max memory consumed for GA by this process: 396856 bytes

MA_summarize_allocated_blocks: starting scan ...
MA_summarize_allocated_blocks: scan completed: 0 heap blocks, 0 stack blocks
MA usage statistics:

	allocation statistics:
					      heap	     stack
					      ----	     -----
	current number of blocks	         0	         0
	maximum number of blocks	        20	        25
	current total bytes		         0	         0
	maximum total bytes		   3220712	  22512088
	maximum total K-bytes		      3221	     22513
	maximum total M-bytes		         4	        23


                                     CITATION
                                     --------
                Please cite the following reference when publishing
                           results obtained with NWChem:

                 M. Valiev, E.J. Bylaska, N. Govind, K. Kowalski,
              T.P. Straatsma, H.J.J. van Dam, D. Wang, J. Nieplocha,
                        E. Apra, T.L. Windus, W.A. de Jong
                 "NWChem: a comprehensive and scalable open-source
                  solution for large scale molecular simulations"
                      Comput. Phys. Commun. 181, 1477 (2010)
                           doi:10.1016/j.cpc.2010.04.018

                                      AUTHORS
                                      -------
          E. Apra, E. J. Bylaska, W. A. de Jong, N. Govind, K. Kowalski,
       T. P. Straatsma, M. Valiev, H. J. J. van Dam, D. Wang, T. L. Windus,
        J. Hammond, J. Autschbach, K. Bhaskaran-Nair, J. Brabec, K. Lopata,
    S. A. Fischer, S. Krishnamoorthy, M. Jacquelin, W. Ma, M. Klemm, O. Villa,
      Y. Chen, V. Anisimov, F. Aquino, S. Hirata, M. T. Hackler, V. Konjkov,
            D. Mejia-Rodriguez, T. Risthaus, M. Malagoli, A. Marenich,
   A. Otero-de-la-Roza, J. Mullin, P. Nichols, R. Peverati, J. Pittner, Y. Zhao,
        P.-D. Fan, A. Fonari, M. J. Williamson, R. J. Harrison, J. R. Rehr,
      M. Dupuis, D. Silverstein, D. M. A. Smith, J. Nieplocha, V. Tipparaju,
    M. Krishnan, B. E. Van Kuiken, A. Vazquez-Mayagoitia, L. Jensen, M. Swart,
      Q. Wu, T. Van Voorhis, A. A. Auer, M. Nooijen, L. D. Crosby, E. Brown,
      G. Cisneros, G. I. Fann, H. Fruchtl, J. Garza, K. Hirao, R. A. Kendall,
      J. A. Nichols, K. Tsemekhman, K. Wolinski, J. Anchell, D. E. Bernholdt,
      P. Borowski, T. Clark, D. Clerc, H. Dachsel, M. J. O. Deegan, K. Dyall,
    D. Elwood, E. Glendening, M. Gutowski, A. C. Hess, J. Jaffe, B. G. Johnson,
     J. Ju, R. Kobayashi, R. Kutteh, Z. Lin, R. Littlefield, X. Long, B. Meng,
      T. Nakajima, S. Niu, L. Pollack, M. Rosing, K. Glaesemann, G. Sandrone,
      M. Stave, H. Taylor, G. Thomas, J. H. van Lenthe, A. T. Wong, Z. Zhang.

 Total times  cpu:        0.4s     wall:        0.4s
[0] ARMCI Warning: Freed 1 leaked allocations
