 argument  1 = /home/list1234/source/nwchem-6.8.1-release/QA/tests/dft_feco5/dft_feco5.nw



============================== echo of input deck ==============================
echo

start dft_feco5

# test of DFT with Fe(CO)5 using cd basis and xc basis

# There are 2 million integrals

geometry units au
  symmetry group d3h

  fe 0.0 0.0 0.0

  c 0.0 0.0 3.414358
  o 0.0 0.0 5.591323

  c 2.4417087 2.4417087 0.0
  o 3.9810552 3.9810552 0.0
end

basis "ao basis"
  o library "DZVP (DFT Orbital)"
  c library "DZVP (DFT Orbital)"
 fe library "DZVP (DFT Orbital)"
end
basis "cd basis"
  o library "DGauss A1 DFT Coulomb Fitting"
  c library "DGauss A1 DFT Coulomb Fitting"
 fe library "DGauss A1 DFT Coulomb Fitting"
end

dft
end
title  "case t19 --- Default DFT (energy)"
task dft energy

dft
 xc becke88 perdew86
end
title "case t20 --- DFT (energy) with Becke '88 and Perdew '86"
task dft energy

dft
 xc becke88 perdew91
end
title "case t21 --- Default DFT (energy) with Becke '88 and Perdew '91"
task dft energy

basis "xc basis"
  o library "DGauss A1 DFT Exchange Fitting"
  c library "DGauss A1 DFT Exchange Fitting"
 fe library "DGauss A1 DFT Exchange Fitting"
end

dft
  xc acm
end
title "case t22 --- (acm) DFT (energy)"
task dft energy

dft
  xc b3lyp
end
title "case t23 --- (b3lyp) DFT (energy)"
task dft energy



================================================================================


                                         
                                         


              Northwest Computational Chemistry Package (NWChem) 6.8
              ------------------------------------------------------


                    Environmental Molecular Sciences Laboratory
                       Pacific Northwest National Laboratory
                                Richland, WA 99352

                              Copyright (c) 1994-2018
                       Pacific Northwest National Laboratory
                            Battelle Memorial Institute

             NWChem is an open-source computational chemistry package
                        distributed under the terms of the
                      Educational Community License (ECL) 2.0
             A copy of the license is included with this distribution
                              in the LICENSE.TXT file

                                  ACKNOWLEDGMENT
                                  --------------

            This software and its documentation were developed at the
            EMSL at Pacific Northwest National Laboratory, a multiprogram
            national laboratory, operated for the U.S. Department of Energy
            by Battelle under Contract Number DE-AC05-76RL01830. Support
            for this work was provided by the Department of Energy Office
            of Biological and Environmental Research, Office of Basic
            Energy Sciences, and the Office of Advanced Scientific Computing.


           Job information
           ---------------

    hostname        = list1234-B360M-H
    program         = /home/list1234/source/nwchem-6.8.1-release/bin/LINUX64/nwchem
    date            = Sun Jun 30 12:43:46 2019

    compiled        = Sun_Jun_30_11:55:59_2019
    source          = /home/list1234/source/nwchem-6.8.1-release
    nwchem branch   = Development
    nwchem revision = N/A
    ga revision     = 5.6.5
    use scalapack   = T
    input           = /home/list1234/source/nwchem-6.8.1-release/QA/tests/dft_feco5/dft_feco5.nw
    prefix          = dft_feco5.
    data base       = ./dft_feco5.db
    status          = startup
    nproc           =        4
    time left       =     -1s



           Memory information
           ------------------

    heap     =   86247162 doubles =    658.0 Mbytes
    stack    =   86247167 doubles =    658.0 Mbytes
    global   =  172494336 doubles =   1316.0 Mbytes (distinct from heap & stack)
    total    =  344988665 doubles =   2632.1 Mbytes
    verify   = yes
    hardfail = no 


           Directory information
           ---------------------

  0 permanent = .
  0 scratch   = .




                                NWChem Input Module
                                -------------------


 Turning off AUTOSYM since
 SYMMETRY directive was detected!


          ------
          auto-z
          ------
  Looking for out-of-plane bends
  no constraints, skipping    0.0000000000000000     
  no constraints, skipping    0.0000000000000000     


                             Geometry "geometry" -> ""
                             -------------------------

 Output coordinates in a.u. (scale by  1.000000000 to convert to a.u.)

  No.       Tag          Charge          X              Y              Z
 ---- ---------------- ---------- -------------- -------------- --------------
    1 fe                  26.0000     0.00000000     0.00000000     0.00000000
    2 c                    6.0000    -0.00000000    -0.00000000     3.41435800
    3 c                    6.0000     0.00000000    -0.00000000    -3.41435800
    4 o                    8.0000    -0.00000000    -0.00000000     5.59132300
    5 o                    8.0000     0.00000000    -0.00000000    -5.59132300
    6 c                    6.0000     2.44170870     2.44170870     0.00000000
    7 c                    6.0000    -3.33543611     0.89372741     0.00000000
    8 c                    6.0000     0.89372741    -3.33543611     0.00000000
    9 o                    8.0000     3.98105520     3.98105520     0.00000000
   10 o                    8.0000    -5.43822254     1.45716734     0.00000000
   11 o                    8.0000     1.45716734    -5.43822254     0.00000000

      Atomic Mass 
      ----------- 

      fe                55.934900
      c                 12.000000
      o                 15.994910


 Effective nuclear repulsion energy (a.u.)     798.4956180942

            Nuclear Dipole moment (a.u.) 
            ----------------------------
        X                 Y               Z
 ---------------- ---------------- ----------------
    -0.0000000000    -0.0000000000     0.0000000000

      Symmetry information
      --------------------

 Group name             D3h       
 Group number             27
 Group order              12
 No. of unique centers     5

      Symmetry unique atoms

     1    2    4    6    9



                                Z-matrix (autoz)
                                -------- 

 Units are Angstrom for bonds and degrees for angles

      Type          Name      I     J     K     L     M      Value
      ----------- --------  ----- ----- ----- ----- ----- ----------
    1 Stretch                  1     2                       1.80680
    2 Stretch                  1     3                       1.80680
    3 Stretch                  1     6                       1.82730
    4 Stretch                  1     7                       1.82730
    5 Stretch                  1     8                       1.82730
    6 Stretch                  2     4                       1.15200
    7 Stretch                  3     5                       1.15200
    8 Stretch                  6     9                       1.15200
    9 Stretch                  7    10                       1.15200
   10 Stretch                  8    11                       1.15200
   11 Bend                     2     1     6                90.00000
   12 Bend                     2     1     7                90.00000
   13 Bend                     2     1     8                90.00000
   14 Bend                     3     1     6                90.00000
   15 Bend                     3     1     7                90.00000
   16 Bend                     3     1     8                90.00000
   17 Bend                     4     1     6                90.00000
   18 Bend                     4     1     7                90.00000
   19 Bend                     4     1     8                90.00000
   20 Bend                     5     1     6                90.00000
   21 Bend                     5     1     7                90.00000
   22 Bend                     5     1     8                90.00000
   23 Bend                     6     1     7               120.00000
   24 Bend                     6     1     8               120.00000
   25 Bend                     7     1     8               120.00000
   26 Bend                     9     1     2                90.00000
   27 Bend                     9     1     3                90.00000
   28 Bend                     9     1     7               120.00000
   29 Bend                     9     1     8               120.00000
   30 Bend                    10     1     2                90.00000
   31 Bend                    10     1     3                90.00000
   32 Bend                    10     1     6               120.00000
   33 Bend                    10     1     8               120.00000
   34 Bend                    11     1     2                90.00000
   35 Bend                    11     1     3                90.00000
   36 Bend                    11     1     6               120.00000
   37 Bend                    11     1     7               120.00000
   38 Torsion                  1     2     6     9         180.00000
   39 Torsion                  1     2     7    10         180.00000
   40 Torsion                  1     2     8    11        -180.00000
   41 Torsion                  1     3     6     9        -180.00000
   42 Torsion                  1     3     7    10        -180.00000
   43 Torsion                  1     3     8    11         180.00000
   44 Torsion                  1     6     2     4         180.00000
   45 Torsion                  1     6     3     5        -180.00000
   46 Torsion                  1     6     7    10         180.00000
   47 Torsion                  1     6     8    11         180.00000
   48 Torsion                  1     7     2     4        -180.00000
   49 Torsion                  1     7     3     5         180.00000
   50 Torsion                  1     7     6     9         180.00000
   51 Torsion                  1     7     8    11         180.00000
   52 Torsion                  1     8     2     4         180.00000
   53 Torsion                  1     8     3     5        -180.00000
   54 Torsion                  1     8     6     9         180.00000
   55 Torsion                  1     8     7    10         180.00000


            XYZ format geometry
            -------------------
    11
 geometry
 fe                    0.00000000     0.00000000     0.00000000
 c                    -0.00000000    -0.00000000     1.80680057
 c                     0.00000000    -0.00000000    -1.80680057
 o                    -0.00000000    -0.00000000     2.95880092
 o                     0.00000000    -0.00000000    -2.95880092
 c                     1.29209669     1.29209669     0.00000000
 c                    -1.76503691     0.47294021     0.00000000
 c                     0.47294021    -1.76503691     0.00000000
 o                     2.10668384     2.10668384     0.00000000
 o                    -2.87778364     0.77109980     0.00000000
 o                     0.77109980    -2.87778364     0.00000000

 ==============================================================================
                                internuclear distances
 ------------------------------------------------------------------------------
       center one      |      center two      | atomic units |       a.u.
 ------------------------------------------------------------------------------
    2 c                |   1 fe               |     3.41436  |     3.41436
    3 c                |   1 fe               |     3.41436  |     3.41436
    4 o                |   2 c                |     2.17697  |     2.17697
    5 o                |   3 c                |     2.17697  |     2.17697
    6 c                |   1 fe               |     3.45310  |     3.45310
    7 c                |   1 fe               |     3.45310  |     3.45310
    8 c                |   1 fe               |     3.45310  |     3.45310
    9 o                |   6 c                |     2.17696  |     2.17696
   10 o                |   7 c                |     2.17696  |     2.17696
   11 o                |   8 c                |     2.17696  |     2.17696
 ------------------------------------------------------------------------------
                         number of included internuclear distances:         10
 ==============================================================================



 ==============================================================================
                                 internuclear angles
 ------------------------------------------------------------------------------
        center 1       |       center 2       |       center 3       |  degrees
 ------------------------------------------------------------------------------
    2 c                |   1 fe               |   3 c                |   180.00
    2 c                |   1 fe               |   6 c                |    90.00
    2 c                |   1 fe               |   7 c                |    90.00
    2 c                |   1 fe               |   8 c                |    90.00
    3 c                |   1 fe               |   6 c                |    90.00
    3 c                |   1 fe               |   7 c                |    90.00
    3 c                |   1 fe               |   8 c                |    90.00
    6 c                |   1 fe               |   7 c                |   120.00
    6 c                |   1 fe               |   8 c                |   120.00
    7 c                |   1 fe               |   8 c                |   120.00
    1 fe               |   2 c                |   4 o                |   180.00
    1 fe               |   3 c                |   5 o                |   180.00
    1 fe               |   6 c                |   9 o                |   180.00
    1 fe               |   7 c                |  10 o                |   180.00
    1 fe               |   8 c                |  11 o                |   180.00
 ------------------------------------------------------------------------------
                            number of included internuclear angles:         15
 ==============================================================================



                      Basis "ao basis" -> "" (cartesian)
                      -----
  o (Oxygen)
  ----------
            Exponent  Coefficients 
       -------------- ---------------------------------------------------------
  1 S  5.22290220E+03 -0.001936
  1 S  7.82539940E+02 -0.014851
  1 S  1.77267430E+02 -0.073319
  1 S  4.95166880E+01 -0.245116
  1 S  1.56664400E+01 -0.480285
  1 S  5.17935990E+00 -0.335943

  2 S  1.06014410E+01  0.078806
  2 S  9.42317000E-01 -0.567695

  3 S  2.77474600E-01  1.000000

  4 P  3.34241260E+01  0.017560
  4 P  7.62217140E+00  0.107630
  4 P  2.23820930E+00  0.323526
  4 P  6.86730000E-01  0.483223

  5 P  1.93813500E-01  1.000000

  6 D  8.00000000E-01  1.000000

  c (Carbon)
  ----------
            Exponent  Coefficients 
       -------------- ---------------------------------------------------------
  1 S  2.80806450E+03  0.002018
  1 S  4.21138280E+02  0.015433
  1 S  9.55866160E+01  0.075582
  1 S  2.67390040E+01  0.247828
  1 S  8.43282680E+00  0.479373
  1 S  2.76058210E+00  0.333834

  2 S  5.44700450E+00 -0.077841
  2 S  4.79242200E-01  0.568956

  3 S  1.46156500E-01  1.000000

  4 P  1.81308520E+01  0.015855
  4 P  4.09988320E+00  0.095683
  4 P  1.18583700E+00  0.304912
  4 P  3.68597400E-01  0.493502

  5 P  1.09720000E-01  1.000000

  6 D  6.00000000E-01  1.000000

  fe (Iron)
  ---------
            Exponent  Coefficients 
       -------------- ---------------------------------------------------------
  1 S  6.14302270E+04  0.001756
  1 S  9.22217600E+03  0.013417
  1 S  2.09759690E+03  0.066695
  1 S  5.91490400E+02  0.228205
  1 S  1.91860620E+02  0.469450
  1 S  6.58263280E+01  0.363557

  2 S  1.28740740E+02 -0.104917
  2 S  1.47181330E+01  0.617962
  2 S  5.95075430E+00  0.456009

  3 S  1.08598790E+01  0.218492
  3 S  1.71944710E+00 -0.711331
  3 S  6.66453200E-01 -0.418695

  4 S  9.75476100E-01 -0.144105
  4 S  1.23114300E-01  0.595813

  5 S  4.48795000E-02  1.000000

  6 P  7.80620300E+02 -0.009122
  6 P  1.84006220E+02 -0.068004
  6 P  5.80844670E+01 -0.259768
  6 P  2.07597950E+01 -0.506014
  6 P  7.59345150E+00 -0.341908

  7 P  4.02791730E+00 -0.327296
  7 P  1.52647000E+00 -0.548150
  7 P  5.57370200E-01 -0.250663

  8 P  1.21000000E-01  1.000000

  9 D  2.39293160E+01 -0.063492
  9 D  6.39990130E+00 -0.278391
  9 D  1.93174170E+00 -0.493820
  9 D  5.11527900E-01 -0.486269

 10 D  9.00000000E-02  1.000000



 Summary of "ao basis" -> "" (cartesian)
 ------------------------------------------------------------------------------
       Tag                 Description            Shells   Functions and Types
 ---------------- ------------------------------  ------  ---------------------
 o                     DZVP (DFT Orbital)            6       15   3s2p1d
 c                     DZVP (DFT Orbital)            6       15   3s2p1d
 fe                    DZVP (DFT Orbital)           10       26   5s3p2d


                      Basis "cd basis" -> "" (cartesian)
                      -----
  o (Oxygen)
  ----------
            Exponent  Coefficients 
       -------------- ---------------------------------------------------------
  1 S  2.00000000E+03  1.000000

  2 S  4.00000000E+02  1.000000

  3 S  1.00000000E+02  1.000000

  4 S  2.50000000E+01  1.000000

  5 S  7.80000000E+00  1.000000

  6 P  7.80000000E+00  1.000000

  7 S  1.56000000E+00  1.000000

  8 P  1.56000000E+00  1.000000

  9 S  3.90000000E-01  1.000000

 10 P  3.90000000E-01  1.000000

 11 D  7.80000000E+00  1.000000

 12 D  1.56000000E+00  1.000000

 13 D  3.90000000E-01  1.000000

  c (Carbon)
  ----------
            Exponent  Coefficients 
       -------------- ---------------------------------------------------------
  1 S  1.11400000E+03  1.000000

  2 S  2.23000000E+02  1.000000

  3 S  5.57200000E+01  1.000000

  4 S  1.39000000E+01  1.000000

  5 S  4.40000000E+00  1.000000

  6 P  4.40000000E+00  1.000000

  7 S  8.70000000E-01  1.000000

  8 P  8.70000000E-01  1.000000

  9 S  2.20000000E-01  1.000000

 10 P  2.20000000E-01  1.000000

 11 D  4.40000000E+00  1.000000

 12 D  8.70000000E-01  1.000000

 13 D  2.20000000E-01  1.000000

  fe (Iron)
  ---------
            Exponent  Coefficients 
       -------------- ---------------------------------------------------------
  1 S  4.40000000E+04  1.000000

  2 S  8.80000000E+03  1.000000

  3 S  2.20000000E+03  1.000000

  4 S  5.50000000E+02  1.000000

  5 S  1.37000000E+02  1.000000

  6 S  4.32000000E+01  1.000000

  7 P  4.32000000E+01  1.000000

  8 S  8.60000000E+00  1.000000

  9 P  8.60000000E+00  1.000000

 10 S  2.20000000E+00  1.000000

 11 P  2.20000000E+00  1.000000

 12 S  5.40000000E-01  1.000000

 13 P  5.40000000E-01  1.000000

 14 S  1.35000000E-01  1.000000

 15 P  1.35000000E-01  1.000000

 16 D  4.32000000E+01  1.000000

 17 D  8.60000000E+00  1.000000

 18 D  2.20000000E+00  1.000000

 19 D  5.40000000E-01  1.000000

 20 D  1.35000000E-01  1.000000



 Summary of "cd basis" -> "" (cartesian)
 ------------------------------------------------------------------------------
       Tag                 Description            Shells   Functions and Types
 ---------------- ------------------------------  ------  ---------------------
 o                DGauss A1 DFT Coulomb Fitting     13       34   7s3p3d
 c                DGauss A1 DFT Coulomb Fitting     13       34   7s3p3d
 fe               DGauss A1 DFT Coulomb Fitting     20       55   10s5p5d


                         case t19 --- Default DFT (energy)
                         ---------------------------------

                                 NWChem DFT Module
                                 -----------------


                         case t19 --- Default DFT (energy)




 Summary of "ao basis" -> "ao basis" (cartesian)
 ------------------------------------------------------------------------------
       Tag                 Description            Shells   Functions and Types
 ---------------- ------------------------------  ------  ---------------------
 o                     DZVP (DFT Orbital)            6       15   3s2p1d
 c                     DZVP (DFT Orbital)            6       15   3s2p1d
 fe                    DZVP (DFT Orbital)           10       26   5s3p2d


      Symmetry analysis of basis
      --------------------------

        a1'        39
        a1"         2
        a2'         6
        a2"        23
        e'         70
        e"         36

  Caching 1-el integrals 
  Rotation of axis 

            General Information
            -------------------
          SCF calculation type: DFT
          Wavefunction type:  closed shell.
          No. of atoms     :    11
          No. of electrons :    96
           Alpha electrons :    48
            Beta electrons :    48
          Charge           :     0
          Spin multiplicity:     1
          Use of symmetry is: on ; symmetry adaption is: on 
          Maximum number of iterations:  30
          AO basis - number of functions:   176
                     number of shells:    70
          A Charge density fitting basis will be used.
          CD basis - number of functions:   395
                     number of shells:   150
          Convergence on energy requested:  1.00D-06
          Convergence on density requested:  1.00D-05
          Convergence on gradient requested:  5.00D-04

              XC Information
              --------------
                        Slater Exchange Functional  1.000 local    
                      VWN V Correlation Functional  1.000 local    

             Grid Information
             ----------------
          Grid used for XC integration:  medium    
          Radial quadrature: Mura-Knowles        
          Angular quadrature: Lebedev. 
          Tag              B.-S. Rad. Rad. Pts. Rad. Cut. Ang. Pts.
          ---              ---------- --------- --------- ---------
          fe                  1.40      112           8.0       590
          c                   0.70       49          11.0       434
          o                   0.60       49          13.0       434
          Grid pruning is: on 
          Number of quadrature shells:   308
          Spatial weights used:  Erf1

          Convergence Information
          -----------------------
          Convergence aids based upon iterative change in 
          total energy or number of iterations. 
          Levelshifting, if invoked, occurs when the 
          HOMO/LUMO gap drops below (HL_TOL):  1.00D-02
          DIIS, if invoked, will attempt to extrapolate 
          using up to (NFOCK): 10 stored Fock matrices.

                    Damping( 0%)  Levelshifting(0.5)       DIIS
                  --------------- ------------------- ---------------
          dE  on:    start            ASAP                start   
          dE off:    2 iters         30 iters            30 iters 


      Screening Tolerance Information
      -------------------------------
          Density screening/tol_rho:  1.00D-10
          AO Gaussian exp screening on grid/accAOfunc:  14
          CD Gaussian exp screening on grid/accCDfunc:  20
          XC Gaussian exp screening on grid/accXCfunc:  20
          Schwarz screening/accCoul:  1.00D-08


      Superposition of Atomic Density Guess
      -------------------------------------

 Sum of atomic energies:       -1824.13130503

      Non-variational initial energy
      ------------------------------

 Total energy =   -1827.679833
 1-e energy   =   -4099.408592
 2-e energy   =    1473.233141
 HOMO         =      -0.328823
 LUMO         =      -0.090738


      Symmetry analysis of molecular orbitals - initial
      -------------------------------------------------

  Numbering of irreducible representations: 

     1 a1'         2 a1"         3 a2'         4 a2"         5 e'      
     6 e"      

  Orbital symmetries:

     1 a1'         2 a1'         3 a2"         4 e'          5 e'      
     6 a1'         7 a2"         8 a1'         9 e'         10 e'      
    11 a1'        12 a2"        13 a1'        14 e'         15 e'      
    16 a1'        17 a2"        18 e'         19 e'         20 a1'     
    21 a2"        22 e'         23 e'         24 a1'        25 a1'     
    26 e'         27 e'         28 a2"        29 a1'        30 a1'     
    31 e"         32 e"         33 e'         34 e'         35 a2"     
    36 e'         37 e'         38 a2'        39 a1'        40 e"      
    41 e"         42 e'         43 e'         44 a2"        45 e"      
    46 e"         47 e'         48 e'         49 a1'        50 e"      
    51 e"         52 e'         53 e'         54 a2"        55 a2'     
    56 e'         57 e'         58 a1'     

   Time after variat. SCF:      0.4

      3 Center 2 Electron Integral Information
      ----------------------------------------
          Maximum number of 3-center 2e- integrals is:        12235520.
            This is reduced with Schwarz screening to:         5806895.
            Incore requires a per proc buffer size of:         1551166.
          Minimum dble words available (all nodes) is:       172479700
                   This is reduced (for later use) to:       172096079
                      proc 0 Suggested buffer size is:         1551166
                         Max Suggested buffer size is:         1551166
                              no. integral batches is:            1000

           1.551 MW buffer allocated for incore 3-center 
          2e- integral storage on stack. 
   Time prior to 1st pass:      0.5

 Grid_pts file          = ./dft_feco5.gridpts.0
 Record size in doubles =  12289        No. of grid_pts per rec  =   3070
 Max. records in memory =     18        Max. recs in file   =    862368


           Memory utilization after 1st SCF pass: 
           Heap Space remaining (MW):       86.01            86012122
          Stack Space remaining (MW):       84.69            84693756

   convergence    iter        energy       DeltaE   RMS-Dens  Diis-err    time
 ---------------- ----- ----------------- --------- --------- ---------  ------
 d= 0,ls=0.0,diis     1  -1822.8238770428 -2.62D+03  6.20D-02  9.95D+00     0.6
 d= 0,ls=0.0,diis     2  -1811.2269256962  1.16D+01  7.18D-02  6.78D+01     0.7
 d= 0,ls=0.0,diis     3  -1819.6761944318 -8.45D+00  9.88D-03  3.75D+01     0.8
 d= 0,ls=0.0,diis     4  -1821.7870721205 -2.11D+00  3.10D-03  1.88D+01     0.9
 d= 0,ls=0.0,diis     5  -1821.2546113026  5.32D-01  3.05D-03  2.34D+01     0.9
 d= 0,ls=0.0,diis     6  -1821.5446547133 -2.90D-01  4.72D-03  2.13D+01     1.0
 d= 0,ls=0.0,diis     7  -1821.9353968845 -3.91D-01  5.47D-03  1.80D+01     1.1
 d= 0,ls=0.0,diis     8  -1821.6794325008  2.56D-01  2.03D-03  1.97D+01     1.2
 d= 0,ls=0.0,diis     9  -1821.7478981192 -6.85D-02  2.58D-05  1.90D+01     1.2
  Resetting Diis
 d= 0,ls=0.0,diis    10  -1821.7460933044  1.80D-03  1.30D-03  1.90D+01     1.3
 d= 0,ls=0.0,diis    11  -1821.6761346745  7.00D-02  9.38D-02  1.95D+01     1.4
 d= 0,ls=0.0,diis    12  -1802.9471182725  1.87D+01  6.83D-02  1.55D+02     1.5
 d= 0,ls=0.0,diis    13  -1816.8592948639 -1.39D+01  4.31D-02  5.88D+01     1.6
 d= 0,ls=0.0,diis    14  -1823.2755143490 -6.42D+00  1.45D-02  2.91D+00     1.6
 d= 0,ls=0.0,diis    15  -1823.5345050192 -2.59D-01  5.27D-03  1.41D+00     1.7
 d= 0,ls=0.0,diis    16  -1823.6259859568 -9.15D-02  2.99D-03  4.64D-01     1.8
 d= 0,ls=0.0,diis    17  -1823.6660525939 -4.01D-02  9.38D-04  1.87D-01     1.9
 d= 0,ls=0.0,diis    18  -1823.6490586075  1.70D-02  1.03D-03  4.07D-01     2.0
 d= 0,ls=0.0,diis    19  -1823.6668447757 -1.78D-02  1.69D-03  1.72D-01     2.0
 d= 0,ls=0.0,diis    20  -1823.6800555873 -1.32D-02  1.69D-04  1.56D-03     2.1
 d= 0,ls=0.0,diis    21  -1823.6802016617 -1.46D-04  2.71D-05  1.25D-05     2.2
 d= 0,ls=0.0,diis    22  -1823.6801989761  2.69D-06  2.46D-05  5.20D-05     2.3
 d= 0,ls=0.0,diis    23  -1823.6802027456 -3.77D-06  6.15D-06  2.21D-06     2.4
 d= 0,ls=0.0,diis    24  -1823.6802029126 -1.67D-07  9.87D-08  5.36D-10     2.4


         Total DFT energy =    -1823.680202912551
      One electron energy =    -4105.877364834365
           Coulomb energy =     1601.847599039412
    Exchange-Corr. energy =     -118.146055211788
 Nuclear repulsion energy =      798.495618094190

 Numeric. integr. density =       95.999997054255

     Total iterative time =      1.9s



                  Occupations of the irreducible representations
                  ----------------------------------------------

                     irrep           alpha         beta
                     --------     --------     --------
                     a1'              13.0         13.0
                     a1"               0.0          0.0
                     a2'               1.0          1.0
                     a2"               8.0          8.0
                     e'               20.0         20.0
                     e"                6.0          6.0


                       DFT Final Molecular Orbital Analysis
                       ------------------------------------

 Vector    1  Occ=2.000000D+00  E=-2.541970D+02  Symmetry=a1'
              MO Center= -2.8D-20, -7.9D-20, -2.5D-20, r^2= 1.3D-03
   Bfn.  Coefficient  Atom+Function         Bfn.  Coefficient  Atom+Function  
  ----- ------------  ---------------      ----- ------------  ---------------
     1      0.995585   1 Fe s                 4     -0.030308   1 Fe s         

 Vector    2  Occ=2.000000D+00  E=-2.955251D+01  Symmetry=a1'
              MO Center= -5.8D-22,  7.0D-22,  2.0D-21, r^2= 2.4D-02
   Bfn.  Coefficient  Atom+Function         Bfn.  Coefficient  Atom+Function  
  ----- ------------  ---------------      ----- ------------  ---------------
     2      1.045683   1 Fe s                 1     -0.332832   1 Fe s         

 Vector    3  Occ=2.000000D+00  E=-2.556163D+01  Symmetry=a2"
              MO Center= -2.1D-20, -2.7D-20, -1.2D-18, r^2= 1.9D-02
   Bfn.  Coefficient  Atom+Function         Bfn.  Coefficient  Atom+Function  
  ----- ------------  ---------------      ----- ------------  ---------------
     8      0.993895   1 Fe pz        

 Vector    4  Occ=2.000000D+00  E=-2.554755D+01  Symmetry=e'
              MO Center=  5.6D-06, -3.2D-06, -6.4D-22, r^2= 1.9D-02
   Bfn.  Coefficient  Atom+Function         Bfn.  Coefficient  Atom+Function  
  ----- ------------  ---------------      ----- ------------  ---------------
     7      0.984831   1 Fe py                6      0.134711   1 Fe px        

 Vector    5  Occ=2.000000D+00  E=-2.554755D+01  Symmetry=e'
              MO Center= -5.6D-06,  3.2D-06,  2.5D-22, r^2= 1.9D-02
   Bfn.  Coefficient  Atom+Function         Bfn.  Coefficient  Atom+Function  
  ----- ------------  ---------------      ----- ------------  ---------------
     6      0.984831   1 Fe px                7     -0.134711   1 Fe py        

 Vector    6  Occ=2.000000D+00  E=-1.872439D+01  Symmetry=a1'
              MO Center= -1.2D-21, -1.5D-21,  5.9D-18, r^2= 8.8D+00
   Bfn.  Coefficient  Atom+Function         Bfn.  Coefficient  Atom+Function  
  ----- ------------  ---------------      ----- ------------  ---------------
    57      0.705566   4 O  s                72      0.705566   5 O  s         

 Vector    7  Occ=2.000000D+00  E=-1.872439D+01  Symmetry=a2"
              MO Center=  1.1D-18,  2.2D-18,  8.8D-16, r^2= 8.8D+00
   Bfn.  Coefficient  Atom+Function         Bfn.  Coefficient  Atom+Function  
  ----- ------------  ---------------      ----- ------------  ---------------
    57      0.705517   4 O  s                72     -0.705517   5 O  s         

 Vector    8  Occ=2.000000D+00  E=-1.871442D+01  Symmetry=a1'
              MO Center= -6.0D-17, -1.2D-16,  2.6D-18, r^2= 8.9D+00
   Bfn.  Coefficient  Atom+Function         Bfn.  Coefficient  Atom+Function  
  ----- ------------  ---------------      ----- ------------  ---------------
   132      0.576074   9 O  s               147      0.576074  10 O  s         
   162      0.576074  11 O  s         

 Vector    9  Occ=2.000000D+00  E=-1.871442D+01  Symmetry=e'
              MO Center=  2.7D-01,  1.5D+00, -8.5D-18, r^2= 6.7D+00
   Bfn.  Coefficient  Atom+Function         Bfn.  Coefficient  Atom+Function  
  ----- ------------  ---------------      ----- ------------  ---------------
   132      0.778047   9 O  s               147     -0.598118  10 O  s         
   162     -0.179930  11 O  s         

 Vector   10  Occ=2.000000D+00  E=-1.871442D+01  Symmetry=e'
              MO Center= -2.7D-01, -1.5D+00,  5.6D-19, r^2= 6.7D+00
   Bfn.  Coefficient  Atom+Function         Bfn.  Coefficient  Atom+Function  
  ----- ------------  ---------------      ----- ------------  ---------------
   162      0.794529  11 O  s               147     -0.553088  10 O  s         
   132     -0.241441   9 O  s         

 Vector   11  Occ=2.000000D+00  E=-9.950001D+00  Symmetry=a1'
              MO Center=  5.8D-17,  2.9D-18,  2.4D-09, r^2= 3.3D+00
   Bfn.  Coefficient  Atom+Function         Bfn.  Coefficient  Atom+Function  
  ----- ------------  ---------------      ----- ------------  ---------------
    27      0.705770   2 C  s                42      0.705770   3 C  s         

 Vector   12  Occ=2.000000D+00  E=-9.949997D+00  Symmetry=a2"
              MO Center= -6.3D-18, -9.8D-18, -2.4D-09, r^2= 3.3D+00
   Bfn.  Coefficient  Atom+Function         Bfn.  Coefficient  Atom+Function  
  ----- ------------  ---------------      ----- ------------  ---------------
    27      0.705656   2 C  s                42     -0.705656   3 C  s         

 Vector   13  Occ=2.000000D+00  E=-9.938565D+00  Symmetry=a1'
              MO Center= -2.7D-09,  4.9D-12,  7.3D-18, r^2= 3.4D+00
   Bfn.  Coefficient  Atom+Function         Bfn.  Coefficient  Atom+Function  
  ----- ------------  ---------------      ----- ------------  ---------------
    87      0.576226   6 C  s               102      0.576226   7 C  s         
   117      0.576226   8 C  s         

 Vector   14  Occ=2.000000D+00  E=-9.938562D+00  Symmetry=e'
              MO Center= -8.9D-01, -2.1D-01, -2.2D-18, r^2= 2.5D+00
   Bfn.  Coefficient  Atom+Function         Bfn.  Coefficient  Atom+Function  
  ----- ------------  ---------------      ----- ------------  ---------------
   102      0.790174   7 C  s               117     -0.567305   8 C  s         
    87     -0.222868   6 C  s         

 Vector   15  Occ=2.000000D+00  E=-9.938562D+00  Symmetry=e'
              MO Center=  8.9D-01,  2.1D-01, -6.5D-19, r^2= 2.5D+00
   Bfn.  Coefficient  Atom+Function         Bfn.  Coefficient  Atom+Function  
  ----- ------------  ---------------      ----- ------------  ---------------
    87      0.783741   6 C  s               117     -0.584880   8 C  s         
   102     -0.198861   7 C  s         

 Vector   16  Occ=2.000000D+00  E=-3.312084D+00  Symmetry=a1'
              MO Center=  1.3D-19,  2.6D-19, -3.4D-18, r^2= 2.2D-01
   Bfn.  Coefficient  Atom+Function         Bfn.  Coefficient  Atom+Function  
  ----- ------------  ---------------      ----- ------------  ---------------
     3      1.123992   1 Fe s                 2      0.466397   1 Fe s         
     1     -0.126940   1 Fe s                 4     -0.046901   1 Fe s         

 Vector   17  Occ=2.000000D+00  E=-2.161250D+00  Symmetry=a2"
              MO Center=  4.8D-17, -3.3D-17,  2.8D-17, r^2= 2.5D-01
   Bfn.  Coefficient  Atom+Function         Bfn.  Coefficient  Atom+Function  
  ----- ------------  ---------------      ----- ------------  ---------------
    11      1.073643   1 Fe pz                8     -0.405669   1 Fe pz        
    14      0.048940   1 Fe pz               29     -0.032350   2 C  s         
    44      0.032350   3 C  s         

 Vector   18  Occ=2.000000D+00  E=-2.132708D+00  Symmetry=e'
              MO Center= -7.0D-04, -2.2D-03,  3.3D-20, r^2= 2.5D-01
   Bfn.  Coefficient  Atom+Function         Bfn.  Coefficient  Atom+Function  
  ----- ------------  ---------------      ----- ------------  ---------------
    10      0.919461   1 Fe py                9     -0.555083   1 Fe px        
     7     -0.347312   1 Fe py                6      0.209674   1 Fe px        
   119      0.030420   8 C  s         

 Vector   19  Occ=2.000000D+00  E=-2.132708D+00  Symmetry=e'
              MO Center=  7.0D-04,  2.2D-03,  1.6D-20, r^2= 2.5D-01
   Bfn.  Coefficient  Atom+Function         Bfn.  Coefficient  Atom+Function  
  ----- ------------  ---------------      ----- ------------  ---------------
     9      0.919461   1 Fe px               10      0.555083   1 Fe py        
     6     -0.347312   1 Fe px                7     -0.209674   1 Fe py        
    22      0.032416   1 Fe dxy              89     -0.030740   6 C  s         

 Vector   20  Occ=2.000000D+00  E=-1.070170D+00  Symmetry=a1'
              MO Center=  2.2D-14,  1.8D-14,  2.6D-11, r^2= 7.3D+00
   Bfn.  Coefficient  Atom+Function         Bfn.  Coefficient  Atom+Function  
  ----- ------------  ---------------      ----- ------------  ---------------
    58      0.318095   4 O  s                73      0.318095   5 O  s         
    59     -0.195533   4 O  s                74     -0.195533   5 O  s         
    32     -0.167651   2 C  pz               47      0.167651   3 C  pz        
    28     -0.164725   2 C  s                43     -0.164725   3 C  s         
    57     -0.149923   4 O  s                62      0.149495   4 O  pz        

 Vector   21  Occ=2.000000D+00  E=-1.070008D+00  Symmetry=a2"
              MO Center= -2.5D-19, -1.8D-19, -2.6D-11, r^2= 7.3D+00
   Bfn.  Coefficient  Atom+Function         Bfn.  Coefficient  Atom+Function  
  ----- ------------  ---------------      ----- ------------  ---------------
    58      0.321424   4 O  s                73     -0.321424   5 O  s         
    59     -0.185899   4 O  s                74      0.185899   5 O  s         
    32     -0.168290   2 C  pz               47     -0.168290   3 C  pz        
    28     -0.166752   2 C  s                43      0.166752   3 C  s         
    57     -0.150223   4 O  s                62      0.149759   4 O  pz        

 Vector   22  Occ=2.000000D+00  E=-1.059564D+00  Symmetry=a1'
              MO Center= -5.7D-11, -5.2D-11,  1.8D-16, r^2= 7.4D+00
   Bfn.  Coefficient  Atom+Function         Bfn.  Coefficient  Atom+Function  
  ----- ------------  ---------------      ----- ------------  ---------------
   133      0.261936   9 O  s               148      0.261936  10 O  s         
   163      0.261936  11 O  s               134     -0.148088   9 O  s         
   149     -0.148088  10 O  s               164     -0.148088  11 O  s         
    88     -0.133087   6 C  s               103     -0.133087   7 C  s         
   118     -0.133087   8 C  s               105      0.131405   7 C  px        

 Vector   23  Occ=2.000000D+00  E=-1.059528D+00  Symmetry=e'
              MO Center= -8.1D-01, -1.0D+00,  8.5D-20, r^2= 5.6D+00
   Bfn.  Coefficient  Atom+Function         Bfn.  Coefficient  Atom+Function  
  ----- ------------  ---------------      ----- ------------  ---------------
   163     -0.330866  11 O  s               148      0.307559  10 O  s         
   164      0.204130  11 O  s               149     -0.189751  10 O  s         
   118      0.171603   8 C  s               121     -0.168515   8 C  py        
   103     -0.159515   7 C  s               105      0.156661   7 C  px        
   162      0.155964  11 O  s               166      0.149079  11 O  py        

 Vector   24  Occ=2.000000D+00  E=-1.059528D+00  Symmetry=e'
              MO Center=  8.1D-01,  1.0D+00,  3.0D-20, r^2= 5.6D+00
   Bfn.  Coefficient  Atom+Function         Bfn.  Coefficient  Atom+Function  
  ----- ------------  ---------------      ----- ------------  ---------------
   133      0.368595   9 O  s               134     -0.227407   9 O  s         
   148     -0.204482  10 O  s                88     -0.191172   6 C  s         
   132     -0.173749   9 O  s               163     -0.164113  11 O  s         
    90     -0.137365   6 C  px               91     -0.137406   6 C  py        
   149      0.126156  10 O  s               135      0.121550   9 O  px        

 Vector   25  Occ=2.000000D+00  E=-5.739279D-01  Symmetry=a1'
              MO Center= -2.0D-14,  1.7D-14, -1.6D-14, r^2= 4.6D+00
   Bfn.  Coefficient  Atom+Function         Bfn.  Coefficient  Atom+Function  
  ----- ------------  ---------------      ----- ------------  ---------------
     3      0.271574   1 Fe s                28      0.216002   2 C  s         
    43      0.216002   3 C  s                29      0.185920   2 C  s         
    44      0.185920   3 C  s                59     -0.142342   4 O  s         
    74     -0.142342   5 O  s                88      0.140115   6 C  s         
   103      0.140115   7 C  s               118      0.140115   8 C  s         

 Vector   26  Occ=2.000000D+00  E=-5.307929D-01  Symmetry=a2"
              MO Center= -3.3D-15, -1.9D-15, -2.0D-14, r^2= 8.2D+00
   Bfn.  Coefficient  Atom+Function         Bfn.  Coefficient  Atom+Function  
  ----- ------------  ---------------      ----- ------------  ---------------
    62      0.318013   4 O  pz               77      0.318013   5 O  pz        
    28     -0.262291   2 C  s                43      0.262291   3 C  s         
    59      0.251685   4 O  s                74     -0.251685   5 O  s         
    58     -0.201488   4 O  s                73      0.201488   5 O  s         
    29     -0.165631   2 C  s                44      0.165631   3 C  s         

 Vector   27  Occ=2.000000D+00  E=-5.221401D-01  Symmetry=e'
              MO Center= -3.6D-01, -1.2D+00, -1.7D-15, r^2= 6.5D+00
   Bfn.  Coefficient  Atom+Function         Bfn.  Coefficient  Atom+Function  
  ----- ------------  ---------------      ----- ------------  ---------------
   166      0.340387  11 O  py              118      0.297383   8 C  s         
   164     -0.256421  11 O  s               150     -0.253036  10 O  px        
   163      0.223124  11 O  s               103     -0.220843   7 C  s         
   149      0.190424  10 O  s               148     -0.165697  10 O  s         
   119      0.151494   8 C  s               117     -0.133617   8 C  s         

 Vector   28  Occ=2.000000D+00  E=-5.221401D-01  Symmetry=e'
              MO Center=  3.6D-01,  1.2D+00,  7.2D-15, r^2= 6.5D+00
   Bfn.  Coefficient  Atom+Function         Bfn.  Coefficient  Atom+Function  
  ----- ------------  ---------------      ----- ------------  ---------------
    88      0.299198   6 C  s               134     -0.257986   9 O  s         
   135     -0.250249   9 O  px              136     -0.250948   9 O  py        
   150     -0.246632  10 O  px              133      0.224486   9 O  s         
   103     -0.215884   7 C  s                16     -0.194986   1 Fe dxy       
   149      0.186148  10 O  s               148     -0.161976  10 O  s         

 Vector   29  Occ=2.000000D+00  E=-5.183799D-01  Symmetry=a1'
              MO Center= -8.5D-13,  7.9D-13,  2.5D-14, r^2= 8.5D+00
   Bfn.  Coefficient  Atom+Function         Bfn.  Coefficient  Atom+Function  
  ----- ------------  ---------------      ----- ------------  ---------------
    62      0.239784   4 O  pz               77     -0.239784   5 O  pz        
   150      0.196994  10 O  px              166      0.196994  11 O  py        
    59      0.175210   4 O  s                74      0.175210   5 O  s         
    29     -0.170219   2 C  s                44     -0.170219   3 C  s         
    20      0.167229   1 Fe dzz              28     -0.163304   2 C  s         

 Vector   30  Occ=2.000000D+00  E=-4.713069D-01  Symmetry=a1'
              MO Center=  3.9D-14, -1.1D-14,  2.4D-14, r^2= 8.0D+00
   Bfn.  Coefficient  Atom+Function         Bfn.  Coefficient  Atom+Function  
  ----- ------------  ---------------      ----- ------------  ---------------
    62      0.312038   4 O  pz               77     -0.312038   5 O  pz        
    32     -0.253123   2 C  pz               47      0.253123   3 C  pz        
   150     -0.202263  10 O  px              166     -0.202263  11 O  py        
     3      0.186246   1 Fe s                20     -0.153827   1 Fe dzz       
    59      0.152521   4 O  s                74      0.152521   5 O  s         

 Vector   31  Occ=2.000000D+00  E=-4.580969D-01  Symmetry=e"
              MO Center=  2.6D-01, -3.1D-01, -3.1D-15, r^2= 6.6D+00
   Bfn.  Coefficient  Atom+Function         Bfn.  Coefficient  Atom+Function  
  ----- ------------  ---------------      ----- ------------  ---------------
    61     -0.317805   4 O  py               76      0.317805   5 O  py        
    19      0.308170   1 Fe dyz              31     -0.251497   2 C  py        
    46      0.251497   3 C  py              167      0.251267  11 O  pz        
   122      0.210093   8 C  pz              137     -0.175184   9 O  pz        
    92     -0.146477   6 C  pz               64     -0.112042   4 O  py        

 Vector   32  Occ=2.000000D+00  E=-4.580969D-01  Symmetry=e"
              MO Center= -2.6D-01,  3.1D-01, -3.8D-15, r^2= 6.6D+00
   Bfn.  Coefficient  Atom+Function         Bfn.  Coefficient  Atom+Function  
  ----- ------------  ---------------      ----- ------------  ---------------
    60     -0.317805   4 O  px               75      0.317805   5 O  px        
    17      0.308170   1 Fe dxz              30     -0.251497   2 C  px        
    45      0.251497   3 C  px              152      0.246211  10 O  pz        
   107      0.205866   7 C  pz              137     -0.188996   9 O  pz        
    92     -0.158026   6 C  pz               63     -0.112042   4 O  px        

 Vector   33  Occ=2.000000D+00  E=-4.495699D-01  Symmetry=e'
              MO Center=  6.9D-02, -1.6D-01,  4.7D-16, r^2= 7.2D+00
   Bfn.  Coefficient  Atom+Function         Bfn.  Coefficient  Atom+Function  
  ----- ------------  ---------------      ----- ------------  ---------------
    61      0.361296   4 O  py               76      0.361296   5 O  py        
    31      0.260305   2 C  py               46      0.260305   3 C  py        
   166      0.190431  11 O  py              121     -0.162447   8 C  py        
    64      0.127280   4 O  py               79      0.127280   5 O  py        
   136      0.127847   9 O  py               13      0.113239   1 Fe py        

 Vector   34  Occ=2.000000D+00  E=-4.495699D-01  Symmetry=e'
              MO Center= -6.9D-02,  1.6D-01,  4.8D-17, r^2= 7.2D+00
   Bfn.  Coefficient  Atom+Function         Bfn.  Coefficient  Atom+Function  
  ----- ------------  ---------------      ----- ------------  ---------------
    60      0.361296   4 O  px               75      0.361296   5 O  px        
    30      0.260305   2 C  px               45      0.260305   3 C  px        
   150      0.180142  10 O  px              135      0.148425   9 O  px        
   105     -0.140712   7 C  px               63      0.127280   4 O  px        
    78      0.127280   5 O  px               91     -0.124832   6 C  py        

 Vector   35  Occ=2.000000D+00  E=-4.487312D-01  Symmetry=a2"
              MO Center=  7.9D-17, -8.5D-17, -1.6D-14, r^2= 7.0D+00
   Bfn.  Coefficient  Atom+Function         Bfn.  Coefficient  Atom+Function  
  ----- ------------  ---------------      ----- ------------  ---------------
   137      0.269347   9 O  pz              152      0.269347  10 O  pz        
   167      0.269347  11 O  pz               62      0.213967   4 O  pz        
    77      0.213967   5 O  pz               92      0.206214   6 C  pz        
   107      0.206214   7 C  pz              122      0.206214   8 C  pz        
    32     -0.198067   2 C  pz               47     -0.198067   3 C  pz        

 Vector   36  Occ=2.000000D+00  E=-4.347056D-01  Symmetry=e'
              MO Center= -4.9D-01, -9.9D-01, -6.1D-18, r^2= 6.0D+00
   Bfn.  Coefficient  Atom+Function         Bfn.  Coefficient  Atom+Function  
  ----- ------------  ---------------      ----- ------------  ---------------
   165      0.434220  11 O  px              151      0.366436  10 O  py        
   120      0.288864   8 C  px               16      0.278174   1 Fe dxy       
   106      0.231200   7 C  py              168      0.161055  11 O  px        
   154      0.135288  10 O  py              105      0.121815   7 C  px        
   121      0.110929   8 C  py              136     -0.108056   9 O  py        

 Vector   37  Occ=2.000000D+00  E=-4.347056D-01  Symmetry=e'
              MO Center=  4.9D-01,  9.9D-01,  9.4D-20, r^2= 6.0D+00
   Bfn.  Coefficient  Atom+Function         Bfn.  Coefficient  Atom+Function  
  ----- ------------  ---------------      ----- ------------  ---------------
   135      0.338838   9 O  px              136     -0.321147   9 O  py        
   151     -0.273345  10 O  py               91     -0.240059   6 C  py        
    90      0.219288   6 C  px              106     -0.219426   7 C  py        
   165      0.142990  11 O  px               15     -0.139087   1 Fe dxx       
    18      0.139087   1 Fe dyy             150     -0.135654  10 O  px        

 Vector   38  Occ=2.000000D+00  E=-4.278376D-01  Symmetry=a2'
              MO Center= -1.9D-15,  1.1D-14,  5.2D-17, r^2= 7.8D+00
   Bfn.  Coefficient  Atom+Function         Bfn.  Coefficient  Atom+Function  
  ----- ------------  ---------------      ----- ------------  ---------------
   151      0.350952  10 O  py              165     -0.350952  11 O  px        
   135      0.256915   9 O  px              136     -0.256915   9 O  py        
   106      0.224983   7 C  py              120     -0.224983   8 C  px        
    90      0.164699   6 C  px               91     -0.164699   6 C  py        
   154      0.127938  10 O  py              168     -0.127938  11 O  px        

 Vector   39  Occ=2.000000D+00  E=-4.271425D-01  Symmetry=a1'
              MO Center= -1.9D-15,  2.0D-15,  3.5D-16, r^2= 3.6D+00
   Bfn.  Coefficient  Atom+Function         Bfn.  Coefficient  Atom+Function  
  ----- ------------  ---------------      ----- ------------  ---------------
    20      0.492468   1 Fe dzz              15     -0.249636   1 Fe dxx       
    18     -0.249636   1 Fe dyy             105      0.215750   7 C  px        
   121      0.215750   8 C  py               32      0.188826   2 C  pz        
    47     -0.188826   3 C  pz              150     -0.178559  10 O  px        
   166     -0.178559  11 O  py               90     -0.157940   6 C  px        

 Vector   40  Occ=2.000000D+00  E=-4.270968D-01  Symmetry=e"
              MO Center= -6.8D-01, -5.3D-01,  6.4D-15, r^2= 7.2D+00
   Bfn.  Coefficient  Atom+Function         Bfn.  Coefficient  Atom+Function  
  ----- ------------  ---------------      ----- ------------  ---------------
   152      0.376489  10 O  pz              167     -0.350474  11 O  pz        
   107      0.233593   7 C  pz              122     -0.217452   8 C  pz        
    60      0.208095   4 O  px               75     -0.208095   5 O  px        
    61     -0.183804   4 O  py               76      0.183804   5 O  py        
   155      0.138303  10 O  pz              170     -0.128747  11 O  pz        

 Vector   41  Occ=2.000000D+00  E=-4.270968D-01  Symmetry=e"
              MO Center=  6.8D-01,  5.3D-01,  5.8D-15, r^2= 7.2D+00
   Bfn.  Coefficient  Atom+Function         Bfn.  Coefficient  Atom+Function  
  ----- ------------  ---------------      ----- ------------  ---------------
   137      0.419712   9 O  pz               92      0.260411   6 C  pz        
   167     -0.232386  11 O  pz               61     -0.208095   4 O  py        
    76      0.208095   5 O  py              152     -0.187326  10 O  pz        
    60     -0.183804   4 O  px               75      0.183804   5 O  px        
   140      0.154181   9 O  pz              122     -0.144184   8 C  pz        

 Vector   42  Occ=2.000000D+00  E=-4.086715D-01  Symmetry=e'
              MO Center=  1.5D-01,  5.1D-01, -9.3D-15, r^2= 4.9D+00
   Bfn.  Coefficient  Atom+Function         Bfn.  Coefficient  Atom+Function  
  ----- ------------  ---------------      ----- ------------  ---------------
    16      0.507673   1 Fe dxy              91      0.249976   6 C  py        
    90      0.234657   6 C  px              105      0.230816   7 C  px        
   135     -0.204218   9 O  px               60      0.202967   4 O  px        
    75      0.202967   5 O  px              150     -0.202584  10 O  px        
    88     -0.173107   6 C  s               136     -0.168182   9 O  py        

 Vector   43  Occ=2.000000D+00  E=-4.086715D-01  Symmetry=e'
              MO Center= -1.5D-01, -5.1D-01, -3.8D-15, r^2= 4.9D+00
   Bfn.  Coefficient  Atom+Function         Bfn.  Coefficient  Atom+Function  
  ----- ------------  ---------------      ----- ------------  ---------------
   121      0.332084   8 C  py               15      0.253836   1 Fe dxx       
    18     -0.253836   1 Fe dyy             105     -0.252194   7 C  px        
   166     -0.245669  11 O  py               61      0.202967   4 O  py        
    76      0.202967   5 O  py              118      0.172075   8 C  s         
   150      0.169126  10 O  px               16      0.129975   1 Fe dxy       

 Vector   44  Occ=2.000000D+00  E=-3.936894D-01  Symmetry=a2"
              MO Center= -1.1D-14,  1.3D-14,  1.5D-15, r^2= 5.8D+00
   Bfn.  Coefficient  Atom+Function         Bfn.  Coefficient  Atom+Function  
  ----- ------------  ---------------      ----- ------------  ---------------
    32      0.304574   2 C  pz               47      0.304574   3 C  pz        
    14     -0.257701   1 Fe pz              137      0.248765   9 O  pz        
   152      0.248765  10 O  pz              167      0.248765  11 O  pz        
    62     -0.220912   4 O  pz               77     -0.220912   5 O  pz        
    11     -0.181643   1 Fe pz               28     -0.173917   2 C  s         

 Vector   45  Occ=2.000000D+00  E=-2.903247D-01  Symmetry=e"
              MO Center= -8.5D-02, -1.2D-01, -4.7D-16, r^2= 2.6D+00
   Bfn.  Coefficient  Atom+Function         Bfn.  Coefficient  Atom+Function  
  ----- ------------  ---------------      ----- ------------  ---------------
    19      1.046431   1 Fe dyz              17     -0.891830   1 Fe dxz       
    25     -0.306567   1 Fe dyz              23      0.261275   1 Fe dxz       
   167     -0.177387  11 O  pz              152      0.161769  10 O  pz        
    61      0.152394   4 O  py               76     -0.152394   5 O  py        
    60     -0.129880   4 O  px               75      0.129880   5 O  px        

 Vector   46  Occ=2.000000D+00  E=-2.903247D-01  Symmetry=e"
              MO Center=  8.5D-02,  1.2D-01, -1.4D-14, r^2= 2.6D+00
   Bfn.  Coefficient  Atom+Function         Bfn.  Coefficient  Atom+Function  
  ----- ------------  ---------------      ----- ------------  ---------------
    17      1.046431   1 Fe dxz              19      0.891830   1 Fe dyz       
    23     -0.306567   1 Fe dxz              25     -0.261275   1 Fe dyz       
   137      0.195812   9 O  pz               60      0.152394   4 O  px        
    75     -0.152394   5 O  px               61      0.129880   4 O  py        
    76     -0.129880   5 O  py              152     -0.111432  10 O  pz        

 Vector   47  Occ=2.000000D+00  E=-2.366907D-01  Symmetry=e'
              MO Center= -1.2D-01, -3.7D-01,  1.7D-14, r^2= 2.9D+00
   Bfn.  Coefficient  Atom+Function         Bfn.  Coefficient  Atom+Function  
  ----- ------------  ---------------      ----- ------------  ---------------
    16      1.148738   1 Fe dxy              12      0.323707   1 Fe px        
   165     -0.240673  11 O  px               13      0.197728   1 Fe py        
   151     -0.191508  10 O  py              120      0.165587   8 C  px        
    22     -0.156414   1 Fe dxy              15     -0.138768   1 Fe dxx       
    18      0.138768   1 Fe dyy             106      0.134252   7 C  py        

 Vector   48  Occ=2.000000D+00  E=-2.366907D-01  Symmetry=e'
              MO Center=  1.2D-01,  3.7D-01,  7.7D-15, r^2= 2.9D+00
   Bfn.  Coefficient  Atom+Function         Bfn.  Coefficient  Atom+Function  
  ----- ------------  ---------------      ----- ------------  ---------------
    15      0.574369   1 Fe dxx              18     -0.574369   1 Fe dyy       
    13      0.323707   1 Fe py               16      0.277536   1 Fe dxy       
    12     -0.197728   1 Fe px              135      0.187393   9 O  px        
   136     -0.161084   9 O  py              151     -0.153956  10 O  py        
    90     -0.131190   6 C  px               10      0.112121   1 Fe py        

 Vector   49  Occ=0.000000D+00  E=-9.791630D-02  Symmetry=e"
              MO Center=  3.1D-01, -2.6D-01, -3.3D-17, r^2= 4.4D+00
   Bfn.  Coefficient  Atom+Function         Bfn.  Coefficient  Atom+Function  
  ----- ------------  ---------------      ----- ------------  ---------------
    19      0.988789   1 Fe dyz             122     -0.310268   8 C  pz        
    31      0.281664   2 C  py               46     -0.281664   3 C  py        
   167      0.253203  11 O  pz               92      0.239110   6 C  pz        
    61     -0.226951   4 O  py               76      0.226951   5 O  py        
   125     -0.217600   8 C  pz              137     -0.195132   9 O  pz        

 Vector   50  Occ=0.000000D+00  E=-9.791630D-02  Symmetry=e"
              MO Center= -3.1D-01,  2.6D-01, -7.6D-14, r^2= 4.4D+00
   Bfn.  Coefficient  Atom+Function         Bfn.  Coefficient  Atom+Function  
  ----- ------------  ---------------      ----- ------------  ---------------
    17      0.988789   1 Fe dxz             107     -0.317184   7 C  pz        
    30      0.281664   2 C  px               45     -0.281664   3 C  px        
   152      0.258846  10 O  pz               60     -0.226951   4 O  px        
    75      0.226951   5 O  px              110     -0.222449   7 C  pz        
    92      0.220217   6 C  pz              155      0.185467  10 O  pz        

 Vector   51  Occ=0.000000D+00  E=-8.799059D-02  Symmetry=e'
              MO Center=  9.4D-03, -4.1D-02,  1.5D-15, r^2= 5.3D+00
   Bfn.  Coefficient  Atom+Function         Bfn.  Coefficient  Atom+Function  
  ----- ------------  ---------------      ----- ------------  ---------------
    31      0.483105   2 C  py               46      0.483105   3 C  py        
   119      0.441466   8 C  s                61     -0.322062   4 O  py        
    76     -0.322062   5 O  py               34      0.311356   2 C  py        
    49      0.311356   3 C  py               64     -0.248953   4 O  py        
    79     -0.248953   5 O  py              104     -0.227544   7 C  s         

 Vector   52  Occ=0.000000D+00  E=-8.799059D-02  Symmetry=e'
              MO Center= -9.4D-03,  4.1D-02,  6.4D-14, r^2= 5.3D+00
   Bfn.  Coefficient  Atom+Function         Bfn.  Coefficient  Atom+Function  
  ----- ------------  ---------------      ----- ------------  ---------------
    30      0.483105   2 C  px               45      0.483105   3 C  px        
    89     -0.386253   6 C  s               104      0.378388   7 C  s         
    16     -0.376440   1 Fe dxy              60     -0.322062   4 O  px        
    75     -0.322062   5 O  px               33      0.311356   2 C  px        
    48      0.311356   3 C  px               22      0.258889   1 Fe dxy       

 Vector   53  Occ=0.000000D+00  E=-8.642643D-02  Symmetry=a1'
              MO Center= -5.1D-17,  1.6D-16,  2.5D-16, r^2= 2.2D+00
   Bfn.  Coefficient  Atom+Function         Bfn.  Coefficient  Atom+Function  
  ----- ------------  ---------------      ----- ------------  ---------------
    20      0.852229   1 Fe dzz              15     -0.415808   1 Fe dxx       
    18     -0.415808   1 Fe dyy              29      0.268505   2 C  s         
    44      0.268505   3 C  s                89     -0.229221   6 C  s         
   104     -0.229221   7 C  s               119     -0.229221   8 C  s         
    28      0.168626   2 C  s                43      0.168626   3 C  s         

 Vector   54  Occ=0.000000D+00  E=-8.349889D-02  Symmetry=a2"
              MO Center= -6.5D-12,  2.7D-13,  6.7D-18, r^2= 5.6D+00
   Bfn.  Coefficient  Atom+Function         Bfn.  Coefficient  Atom+Function  
  ----- ------------  ---------------      ----- ------------  ---------------
    92      0.407041   6 C  pz              107      0.407041   7 C  pz        
   122      0.407041   8 C  pz               29     -0.369745   2 C  s         
    44      0.369745   3 C  s               137     -0.281414   9 O  pz        
   152     -0.281414  10 O  pz              167     -0.281414  11 O  pz        
    95      0.270349   6 C  pz              110      0.270349   7 C  pz        

 Vector   55  Occ=0.000000D+00  E=-7.792937D-02  Symmetry=a2'
              MO Center=  1.9D-16, -6.4D-16,  2.3D-28, r^2= 5.8D+00
   Bfn.  Coefficient  Atom+Function         Bfn.  Coefficient  Atom+Function  
  ----- ------------  ---------------      ----- ------------  ---------------
   106      0.427530   7 C  py              120     -0.427530   8 C  px        
    90      0.312974   6 C  px               91     -0.312974   6 C  py        
   109      0.281591   7 C  py              123     -0.281591   8 C  px        
   151     -0.282858  10 O  py              165      0.282858  11 O  px        
   154     -0.221475  10 O  py              168      0.221475  11 O  px        

 Vector   56  Occ=0.000000D+00  E=-6.749713D-02  Symmetry=e'
              MO Center=  5.1D-01, -3.4D-01,  3.7D-15, r^2= 4.1D+00
   Bfn.  Coefficient  Atom+Function         Bfn.  Coefficient  Atom+Function  
  ----- ------------  ---------------      ----- ------------  ---------------
    16      0.618831   1 Fe dxy             120     -0.444564   8 C  px        
    15     -0.376722   1 Fe dxx              18      0.376722   1 Fe dyy       
   165      0.314208  11 O  px               90     -0.294719   6 C  px        
   123     -0.266407   8 C  px               91      0.235346   6 C  py        
   168      0.226786  11 O  px              135      0.217946   9 O  px        

 Vector   57  Occ=0.000000D+00  E=-6.749713D-02  Symmetry=e'
              MO Center= -5.1D-01,  3.4D-01, -1.1D-15, r^2= 4.1D+00
   Bfn.  Coefficient  Atom+Function         Bfn.  Coefficient  Atom+Function  
  ----- ------------  ---------------      ----- ------------  ---------------
    16      0.753445   1 Fe dxy             106     -0.465011   7 C  py        
   151      0.327344  10 O  py               15      0.309416   1 Fe dxx       
    18     -0.309416   1 Fe dyy             109     -0.281214   7 C  py        
    91     -0.253825   6 C  py              154      0.236471  10 O  py        
   119     -0.201288   8 C  s               136      0.191675   9 O  py        

 Vector   58  Occ=0.000000D+00  E=-4.407877D-02  Symmetry=e"
              MO Center=  3.8D-01, -3.7D-01, -2.2D-16, r^2= 5.3D+00
   Bfn.  Coefficient  Atom+Function         Bfn.  Coefficient  Atom+Function  
  ----- ------------  ---------------      ----- ------------  ---------------
   122      0.485051   8 C  pz               31      0.418956   2 C  py        
    46     -0.418956   3 C  py              125      0.415813   8 C  pz        
    92     -0.355364   6 C  pz               95     -0.304639   6 C  pz        
   167     -0.276089  11 O  pz               34      0.257108   2 C  py        
    49     -0.257108   3 C  py              170     -0.256211  11 O  pz        

 Vector   59  Occ=0.000000D+00  E=-4.407877D-02  Symmetry=e"
              MO Center= -3.8D-01,  3.7D-01, -2.0D-15, r^2= 5.3D+00
   Bfn.  Coefficient  Atom+Function         Bfn.  Coefficient  Atom+Function  
  ----- ------------  ---------------      ----- ------------  ---------------
   107      0.485214   7 C  pz               30      0.418956   2 C  px        
    45     -0.418956   3 C  px              110      0.415953   7 C  pz        
    92     -0.354918   6 C  pz               95     -0.304256   6 C  pz        
   152     -0.276182  10 O  pz               33      0.257108   2 C  px        
    48     -0.257108   3 C  px              155     -0.256298  10 O  pz        

 Vector   60  Occ=0.000000D+00  E= 1.653424D-03  Symmetry=a1'
              MO Center= -1.9D-14, -1.1D-14,  2.0D-14, r^2= 1.0D+01
   Bfn.  Coefficient  Atom+Function         Bfn.  Coefficient  Atom+Function  
  ----- ------------  ---------------      ----- ------------  ---------------
     5      3.069277   1 Fe s                 4     -0.650732   1 Fe s         
    29     -0.403406   2 C  s                44     -0.403406   3 C  s         
    21     -0.358631   1 Fe dxx              24     -0.358631   1 Fe dyy       
    89     -0.236777   6 C  s               104     -0.236777   7 C  s         
   119     -0.236777   8 C  s                35      0.202046   2 C  pz        

 Vector   61  Occ=0.000000D+00  E= 9.449391D-02  Symmetry=a2"
              MO Center= -2.0D-16, -1.3D-16, -1.7D-14, r^2= 1.0D+01
   Bfn.  Coefficient  Atom+Function         Bfn.  Coefficient  Atom+Function  
  ----- ------------  ---------------      ----- ------------  ---------------
    35      1.483870   2 C  pz               50      1.483870   3 C  pz        
    59     -0.986213   4 O  s                74      0.986213   5 O  s         
    14      0.668142   1 Fe pz               95      0.451974   6 C  pz        
   110      0.451974   7 C  pz              125      0.451974   8 C  pz        
    29     -0.218365   2 C  s                44      0.218365   3 C  s         

 Vector   62  Occ=0.000000D+00  E= 1.179556D-01  Symmetry=e'
              MO Center= -9.3D-01,  7.7D-02,  2.6D-16, r^2= 9.3D+00
   Bfn.  Coefficient  Atom+Function         Bfn.  Coefficient  Atom+Function  
  ----- ------------  ---------------      ----- ------------  ---------------
   108      1.475753   7 C  px              149      1.307442  10 O  s         
   124     -0.796592   8 C  py              164     -0.755406  11 O  s         
    93      0.639534   6 C  px              134     -0.552036   9 O  s         
   123      0.452810   8 C  px               33      0.431224   2 C  px        
    48      0.431224   3 C  px              109     -0.421606   7 C  py        

 Vector   63  Occ=0.000000D+00  E= 1.179556D-01  Symmetry=e'
              MO Center=  9.3D-01, -7.7D-02, -3.5D-16, r^2= 9.3D+00
   Bfn.  Coefficient  Atom+Function         Bfn.  Coefficient  Atom+Function  
  ----- ------------  ---------------      ----- ------------  ---------------
   124      1.259254   8 C  py              134     -1.190986   9 O  s         
    94      1.072531   6 C  py              164      1.073570  11 O  s         
    93      0.904397   6 C  px               34      0.431224   2 C  py        
    49      0.431224   3 C  py               89      0.359936   6 C  s         
   119     -0.324451   8 C  s               109      0.236312   7 C  py        

 Vector   64  Occ=0.000000D+00  E= 1.487230D-01  Symmetry=a1'
              MO Center= -5.4D-14, -2.9D-14, -1.4D-14, r^2= 8.9D+00
   Bfn.  Coefficient  Atom+Function         Bfn.  Coefficient  Atom+Function  
  ----- ------------  ---------------      ----- ------------  ---------------
    26      2.485502   1 Fe dzz              29     -1.794700   2 C  s         
    44     -1.794700   3 C  s                89      1.322724   6 C  s         
   104      1.322724   7 C  s               119      1.322724   8 C  s         
    21     -1.131387   1 Fe dxx              24     -1.131387   1 Fe dyy       
    35      1.037381   2 C  pz               50     -1.037381   3 C  pz        

 Vector   65  Occ=0.000000D+00  E= 1.896894D-01  Symmetry=e'
              MO Center=  5.2D-01, -4.3D-01, -3.3D-14, r^2= 6.6D+00
   Bfn.  Coefficient  Atom+Function         Bfn.  Coefficient  Atom+Function  
  ----- ------------  ---------------      ----- ------------  ---------------
   104      2.051790   7 C  s                22      1.996370   1 Fe dxy       
    12      1.706999   1 Fe px               89     -1.408262   6 C  s         
    21     -1.103004   1 Fe dxx              24      1.103004   1 Fe dyy       
   108      0.943814   7 C  px              119     -0.643528   8 C  s         
    93      0.558806   6 C  px              120      0.527339   8 C  px        

 Vector   66  Occ=0.000000D+00  E= 1.896894D-01  Symmetry=e'
              MO Center= -5.2D-01,  4.3D-01,  3.1D-15, r^2= 6.6D+00
   Bfn.  Coefficient  Atom+Function         Bfn.  Coefficient  Atom+Function  
  ----- ------------  ---------------      ----- ------------  ---------------
    22      2.206007   1 Fe dxy             119      1.997662   8 C  s         
    13      1.706999   1 Fe py               89     -1.556143   6 C  s         
    21      0.998185   1 Fe dxx              24     -0.998185   1 Fe dyy       
   124      0.923401   8 C  py               94      0.599633   6 C  py        
   106      0.541493   7 C  py              104     -0.441520   7 C  s         

 Vector   67  Occ=0.000000D+00  E= 2.219877D-01  Symmetry=a1'
              MO Center=  1.3D-14,  3.9D-14,  1.4D-14, r^2= 9.7D+00
   Bfn.  Coefficient  Atom+Function         Bfn.  Coefficient  Atom+Function  
  ----- ------------  ---------------      ----- ------------  ---------------
    89      0.999292   6 C  s               104      0.999292   7 C  s         
   119      0.999292   8 C  s               108     -0.920985   7 C  px        
   124     -0.920985   8 C  py              134     -0.911818   9 O  s         
   149     -0.911818  10 O  s               164     -0.911818  11 O  s         
    35     -0.759029   2 C  pz               50      0.759029   3 C  pz        

 Vector   68  Occ=0.000000D+00  E= 2.287513D-01  Symmetry=e"
              MO Center= -1.4D-01,  3.4D-01,  1.5D-14, r^2= 7.5D+00
   Bfn.  Coefficient  Atom+Function         Bfn.  Coefficient  Atom+Function  
  ----- ------------  ---------------      ----- ------------  ---------------
    23      5.411738   1 Fe dxz             110      1.669066   7 C  pz        
    95     -1.555691   6 C  pz               33     -1.413000   2 C  px        
    48      1.413000   3 C  px               25      1.102534   1 Fe dyz       
    34     -0.287871   2 C  py               49      0.287871   3 C  py        
   107     -0.279289   7 C  pz               17      0.266322   1 Fe dxz       

 Vector   69  Occ=0.000000D+00  E= 2.287513D-01  Symmetry=e"
              MO Center=  1.4D-01, -3.4D-01, -2.2D-14, r^2= 7.5D+00
   Bfn.  Coefficient  Atom+Function         Bfn.  Coefficient  Atom+Function  
  ----- ------------  ---------------      ----- ------------  ---------------
    25      5.411738   1 Fe dyz             125      1.861814   8 C  pz        
    34     -1.413000   2 C  py               49      1.413000   3 C  py        
    23     -1.102534   1 Fe dxz              95     -1.029093   6 C  pz        
   110     -0.832722   7 C  pz              122     -0.311542   8 C  pz        
    33      0.287871   2 C  px               48     -0.287871   3 C  px        

 Vector   70  Occ=0.000000D+00  E= 2.555461D-01  Symmetry=a1'
              MO Center=  4.8D-14,  2.7D-14,  1.2D-13, r^2= 9.3D+00
   Bfn.  Coefficient  Atom+Function         Bfn.  Coefficient  Atom+Function  
  ----- ------------  ---------------      ----- ------------  ---------------
     5      5.374397   1 Fe s                26     -2.507290   1 Fe dzz       
    21     -1.892011   1 Fe dxx              24     -1.892011   1 Fe dyy       
     4     -0.429773   1 Fe s                29      0.370890   2 C  s         
    44      0.370890   3 C  s                 3      0.344775   1 Fe s         
    35      0.331625   2 C  pz               50     -0.331625   3 C  pz        

 Vector   71  Occ=0.000000D+00  E= 2.587502D-01  Symmetry=e"
              MO Center=  2.3D-01,  3.6D-02,  1.5D-13, r^2= 6.2D+00
   Bfn.  Coefficient  Atom+Function         Bfn.  Coefficient  Atom+Function  
  ----- ------------  ---------------      ----- ------------  ---------------
    23      1.576177   1 Fe dxz              25     -0.799430   1 Fe dyz       
    30     -0.480909   2 C  px               45      0.480909   3 C  px        
   110      0.443735   7 C  pz              107      0.324352   7 C  pz        
   125     -0.302807   8 C  pz               33      0.276938   2 C  px        
    48     -0.276938   3 C  px               31      0.243915   2 C  py        

 Vector   72  Occ=0.000000D+00  E= 2.587502D-01  Symmetry=e"
              MO Center= -2.3D-01, -3.6D-02, -5.2D-16, r^2= 6.2D+00
   Bfn.  Coefficient  Atom+Function         Bfn.  Coefficient  Atom+Function  
  ----- ------------  ---------------      ----- ------------  ---------------
    25      1.576177   1 Fe dyz              23      0.799430   1 Fe dxz       
    31     -0.480909   2 C  py               46      0.480909   3 C  py        
    95     -0.431016   6 C  pz              125      0.337555   8 C  pz        
    92     -0.315055   6 C  pz               34      0.276938   2 C  py        
    49     -0.276938   3 C  py              122      0.246739   8 C  pz        

 Vector   73  Occ=0.000000D+00  E= 2.972091D-01  Symmetry=a2"
              MO Center= -1.8D-13,  1.2D-13, -3.2D-13, r^2= 1.1D+01
   Bfn.  Coefficient  Atom+Function         Bfn.  Coefficient  Atom+Function  
  ----- ------------  ---------------      ----- ------------  ---------------
    14      2.363077   1 Fe pz               35      1.458932   2 C  pz        
    50      1.458932   3 C  pz               59     -0.826294   4 O  s         
    74      0.826294   5 O  s                95     -0.743388   6 C  pz        
   110     -0.743388   7 C  pz              125     -0.743388   8 C  pz        
    29     -0.654776   2 C  s                44      0.654776   3 C  s         

 Vector   74  Occ=0.000000D+00  E= 2.990399D-01  Symmetry=e'
              MO Center= -1.9D-01,  4.9D-01, -1.5D-13, r^2= 8.7D+00
   Bfn.  Coefficient  Atom+Function         Bfn.  Coefficient  Atom+Function  
  ----- ------------  ---------------      ----- ------------  ---------------
    22      2.355582   1 Fe dxy              12     -1.730853   1 Fe px        
    94     -1.171778   6 C  py              123      1.058757   8 C  px        
   108     -0.947841   7 C  px              149     -0.865342  10 O  s         
   134      0.809151   9 O  s                21     -0.774442   1 Fe dxx       
    24      0.774442   1 Fe dyy             109      0.773276   7 C  py        

 Vector   75  Occ=0.000000D+00  E= 2.990399D-01  Symmetry=e'
              MO Center=  1.9D-01, -4.9D-01,  3.0D-14, r^2= 8.7D+00
   Bfn.  Coefficient  Atom+Function         Bfn.  Coefficient  Atom+Function  
  ----- ------------  ---------------      ----- ------------  ---------------
    13      1.730853   1 Fe py               22     -1.548885   1 Fe dxy       
   124      1.187199   8 C  py               21     -1.177791   1 Fe dxx       
    24      1.177791   1 Fe dyy              93      1.145241   6 C  px        
   164      0.966769  11 O  s               109     -0.819398   7 C  py        
   108     -0.799814   7 C  px               34     -0.762259   2 C  py        

 Vector   76  Occ=0.000000D+00  E= 3.324511D-01  Symmetry=a1'
              MO Center= -2.9D-15,  1.6D-14,  2.6D-13, r^2= 1.2D+01
   Bfn.  Coefficient  Atom+Function         Bfn.  Coefficient  Atom+Function  
  ----- ------------  ---------------      ----- ------------  ---------------
    29      4.738650   2 C  s                44      4.738650   3 C  s         
    26     -4.226123   1 Fe dzz               5     -1.569699   1 Fe s         
    59     -1.551373   4 O  s                74     -1.551373   5 O  s         
    21      1.172875   1 Fe dxx              24      1.172875   1 Fe dyy       
    65      0.910730   4 O  pz               80     -0.910730   5 O  pz        

 Vector   77  Occ=0.000000D+00  E= 3.339805D-01  Symmetry=a2'
              MO Center=  1.2D-14,  5.9D-15, -7.2D-29, r^2= 8.4D+00
   Bfn.  Coefficient  Atom+Function         Bfn.  Coefficient  Atom+Function  
  ----- ------------  ---------------      ----- ------------  ---------------
   109      0.816498   7 C  py              123     -0.816498   8 C  px        
    93      0.597718   6 C  px               94     -0.597718   6 C  py        
   106     -0.417356   7 C  py              120      0.417356   8 C  px        
    90     -0.305526   6 C  px               91      0.305526   6 C  py        
   108      0.218780   7 C  px              124     -0.218780   8 C  py        

 Vector   78  Occ=0.000000D+00  E= 3.447118D-01  Symmetry=e'
              MO Center=  2.9D-01,  6.6D-01, -4.9D-15, r^2= 7.2D+00
   Bfn.  Coefficient  Atom+Function         Bfn.  Coefficient  Atom+Function  
  ----- ------------  ---------------      ----- ------------  ---------------
    21      1.738023   1 Fe dxx              24     -1.738023   1 Fe dyy       
    93     -1.556057   6 C  px               94      1.414561   6 C  py        
    13     -1.244979   1 Fe py              109      1.227399   7 C  py        
    12      0.859102   1 Fe px              108      0.766225   7 C  px        
   124     -0.690176   8 C  py               22      0.637488   1 Fe dxy       

 Vector   79  Occ=0.000000D+00  E= 3.447118D-01  Symmetry=e'
              MO Center= -2.9D-01, -6.6D-01,  8.0D-15, r^2= 7.2D+00
   Bfn.  Coefficient  Atom+Function         Bfn.  Coefficient  Atom+Function  
  ----- ------------  ---------------      ----- ------------  ---------------
    22      3.476045   1 Fe dxy             123      1.991365   8 C  px        
   109      1.664115   7 C  py               12     -1.244979   1 Fe px        
    13     -0.859102   1 Fe py               94     -0.658167   6 C  py        
    33     -0.424144   2 C  px               48     -0.424144   3 C  px        
   124      0.340887   8 C  py               21     -0.318744   1 Fe dxx       

 Vector   80  Occ=0.000000D+00  E= 4.090757D-01  Symmetry=a2"
              MO Center=  9.3D-15, -6.1D-15, -4.9D-14, r^2= 5.7D+00
   Bfn.  Coefficient  Atom+Function         Bfn.  Coefficient  Atom+Function  
  ----- ------------  ---------------      ----- ------------  ---------------
    14      4.584113   1 Fe pz               29     -3.444963   2 C  s         
    44      3.444963   3 C  s                35      1.780867   2 C  pz        
    50      1.780867   3 C  pz               65     -0.558977   4 O  pz        
    80     -0.558977   5 O  pz               62     -0.344682   4 O  pz        
    77     -0.344682   5 O  pz               11      0.316402   1 Fe pz        

 Vector   81  Occ=0.000000D+00  E= 4.136103D-01  Symmetry=e'
              MO Center= -6.1D-02,  1.3D-01,  4.5D-15, r^2= 7.5D+00
   Bfn.  Coefficient  Atom+Function         Bfn.  Coefficient  Atom+Function  
  ----- ------------  ---------------      ----- ------------  ---------------
    22      5.594078   1 Fe dxy             104      4.874980   7 C  s         
    89     -4.365047   6 C  s                12      3.524082   1 Fe px        
   123      2.108654   8 C  px               21     -1.992176   1 Fe dxx       
    24      1.992176   1 Fe dyy              93      1.651887   6 C  px        
   108      1.401083   7 C  px              153     -0.725901  10 O  px        

 Vector   82  Occ=0.000000D+00  E= 4.136103D-01  Symmetry=e'
              MO Center=  6.1D-02, -1.3D-01,  6.0D-16, r^2= 7.5D+00
   Bfn.  Coefficient  Atom+Function         Bfn.  Coefficient  Atom+Function  
[...]
   Bfn.  Coefficient  Atom+Function         Bfn.  Coefficient  Atom+Function  
  ----- ------------  ---------------      ----- ------------  ---------------
    14      1.555949   1 Fe pz               29     -1.337963   2 C  s         
    44      1.337963   3 C  s               158     -1.142332  10 O  dxz       
   175     -1.142332  11 O  dyz             113     -0.971071   7 C  dxz       
   130     -0.971071   8 C  dyz             143      0.836245   9 O  dxz       
   145      0.836245   9 O  dyz              98      0.710873   6 C  dxz       

 Vector  156  Occ=0.000000D+00  E= 2.403708D+00  Symmetry=e"
              MO Center=  6.5D-01, -1.4D-01,  1.4D-12, r^2= 7.9D+00
   Bfn.  Coefficient  Atom+Function         Bfn.  Coefficient  Atom+Function  
  ----- ------------  ---------------      ----- ------------  ---------------
    70      1.028531   4 O  dyz              85      1.028531   5 O  dyz       
   175     -1.014982  11 O  dyz             130     -0.801487   8 C  dyz       
    40      0.774365   2 C  dyz              55      0.774365   3 C  dyz       
   143     -0.767831   9 O  dxz             145     -0.766002   9 O  dyz       
    25     -0.715668   1 Fe dyz              34      0.634083   2 C  py        

 Vector  157  Occ=0.000000D+00  E= 2.403708D+00  Symmetry=e"
              MO Center= -6.5D-01,  1.4D-01,  8.5D-17, r^2= 7.9D+00
   Bfn.  Coefficient  Atom+Function         Bfn.  Coefficient  Atom+Function  
  ----- ------------  ---------------      ----- ------------  ---------------
   158      1.191079  10 O  dxz              68     -1.028531   4 O  dxz       
    83     -1.028531   5 O  dxz             113      0.940514   7 C  dxz       
    38     -0.774365   2 C  dxz              53     -0.774365   3 C  dxz       
    23      0.715668   1 Fe dxz              33     -0.634083   2 C  px        
    48      0.634083   3 C  px              175     -0.624083  11 O  dyz       

 Vector  158  Occ=0.000000D+00  E= 2.438735D+00  Symmetry=e'
              MO Center=  4.2D-01,  6.9D-01, -1.4D-12, r^2= 7.7D+00
   Bfn.  Coefficient  Atom+Function         Bfn.  Coefficient  Atom+Function  
  ----- ------------  ---------------      ----- ------------  ---------------
   119      2.186350   8 C  s               104     -1.902217   7 C  s         
    21      1.304336   1 Fe dxx              24     -1.304336   1 Fe dyy       
    13      1.180009   1 Fe py               12     -0.926458   1 Fe px        
   141     -0.749911   9 O  dxx             144      0.739675   9 O  dyy       
    94      0.701517   6 C  py               99      0.650867   6 C  dyy       

 Vector  159  Occ=0.000000D+00  E= 2.438735D+00  Symmetry=e'
              MO Center= -4.2D-01, -6.9D-01, -2.4D-15, r^2= 7.7D+00
   Bfn.  Coefficient  Atom+Function         Bfn.  Coefficient  Atom+Function  
  ----- ------------  ---------------      ----- ------------  ---------------
    22      2.608672   1 Fe dxy              89     -2.360535   6 C  s         
   104      1.426333   7 C  s               172     -1.281216  11 O  dxy       
    12      1.180009   1 Fe px              157     -1.171447  10 O  dxy       
   127     -1.039906   8 C  dxy             119      0.934202   8 C  s         
    13      0.926458   1 Fe py              112     -0.922123   7 C  dxy       

 Vector  160  Occ=0.000000D+00  E= 2.505996D+00  Symmetry=a1'
              MO Center=  1.7D-14,  1.2D-14, -3.9D-15, r^2= 8.9D+00
   Bfn.  Coefficient  Atom+Function         Bfn.  Coefficient  Atom+Function  
  ----- ------------  ---------------      ----- ------------  ---------------
     4      9.748862   1 Fe s                 5     -4.825723   1 Fe s         
    26      2.868865   1 Fe dzz              29     -2.470115   2 C  s         
    44     -2.470115   3 C  s                 3     -2.427470   1 Fe s         
    89     -2.193762   6 C  s               104     -2.193762   7 C  s         
   119     -2.193762   8 C  s                21      2.011949   1 Fe dxx       

 Vector  161  Occ=0.000000D+00  E= 2.543284D+00  Symmetry=a1'
              MO Center= -2.0D-12, -2.7D-12, -1.5D-12, r^2= 8.1D+00
   Bfn.  Coefficient  Atom+Function         Bfn.  Coefficient  Atom+Function  
  ----- ------------  ---------------      ----- ------------  ---------------
     4      7.204512   1 Fe s                 5     -3.479193   1 Fe s         
    26      3.044750   1 Fe dzz              29     -2.532928   2 C  s         
    44     -2.532928   3 C  s                 3     -1.760253   1 Fe s         
    89     -1.622931   6 C  s               104     -1.622931   7 C  s         
   119     -1.622931   8 C  s                21      1.252073   1 Fe dxx       

 Vector  162  Occ=0.000000D+00  E= 2.547399D+00  Symmetry=e'
              MO Center=  9.7D-01, -7.1D-01,  8.2D-17, r^2= 8.0D+00
   Bfn.  Coefficient  Atom+Function         Bfn.  Coefficient  Atom+Function  
  ----- ------------  ---------------      ----- ------------  ---------------
   164      1.913659  11 O  s               134     -1.542218   9 O  s         
   119     -1.460772   8 C  s                89      1.177236   6 C  s         
    13     -1.149439   1 Fe py              142     -1.118137   9 O  dxy       
   121      1.010689   8 C  py              129     -0.951597   8 C  dyy       
   169      0.945112  11 O  py               22     -0.855844   1 Fe dxy       

 Vector  163  Occ=0.000000D+00  E= 2.547399D+00  Symmetry=e'
              MO Center= -9.7D-01,  7.1D-01, -8.4D-17, r^2= 8.0D+00
   Bfn.  Coefficient  Atom+Function         Bfn.  Coefficient  Atom+Function  
  ----- ------------  ---------------      ----- ------------  ---------------
   149      1.995251  10 O  s               104     -1.523055   7 C  s         
   134     -1.319303   9 O  s                12     -1.149439   1 Fe px        
   105      1.056006   7 C  px               89      1.007076   6 C  s         
   111     -1.010294   7 C  dxx             153      0.979707  10 O  px        
   142     -0.956519   9 O  dxy             156      0.872807  10 O  dxx       

 Vector  164  Occ=0.000000D+00  E= 2.575072D+00  Symmetry=a2"
              MO Center=  4.9D-16,  8.8D-16,  1.4D-12, r^2= 9.3D+00
   Bfn.  Coefficient  Atom+Function         Bfn.  Coefficient  Atom+Function  
  ----- ------------  ---------------      ----- ------------  ---------------
    14      2.454259   1 Fe pz               29     -1.912071   2 C  s         
    44      1.912071   3 C  s                59      1.710064   4 O  s         
    74     -1.710064   5 O  s                65     -1.041616   4 O  pz        
    80     -1.041616   5 O  pz               41     -1.030530   2 C  dzz       
    56      1.030530   3 C  dzz              32     -0.965897   2 C  pz        

 Vector  165  Occ=0.000000D+00  E= 2.657922D+00  Symmetry=a1'
              MO Center=  1.4D-14,  2.3D-14,  1.8D-14, r^2= 8.5D+00
   Bfn.  Coefficient  Atom+Function         Bfn.  Coefficient  Atom+Function  
  ----- ------------  ---------------      ----- ------------  ---------------
     4      5.670900   1 Fe s                29     -1.652280   2 C  s         
    44     -1.652280   3 C  s                89     -1.547578   6 C  s         
   104     -1.547578   7 C  s               119     -1.547578   8 C  s         
     3     -1.363669   1 Fe s                 5     -1.267415   1 Fe s         
    59      0.882057   4 O  s                74      0.882057   5 O  s         

 Vector  166  Occ=0.000000D+00  E= 2.947148D+00  Symmetry=e'
              MO Center=  6.5D-01,  7.3D-01,  3.9D-16, r^2= 4.4D+00
   Bfn.  Coefficient  Atom+Function         Bfn.  Coefficient  Atom+Function  
  ----- ------------  ---------------      ----- ------------  ---------------
    89      2.856897   6 C  s               104     -1.495890   7 C  s         
   119     -1.361007   8 C  s                88      1.350138   6 C  s         
    96     -1.247714   6 C  dxx              99     -1.245667   6 C  dyy       
   101     -1.170140   6 C  dzz              93     -0.832045   6 C  px        
    94     -0.834193   6 C  py               12     -0.717856   1 Fe px        

 Vector  167  Occ=0.000000D+00  E= 2.947148D+00  Symmetry=e'
              MO Center= -6.5D-01, -7.3D-01,  3.1D-16, r^2= 4.4D+00
   Bfn.  Coefficient  Atom+Function         Bfn.  Coefficient  Atom+Function  
  ----- ------------  ---------------      ----- ------------  ---------------
   119     -2.513083   8 C  s               104      2.435208   7 C  s         
   118     -1.187655   8 C  s               103      1.150852   7 C  s         
   129      1.119546   8 C  dyy             111     -1.083690   7 C  dxx       
   126      1.073768   8 C  dxx             114     -1.041658   7 C  dyy       
   131      1.029319   8 C  dzz             124     -1.007973   8 C  py        

 Vector  168  Occ=0.000000D+00  E= 2.977104D+00  Symmetry=a2"
              MO Center= -4.1D-16, -5.3D-16,  3.0D-14, r^2= 5.4D+00
   Bfn.  Coefficient  Atom+Function         Bfn.  Coefficient  Atom+Function  
  ----- ------------  ---------------      ----- ------------  ---------------
    29      3.628640   2 C  s                44     -3.628640   3 C  s         
    14     -1.791055   1 Fe pz               35     -1.186692   2 C  pz        
    50     -1.186692   3 C  pz               36     -1.105265   2 C  dxx       
    39     -1.105265   2 C  dyy              51      1.105265   3 C  dxx       
    54      1.105265   3 C  dyy              28      1.071713   2 C  s         

 Vector  169  Occ=0.000000D+00  E= 3.161255D+00  Symmetry=a1'
              MO Center= -1.6D-14,  2.5D-14,  4.2D-15, r^2= 5.7D+00
   Bfn.  Coefficient  Atom+Function         Bfn.  Coefficient  Atom+Function  
  ----- ------------  ---------------      ----- ------------  ---------------
     4      5.088965   1 Fe s                89     -4.359231   6 C  s         
   104     -4.359231   7 C  s               119     -4.359231   8 C  s         
     5     -3.248294   1 Fe s                29      3.047529   2 C  s         
    44      3.047529   3 C  s                21      2.343049   1 Fe dxx       
    24      2.343049   1 Fe dyy             108     -1.559445   7 C  px        

 Vector  170  Occ=0.000000D+00  E= 3.362967D+00  Symmetry=a1'
              MO Center=  1.4D-13,  8.6D-14, -1.3D-14, r^2= 5.6D+00
   Bfn.  Coefficient  Atom+Function         Bfn.  Coefficient  Atom+Function  
  ----- ------------  ---------------      ----- ------------  ---------------
     4      9.071575   1 Fe s                 5     -6.808829   1 Fe s         
    26      6.587665   1 Fe dzz              29     -6.365165   2 C  s         
    44     -6.365165   3 C  s                89     -3.282029   6 C  s         
   104     -3.282029   7 C  s               119     -3.282029   8 C  s         
    21      3.246576   1 Fe dxx              24      3.246576   1 Fe dyy       

 Vector  171  Occ=0.000000D+00  E= 4.095744D+00  Symmetry=e'
              MO Center=  1.4D+00,  6.5D-01, -1.2D-16, r^2= 8.2D+00
   Bfn.  Coefficient  Atom+Function         Bfn.  Coefficient  Atom+Function  
  ----- ------------  ---------------      ----- ------------  ---------------
   134      5.152593   9 O  s               164     -3.357336  11 O  s         
   149     -1.795257  10 O  s               141     -1.636415   9 O  dxx       
   144     -1.628842   9 O  dyy             146     -1.585776   9 O  dzz       
    89     -1.124957   6 C  s               174      1.079754  11 O  dyy       
    93     -1.074341   6 C  px              171      1.047828  11 O  dxx       

 Vector  172  Occ=0.000000D+00  E= 4.095744D+00  Symmetry=e'
              MO Center= -1.4D+00, -6.5D-01, -1.1D-17, r^2= 8.2D+00
   Bfn.  Coefficient  Atom+Function         Bfn.  Coefficient  Atom+Function  
  ----- ------------  ---------------      ----- ------------  ---------------
   149      4.913210  10 O  s               164     -4.011343  11 O  s         
   156     -1.596231  10 O  dxx             159     -1.517326  10 O  dyy       
   161     -1.512102  10 O  dzz             108      1.378351   7 C  px        
   174      1.307199  11 O  dyy             171      1.234836  11 O  dxx       
   176      1.234542  11 O  dzz             124     -1.153490   8 C  py        

 Vector  173  Occ=0.000000D+00  E= 4.123976D+00  Symmetry=a2"
              MO Center= -7.7D-17, -8.0D-17, -9.0D-15, r^2= 1.0D+01
   Bfn.  Coefficient  Atom+Function         Bfn.  Coefficient  Atom+Function  
  ----- ------------  ---------------      ----- ------------  ---------------
    59      4.687603   4 O  s                74     -4.687603   5 O  s         
    71     -1.475289   4 O  dzz              86      1.475289   5 O  dzz       
    29     -1.454954   2 C  s                44      1.454954   3 C  s         
    66     -1.430869   4 O  dxx              69     -1.430869   4 O  dyy       
    81      1.430869   5 O  dxx              84      1.430869   5 O  dyy       

 Vector  174  Occ=0.000000D+00  E= 4.203966D+00  Symmetry=a1'
              MO Center=  7.8D-14,  3.6D-13, -4.6D-15, r^2= 9.2D+00
   Bfn.  Coefficient  Atom+Function         Bfn.  Coefficient  Atom+Function  
  ----- ------------  ---------------      ----- ------------  ---------------
     4      9.571769   1 Fe s                 3     -4.336056   1 Fe s         
     5     -3.699532   1 Fe s               134     -3.524846   9 O  s         
   149     -3.524846  10 O  s               164     -3.524846  11 O  s         
   108     -2.108154   7 C  px              124     -2.108154   8 C  py        
    93      1.543276   6 C  px               94      1.543276   6 C  py        

 Vector  175  Occ=0.000000D+00  E= 4.323266D+00  Symmetry=a1'
              MO Center= -9.5D-14,  4.4D-14, -1.5D-14, r^2= 1.0D+01
   Bfn.  Coefficient  Atom+Function         Bfn.  Coefficient  Atom+Function  
  ----- ------------  ---------------      ----- ------------  ---------------
    59      5.123115   4 O  s                74      5.123115   5 O  s         
     4     -3.831256   1 Fe s                29     -3.510635   2 C  s         
    44     -3.510635   3 C  s                 3      2.393744   1 Fe s         
    26      2.349703   1 Fe dzz              89      1.787598   6 C  s         
   104      1.787598   7 C  s               119      1.787598   8 C  s         

 Vector  176  Occ=0.000000D+00  E= 5.125353D+00  Symmetry=a1'
              MO Center= -2.2D-15, -2.0D-14,  1.2D-14, r^2= 5.6D+00
   Bfn.  Coefficient  Atom+Function         Bfn.  Coefficient  Atom+Function  
  ----- ------------  ---------------      ----- ------------  ---------------
     3      7.637698   1 Fe s                 4     -5.791350   1 Fe s         
    20     -4.456251   1 Fe dzz              15     -4.417072   1 Fe dxx       
    18     -4.417072   1 Fe dyy               5     -3.545568   1 Fe s         
    29      2.996961   2 C  s                44      2.996961   3 C  s         
    59     -2.999829   4 O  s                74     -2.999829   5 O  s         


 center of mass
 --------------
 x =  -0.00000000 y =  -0.00000000 z =   0.00000000

 moments of inertia (a.u.)
 ------------------
        2255.012792094188           0.000000000000           0.000000000000
           0.000000000000        2255.012792094188           0.000000000000
           0.000000000000           0.000000000000        1950.260605202691

     Multipole analysis of the density
     ---------------------------------

     L   x y z        total         alpha         beta         nuclear
     -   - - -        -----         -----         ----         -------
     0   0 0 0     -0.000000    -48.000000    -48.000000     96.000000

     1   1 0 0     -0.000000     -0.000000     -0.000000     -0.000000
     1   0 1 0     -0.000000     -0.000000     -0.000000     -0.000000
     1   0 0 1     -0.000000     -0.000000     -0.000000      0.000000

     2   2 0 0    -53.630862   -270.658509   -270.658509    487.686157
     2   1 1 0      0.000000      0.000000      0.000000     -0.000000
     2   1 0 1      0.000000      0.000000      0.000000     -0.000000
     2   0 2 0    -53.630862   -270.658509   -270.658509    487.686157
     2   0 1 1      0.000000      0.000000      0.000000      0.000000
     2   0 0 2    -52.665989   -346.383181   -346.383181    640.100373


 Parallel integral file used     257 records with       0 large values


 Task  times  cpu:        3.2s     wall:        3.3s


                                NWChem Input Module
                                -------------------


 Summary of allocated global arrays
-----------------------------------
  No active global arrays



                         GA Statistics for process    0
                         ------------------------------

       create   destroy   get      put      acc     scatter   gather  read&inc
calls: 1695     1695     1.51e+05 8.58e+04 1.09e+05    0        0     1.93e+04 
number of processes/call 1.19e+00 1.09e+00 1.03e+00 0.00e+00 0.00e+00
bytes total:             8.09e+08 2.97e+08 4.40e+08 0.00e+00 0.00e+00 1.55e+05
bytes remote:            4.76e+08 1.73e+08 2.72e+08 0.00e+00 0.00e+00 0.00e+00
Max memory consumed for GA by this process: 2448160 bytes

MA_summarize_allocated_blocks: starting scan ...
MA_summarize_allocated_blocks: scan completed: 0 heap blocks, 0 stack blocks
MA usage statistics:

	allocation statistics:
					      heap	     stack
					      ----	     -----
	current number of blocks	         0	         0
	maximum number of blocks	        34	        69
	current total bytes		         0	         0
	maximum total bytes		  55925992	  32715224
	maximum total K-bytes		     55926	     32716
	maximum total M-bytes		        56	        33


                                     CITATION
                                     --------
                Please cite the following reference when publishing
                           results obtained with NWChem:

                 M. Valiev, E.J. Bylaska, N. Govind, K. Kowalski,
              T.P. Straatsma, H.J.J. van Dam, D. Wang, J. Nieplocha,
                        E. Apra, T.L. Windus, W.A. de Jong
                 "NWChem: a comprehensive and scalable open-source
                  solution for large scale molecular simulations"
                      Comput. Phys. Commun. 181, 1477 (2010)
                           doi:10.1016/j.cpc.2010.04.018

                                      AUTHORS
                                      -------
          E. Apra, E. J. Bylaska, W. A. de Jong, N. Govind, K. Kowalski,
       T. P. Straatsma, M. Valiev, H. J. J. van Dam, D. Wang, T. L. Windus,
        J. Hammond, J. Autschbach, K. Bhaskaran-Nair, J. Brabec, K. Lopata,
    S. A. Fischer, S. Krishnamoorthy, M. Jacquelin, W. Ma, M. Klemm, O. Villa,
      Y. Chen, V. Anisimov, F. Aquino, S. Hirata, M. T. Hackler, V. Konjkov,
            D. Mejia-Rodriguez, T. Risthaus, M. Malagoli, A. Marenich,
   A. Otero-de-la-Roza, J. Mullin, P. Nichols, R. Peverati, J. Pittner, Y. Zhao,
        P.-D. Fan, A. Fonari, M. J. Williamson, R. J. Harrison, J. R. Rehr,
      M. Dupuis, D. Silverstein, D. M. A. Smith, J. Nieplocha, V. Tipparaju,
    M. Krishnan, B. E. Van Kuiken, A. Vazquez-Mayagoitia, L. Jensen, M. Swart,
      Q. Wu, T. Van Voorhis, A. A. Auer, M. Nooijen, L. D. Crosby, E. Brown,
      G. Cisneros, G. I. Fann, H. Fruchtl, J. Garza, K. Hirao, R. A. Kendall,
      J. A. Nichols, K. Tsemekhman, K. Wolinski, J. Anchell, D. E. Bernholdt,
      P. Borowski, T. Clark, D. Clerc, H. Dachsel, M. J. O. Deegan, K. Dyall,
    D. Elwood, E. Glendening, M. Gutowski, A. C. Hess, J. Jaffe, B. G. Johnson,
     J. Ju, R. Kobayashi, R. Kutteh, Z. Lin, R. Littlefield, X. Long, B. Meng,
      T. Nakajima, S. Niu, L. Pollack, M. Rosing, K. Glaesemann, G. Sandrone,
      M. Stave, H. Taylor, G. Thomas, J. H. van Lenthe, A. T. Wong, Z. Zhang.

 Total times  cpu:       12.2s     wall:       12.6s
[0] ARMCI Warning: Freed 1 leaked allocations
