 argument  1 = /home/list1234/source/nwchem-6.8.1-release/QA/tests/dft_meta/dft_meta.nw



============================== echo of input deck ==============================
start dft_meta
title "Methane Molecule META GGA XC"
echo

geometry units au
    c   0.0000000        0.0000000        0.0000000
    h   1.177225798      1.177225798      1.177225798
    symmetry group Td
end


basis
  C  library  6-311++G(3df,3pd)
  H  library  6-311++G(3df,3pd)
end
driver;clear ;end

dft
 grid xfine
 xc xtpss03 ctpss03
 decomp
 convergence energy 1d-9
 print low
end
task dft optimize


driver;clear ;end
dft
 xc xpkzb99 cpkzb99
end

task dft optimize
================================================================================


                                         
                                         


              Northwest Computational Chemistry Package (NWChem) 6.8
              ------------------------------------------------------


                    Environmental Molecular Sciences Laboratory
                       Pacific Northwest National Laboratory
                                Richland, WA 99352

                              Copyright (c) 1994-2018
                       Pacific Northwest National Laboratory
                            Battelle Memorial Institute

             NWChem is an open-source computational chemistry package
                        distributed under the terms of the
                      Educational Community License (ECL) 2.0
             A copy of the license is included with this distribution
                              in the LICENSE.TXT file

                                  ACKNOWLEDGMENT
                                  --------------

            This software and its documentation were developed at the
            EMSL at Pacific Northwest National Laboratory, a multiprogram
            national laboratory, operated for the U.S. Department of Energy
            by Battelle under Contract Number DE-AC05-76RL01830. Support
            for this work was provided by the Department of Energy Office
            of Biological and Environmental Research, Office of Basic
            Energy Sciences, and the Office of Advanced Scientific Computing.


           Job information
           ---------------

    hostname        = list1234-B360M-H
    program         = /home/list1234/source/nwchem-6.8.1-release/bin/LINUX64/nwchem
    date            = Sun Jun 30 12:42:19 2019

    compiled        = Sun_Jun_30_11:55:59_2019
    source          = /home/list1234/source/nwchem-6.8.1-release
    nwchem branch   = Development
    nwchem revision = N/A
    ga revision     = 5.6.5
    use scalapack   = T
    input           = /home/list1234/source/nwchem-6.8.1-release/QA/tests/dft_meta/dft_meta.nw
    prefix          = dft_meta.
    data base       = ./dft_meta.db
    status          = startup
    nproc           =        4
    time left       =     -1s



           Memory information
           ------------------

    heap     =   86247162 doubles =    658.0 Mbytes
    stack    =   86247167 doubles =    658.0 Mbytes
    global   =  172494336 doubles =   1316.0 Mbytes (distinct from heap & stack)
    total    =  344988665 doubles =   2632.1 Mbytes
    verify   = yes
    hardfail = no 


           Directory information
           ---------------------

  0 permanent = .
  0 scratch   = .




                                NWChem Input Module
                                -------------------


                           Methane Molecule META GGA XC
                           ----------------------------
 Turning off AUTOSYM since
 SYMMETRY directive was detected!


          ------
          auto-z
          ------
  Looking for out-of-plane bends
  no constraints, skipping    0.0000000000000000     
  no constraints, skipping    0.0000000000000000     


                             Geometry "geometry" -> ""
                             -------------------------

 Output coordinates in a.u. (scale by  1.000000000 to convert to a.u.)

  No.       Tag          Charge          X              Y              Z
 ---- ---------------- ---------- -------------- -------------- --------------
    1 c                    6.0000     0.00000000     0.00000000     0.00000000
    2 h                    1.0000     1.17722580     1.17722580     1.17722580
    3 h                    1.0000    -1.17722580    -1.17722580     1.17722580
    4 h                    1.0000    -1.17722580     1.17722580    -1.17722580
    5 h                    1.0000     1.17722580    -1.17722580    -1.17722580

      Atomic Mass 
      ----------- 

      c                 12.000000
      h                  1.007825


 Effective nuclear repulsion energy (a.u.)      13.5723553045

            Nuclear Dipole moment (a.u.) 
            ----------------------------
        X                 Y               Z
 ---------------- ---------------- ----------------
     0.0000000000     0.0000000000     0.0000000000

      Symmetry information
      --------------------

 Group name              Td       
 Group number             42
 Group order              24
 No. of unique centers     2

      Symmetry unique atoms

     1    2



                                Z-matrix (autoz)
                                -------- 

 Units are Angstrom for bonds and degrees for angles

      Type          Name      I     J     K     L     M      Value
      ----------- --------  ----- ----- ----- ----- ----- ----------
    1 Stretch                  1     2                       1.07900
    2 Stretch                  1     3                       1.07900
    3 Stretch                  1     4                       1.07900
    4 Stretch                  1     5                       1.07900
    5 Bend                     2     1     3               109.47122
    6 Bend                     2     1     4               109.47122
    7 Bend                     2     1     5               109.47122
    8 Bend                     3     1     4               109.47122
    9 Bend                     3     1     5               109.47122
   10 Bend                     4     1     5               109.47122


            XYZ format geometry
            -------------------
     5
 geometry
 c                     0.00000000     0.00000000     0.00000000
 h                     0.62296111     0.62296111     0.62296111
 h                    -0.62296111    -0.62296111     0.62296111
 h                    -0.62296111     0.62296111    -0.62296111
 h                     0.62296111    -0.62296111    -0.62296111

 ==============================================================================
                                internuclear distances
 ------------------------------------------------------------------------------
       center one      |      center two      | atomic units |       a.u.
 ------------------------------------------------------------------------------
    2 h                |   1 c                |     2.03901  |     2.03901
    3 h                |   1 c                |     2.03901  |     2.03901
    4 h                |   1 c                |     2.03901  |     2.03901
    5 h                |   1 c                |     2.03901  |     2.03901
 ------------------------------------------------------------------------------
                         number of included internuclear distances:          4
 ==============================================================================



 ==============================================================================
                                 internuclear angles
 ------------------------------------------------------------------------------
        center 1       |       center 2       |       center 3       |  degrees
 ------------------------------------------------------------------------------
    2 h                |   1 c                |   3 h                |   109.47
    2 h                |   1 c                |   4 h                |   109.47
    2 h                |   1 c                |   5 h                |   109.47
    3 h                |   1 c                |   4 h                |   109.47
    3 h                |   1 c                |   5 h                |   109.47
    4 h                |   1 c                |   5 h                |   109.47
 ------------------------------------------------------------------------------
                            number of included internuclear angles:          6
 ==============================================================================



                      Basis "ao basis" -> "" (cartesian)
                      -----
  C (Carbon)
  ----------
            Exponent  Coefficients 
       -------------- ---------------------------------------------------------
  1 S  4.56324000E+03  0.001967
  1 S  6.82024000E+02  0.015231
  1 S  1.54973000E+02  0.076127
  1 S  4.44553000E+01  0.260801
  1 S  1.30290000E+01  0.616462
  1 S  1.82773000E+00  0.221006

  2 S  2.09642000E+01  0.114660
  2 S  4.80331000E+00  0.919999
  2 S  1.45933000E+00 -0.003031

  3 P  2.09642000E+01  0.040249
  3 P  4.80331000E+00  0.237594
  3 P  1.45933000E+00  0.815854

  4 S  4.83456000E-01  1.000000

  5 P  4.83456000E-01  1.000000

  6 S  1.45585000E-01  1.000000

  7 P  1.45585000E-01  1.000000

  8 S  4.38000000E-02  1.000000

  9 P  4.38000000E-02  1.000000

 10 D  2.50400000E+00  1.000000

 11 D  6.26000000E-01  1.000000

 12 D  1.56500000E-01  1.000000

 13 F  8.00000000E-01  1.000000

  H (Hydrogen)
  ------------
            Exponent  Coefficients 
       -------------- ---------------------------------------------------------
  1 S  3.38650000E+01  0.025494
  1 S  5.09479000E+00  0.190373
  1 S  1.15879000E+00  0.852161

  2 S  3.25840000E-01  1.000000

  3 S  1.02741000E-01  1.000000

  4 S  3.60000000E-02  1.000000

  5 P  3.00000000E+00  1.000000

  6 P  7.50000000E-01  1.000000

  7 P  1.87500000E-01  1.000000

  8 D  1.00000000E+00  1.000000



 Summary of "ao basis" -> "" (cartesian)
 ------------------------------------------------------------------------------
       Tag                 Description            Shells   Functions and Types
 ---------------- ------------------------------  ------  ---------------------
 C                     6-311++G(3df,3pd)            13       45   5s4p3d1f
 H                     6-311++G(3df,3pd)             8       19   4s3p1d



  Deleted DRIVER restart files 



                           NWChem Geometry Optimization
                           ----------------------------




                           Methane Molecule META GGA XC


  no constraints, skipping    0.0000000000000000     
 maximum gradient threshold         (gmax) =   0.000450
 rms gradient threshold             (grms) =   0.000300
 maximum cartesian step threshold   (xmax) =   0.001800
 rms cartesian step threshold       (xrms) =   0.001200
 fixed trust radius                (trust) =   0.300000
 maximum step size to saddle      (sadstp) =   0.100000
 energy precision                  (eprec) =   5.0D-06
 maximum number of steps          (nptopt) =   20
 initial hessian option           (inhess) =    0
 line search option               (linopt) =    1
 hessian update option            (modupd) =    1
 saddle point option              (modsad) =    0
 initial eigen-mode to follow     (moddir) =    0
 initial variable to follow       (vardir) =    0
 follow first negative mode     (firstneg) =    T
 apply conjugacy                    (opcg) =    F
 source of zmatrix                         =   autoz   


          -------------------
          Energy Minimization
          -------------------


 Names of Z-matrix variables 
    1              2              3              4              5         
    6              7              8              9             10         

 Variables with the same non-blank name are constrained to be equal


 Using diagonal initial Hessian 
 Scaling for Hessian diagonals: bonds = 1.00  angles = 0.25  torsions = 0.10

          --------
          Step   0
          --------


                         Geometry "geometry" -> "geometry"
                         ---------------------------------

 Output coordinates in a.u. (scale by  1.000000000 to convert to a.u.)

  No.       Tag          Charge          X              Y              Z
 ---- ---------------- ---------- -------------- -------------- --------------
    1 c                    6.0000     0.00000000     0.00000000     0.00000000
    2 h                    1.0000     1.17722580     1.17722580     1.17722580
    3 h                    1.0000    -1.17722580    -1.17722580     1.17722580
    4 h                    1.0000    -1.17722580     1.17722580    -1.17722580
    5 h                    1.0000     1.17722580    -1.17722580    -1.17722580

      Atomic Mass 
      ----------- 

      c                 12.000000
      h                  1.007825


 Effective nuclear repulsion energy (a.u.)      13.5723553045

            Nuclear Dipole moment (a.u.) 
            ----------------------------
        X                 Y               Z
 ---------------- ---------------- ----------------
     0.0000000000     0.0000000000     0.0000000000

      Symmetry information
      --------------------

 Group name              Td       
 Group number             42
 Group order              24
 No. of unique centers     2

      Symmetry unique atoms

     1    2


                                 NWChem DFT Module
                                 -----------------


                           Methane Molecule META GGA XC



  Caching 1-el integrals 
   Time after variat. SCF:      0.1
   Time prior to 1st pass:      0.1


         Total DFT energy =      -40.539855471280
      One electron energy =      -80.100856381369
           Coulomb energy =       32.926957787134
          Exchange energy =       -6.637731897123
       Correlation energy =       -0.300580284448
 Nuclear repulsion energy =       13.572355304526

 Numeric. integr. density =        9.999999995484

     Total iterative time =      1.0s



                  Occupations of the irreducible representations
                  ----------------------------------------------

                     irrep           alpha         beta
                     --------     --------     --------
                     a1                2.0          2.0
                     a2                0.0          0.0
                     e                 0.0          0.0
                     t1                0.0          0.0
                     t2                3.0          3.0



                         DFT ENERGY GRADIENTS

    atom               coordinates                        gradient
                 x          y          z           x          y          z
   1 c       0.000000   0.000000   0.000000    0.000000   0.000000   0.000000
   2 h       1.177226   1.177226   1.177226   -0.004945  -0.004945  -0.004945
   3 h      -1.177226  -1.177226   1.177226    0.004945   0.004945  -0.004945
   4 h      -1.177226   1.177226  -1.177226    0.004945  -0.004945   0.004945
   5 h       1.177226  -1.177226  -1.177226   -0.004945   0.004945   0.004945

  no constraints, skipping    0.0000000000000000     

@ Step       Energy      Delta E   Gmax     Grms     Xrms     Xmax   Walltime
@ ---- ---------------- -------- -------- -------- -------- -------- --------
@    0     -40.53985547  0.0D+00  0.00857  0.00542  0.00000  0.00000      1.6
                                                                    



                                Z-matrix (autoz)
                                -------- 

 Units are Angstrom for bonds and degrees for angles

      Type          Name      I     J     K     L     M      Value     Gradient
      ----------- --------  ----- ----- ----- ----- ----- ---------- ----------
    1 Stretch                  1     2                       1.07900   -0.00857
    2 Stretch                  1     3                       1.07900   -0.00857
    3 Stretch                  1     4                       1.07900   -0.00857
    4 Stretch                  1     5                       1.07900   -0.00857
    5 Bend                     2     1     3               109.47122    0.00000
    6 Bend                     2     1     4               109.47122   -0.00000
    7 Bend                     2     1     5               109.47122    0.00000
    8 Bend                     3     1     4               109.47122    0.00000
    9 Bend                     3     1     5               109.47122   -0.00000
   10 Bend                     4     1     5               109.47122    0.00000

  no constraints, skipping    0.0000000000000000     
  no constraints, skipping    0.0000000000000000     
  no constraints, skipping    0.0000000000000000     

                                 NWChem DFT Module
                                 -----------------


                           Methane Molecule META GGA XC



  Caching 1-el integrals 
   Time after variat. SCF:      1.6
   Time prior to 1st pass:      1.6


         Total DFT energy =      -40.540265745339
      One electron energy =      -79.802759704397
           Coulomb energy =       32.769058340441
          Exchange energy =       -6.619855068160
       Correlation energy =       -0.299830798048
 Nuclear repulsion energy =       13.413121484824

 Numeric. integr. density =        9.999999994482

     Total iterative time =      0.8s



                  Occupations of the irreducible representations
                  ----------------------------------------------

                     irrep           alpha         beta
                     --------     --------     --------
                     a1                2.0          2.0
                     a2                0.0          0.0
                     e                 0.0          0.0
                     t1                0.0          0.0
                     t2                3.0          3.0

 Line search: 
     step= 1.00 grad=-8.3D-04 hess= 4.2D-04 energy=    -40.540266 mode=accept  
 new step= 1.00                   predicted energy=    -40.540266
  no constraints, skipping    0.0000000000000000     
  no constraints, skipping    0.0000000000000000     
  no constraints, skipping    0.0000000000000000     

          --------
          Step   1
          --------


                         Geometry "geometry" -> "geometry"
                         ---------------------------------

 Output coordinates in a.u. (scale by  1.000000000 to convert to a.u.)

  No.       Tag          Charge          X              Y              Z
 ---- ---------------- ---------- -------------- -------------- --------------
    1 c                    6.0000     0.00000000     0.00000000     0.00000000
    2 h                    1.0000     1.19120123     1.19120123     1.19120123
    3 h                    1.0000    -1.19120123    -1.19120123     1.19120123
    4 h                    1.0000    -1.19120123     1.19120123    -1.19120123
    5 h                    1.0000     1.19120123    -1.19120123    -1.19120123

      Atomic Mass 
      ----------- 

      c                 12.000000
      h                  1.007825


 Effective nuclear repulsion energy (a.u.)      13.4131214848

            Nuclear Dipole moment (a.u.) 
            ----------------------------
        X                 Y               Z
 ---------------- ---------------- ----------------
     0.0000000000     0.0000000000     0.0000000000

      Symmetry information
      --------------------

 Group name              Td       
 Group number             42
 Group order              24
 No. of unique centers     2

      Symmetry unique atoms

     1    2


                                 NWChem DFT Module
                                 -----------------


                           Methane Molecule META GGA XC




  The DFT is already converged 

         Total DFT energy =    -40.540265745339



                         DFT ENERGY GRADIENTS

    atom               coordinates                        gradient
                 x          y          z           x          y          z
   1 c       0.000000   0.000000   0.000000    0.000000   0.000000   0.000000
   2 h       1.191201   1.191201   1.191201   -0.000005  -0.000005  -0.000005
   3 h      -1.191201  -1.191201   1.191201    0.000005   0.000005  -0.000005
   4 h      -1.191201   1.191201  -1.191201    0.000005  -0.000005   0.000005
   5 h       1.191201  -1.191201  -1.191201   -0.000005   0.000005   0.000005

  no constraints, skipping    0.0000000000000000     

  Step       Energy      Delta E   Gmax     Grms     Xrms     Xmax   Walltime
  ---- ---------------- -------- -------- -------- -------- -------- --------
@    1     -40.54026575 -4.1D-04  0.00001  0.00001  0.01250  0.01398      3.0
                                     ok       ok                    



                                Z-matrix (autoz)
                                -------- 

 Units are Angstrom for bonds and degrees for angles

      Type          Name      I     J     K     L     M      Value     Gradient
      ----------- --------  ----- ----- ----- ----- ----- ---------- ----------
    1 Stretch                  1     2                       1.09181   -0.00001
    2 Stretch                  1     3                       1.09181   -0.00001
    3 Stretch                  1     4                       1.09181   -0.00001
    4 Stretch                  1     5                       1.09181   -0.00001
    5 Bend                     2     1     3               109.47122   -0.00000
    6 Bend                     2     1     4               109.47122    0.00000
    7 Bend                     2     1     5               109.47122    0.00000
    8 Bend                     3     1     4               109.47122    0.00000
    9 Bend                     3     1     5               109.47122    0.00000
   10 Bend                     4     1     5               109.47122   -0.00000

  no constraints, skipping    0.0000000000000000     
  no constraints, skipping    0.0000000000000000     
  no constraints, skipping    0.0000000000000000     

                                 NWChem DFT Module
                                 -----------------


                           Methane Molecule META GGA XC



  Caching 1-el integrals 
   Time after variat. SCF:      3.0
   Time prior to 1st pass:      3.0


         Total DFT energy =      -40.540265745814
      One electron energy =      -79.802394727517
           Coulomb energy =       32.768840876561
          Exchange energy =       -6.619830740089
       Correlation energy =       -0.299829694020
 Nuclear repulsion energy =       13.412948539251

 Numeric. integr. density =        9.999999994486

     Total iterative time =      0.4s



                  Occupations of the irreducible representations
                  ----------------------------------------------

                     irrep           alpha         beta
                     --------     --------     --------
                     a1                2.0          2.0
                     a2                0.0          0.0
                     e                 0.0          0.0
                     t1                0.0          0.0
                     t2                3.0          3.0

 Line search: 
     step= 1.00 grad=-1.0D-09 hess= 5.3D-10 energy=    -40.540266 mode=accept  
 new step= 1.00                   predicted energy=    -40.540266
  no constraints, skipping    0.0000000000000000     
  no constraints, skipping    0.0000000000000000     
  no constraints, skipping    0.0000000000000000     

          --------
          Step   2
          --------


                         Geometry "geometry" -> "geometry"
                         ---------------------------------

 Output coordinates in a.u. (scale by  1.000000000 to convert to a.u.)

  No.       Tag          Charge          X              Y              Z
 ---- ---------------- ---------- -------------- -------------- --------------
    1 c                    6.0000     0.00000000     0.00000000     0.00000000
    2 h                    1.0000     1.19121659     1.19121659     1.19121659
    3 h                    1.0000    -1.19121659    -1.19121659     1.19121659
    4 h                    1.0000    -1.19121659     1.19121659    -1.19121659
    5 h                    1.0000     1.19121659    -1.19121659    -1.19121659

      Atomic Mass 
      ----------- 

      c                 12.000000
      h                  1.007825


 Effective nuclear repulsion energy (a.u.)      13.4129485393

            Nuclear Dipole moment (a.u.) 
            ----------------------------
        X                 Y               Z
 ---------------- ---------------- ----------------
     0.0000000000     0.0000000000     0.0000000000

      Symmetry information
      --------------------

 Group name              Td       
 Group number             42
 Group order              24
 No. of unique centers     2

      Symmetry unique atoms

     1    2


                                 NWChem DFT Module
                                 -----------------


                           Methane Molecule META GGA XC




  The DFT is already converged 

         Total DFT energy =    -40.540265745814



                         DFT ENERGY GRADIENTS

    atom               coordinates                        gradient
                 x          y          z           x          y          z
   1 c       0.000000   0.000000   0.000000    0.000000   0.000000   0.000000
   2 h       1.191217   1.191217   1.191217   -0.000000  -0.000000  -0.000000
   3 h      -1.191217  -1.191217   1.191217    0.000000   0.000000  -0.000000
   4 h      -1.191217   1.191217  -1.191217    0.000000  -0.000000   0.000000
   5 h       1.191217  -1.191217  -1.191217   -0.000000   0.000000   0.000000

  no constraints, skipping    0.0000000000000000     

  Step       Energy      Delta E   Gmax     Grms     Xrms     Xmax   Walltime
  ---- ---------------- -------- -------- -------- -------- -------- --------
@    2     -40.54026575 -4.8D-10  0.00000  0.00000  0.00001  0.00002      3.9
                                     ok       ok       ok       ok  



                                Z-matrix (autoz)
                                -------- 

 Units are Angstrom for bonds and degrees for angles

      Type          Name      I     J     K     L     M      Value     Gradient
      ----------- --------  ----- ----- ----- ----- ----- ---------- ----------
    1 Stretch                  1     2                       1.09182   -0.00000
    2 Stretch                  1     3                       1.09182   -0.00000
    3 Stretch                  1     4                       1.09182   -0.00000
    4 Stretch                  1     5                       1.09182   -0.00000
    5 Bend                     2     1     3               109.47122    0.00000
    6 Bend                     2     1     4               109.47122    0.00000
    7 Bend                     2     1     5               109.47122   -0.00000
    8 Bend                     3     1     4               109.47122   -0.00000
    9 Bend                     3     1     5               109.47122   -0.00000
   10 Bend                     4     1     5               109.47122    0.00000


      ----------------------
      Optimization converged
      ----------------------


  Step       Energy      Delta E   Gmax     Grms     Xrms     Xmax   Walltime
  ---- ---------------- -------- -------- -------- -------- -------- --------
@    2     -40.54026575 -4.8D-10  0.00000  0.00000  0.00001  0.00002      3.9
                                     ok       ok       ok       ok  



                                Z-matrix (autoz)
                                -------- 

 Units are Angstrom for bonds and degrees for angles

      Type          Name      I     J     K     L     M      Value     Gradient
      ----------- --------  ----- ----- ----- ----- ----- ---------- ----------
    1 Stretch                  1     2                       1.09182   -0.00000
    2 Stretch                  1     3                       1.09182   -0.00000
    3 Stretch                  1     4                       1.09182   -0.00000
    4 Stretch                  1     5                       1.09182   -0.00000
    5 Bend                     2     1     3               109.47122    0.00000
    6 Bend                     2     1     4               109.47122    0.00000
    7 Bend                     2     1     5               109.47122   -0.00000
    8 Bend                     3     1     4               109.47122   -0.00000
    9 Bend                     3     1     5               109.47122   -0.00000
   10 Bend                     4     1     5               109.47122    0.00000



                         Geometry "geometry" -> "geometry"
                         ---------------------------------

 Output coordinates in a.u. (scale by  1.000000000 to convert to a.u.)

  No.       Tag          Charge          X              Y              Z
 ---- ---------------- ---------- -------------- -------------- --------------
    1 c                    6.0000     0.00000000     0.00000000     0.00000000
    2 h                    1.0000     1.19121659     1.19121659     1.19121659
    3 h                    1.0000    -1.19121659    -1.19121659     1.19121659
    4 h                    1.0000    -1.19121659     1.19121659    -1.19121659
    5 h                    1.0000     1.19121659    -1.19121659    -1.19121659

      Atomic Mass 
      ----------- 

      c                 12.000000
      h                  1.007825


 Effective nuclear repulsion energy (a.u.)      13.4129485393

            Nuclear Dipole moment (a.u.) 
            ----------------------------
        X                 Y               Z
 ---------------- ---------------- ----------------
     0.0000000000     0.0000000000     0.0000000000

      Symmetry information
      --------------------

 Group name              Td       
 Group number             42
 Group order              24
 No. of unique centers     2

      Symmetry unique atoms

     1    2


                Final and change from initial internal coordinates
                --------------------------------------------------



                                Z-matrix (autoz)
                                -------- 

 Units are Angstrom for bonds and degrees for angles

      Type          Name      I     J     K     L     M      Value       Change
      ----------- --------  ----- ----- ----- ----- ----- ---------- ----------
    1 Stretch                  1     2                       1.09182    0.01282
    2 Stretch                  1     3                       1.09182    0.01282
    3 Stretch                  1     4                       1.09182    0.01282
    4 Stretch                  1     5                       1.09182    0.01282
    5 Bend                     2     1     3               109.47122    0.00000
    6 Bend                     2     1     4               109.47122    0.00000
    7 Bend                     2     1     5               109.47122    0.00000
    8 Bend                     3     1     4               109.47122    0.00000
    9 Bend                     3     1     5               109.47122    0.00000
   10 Bend                     4     1     5               109.47122    0.00000

 ==============================================================================
                                internuclear distances
 ------------------------------------------------------------------------------
       center one      |      center two      | atomic units |       a.u.
 ------------------------------------------------------------------------------
    2 h                |   1 c                |     2.06325  |     2.06325
    3 h                |   1 c                |     2.06325  |     2.06325
    4 h                |   1 c                |     2.06325  |     2.06325
    5 h                |   1 c                |     2.06325  |     2.06325
 ------------------------------------------------------------------------------
                         number of included internuclear distances:          4
 ==============================================================================



 ==============================================================================
                                 internuclear angles
 ------------------------------------------------------------------------------
        center 1       |       center 2       |       center 3       |  degrees
 ------------------------------------------------------------------------------
    2 h                |   1 c                |   3 h                |   109.47
    2 h                |   1 c                |   4 h                |   109.47
    2 h                |   1 c                |   5 h                |   109.47
    3 h                |   1 c                |   4 h                |   109.47
    3 h                |   1 c                |   5 h                |   109.47
    4 h                |   1 c                |   5 h                |   109.47
 ------------------------------------------------------------------------------
                            number of included internuclear angles:          6
 ==============================================================================




 Task  times  cpu:        3.7s     wall:        3.9s


                                NWChem Input Module
                                -------------------



  Deleted DRIVER restart files 



                           NWChem Geometry Optimization
                           ----------------------------




                           Methane Molecule META GGA XC


  no constraints, skipping    0.0000000000000000     
 maximum gradient threshold         (gmax) =   0.000450
 rms gradient threshold             (grms) =   0.000300
 maximum cartesian step threshold   (xmax) =   0.001800
 rms cartesian step threshold       (xrms) =   0.001200
 fixed trust radius                (trust) =   0.300000
 maximum step size to saddle      (sadstp) =   0.100000
 energy precision                  (eprec) =   5.0D-06
 maximum number of steps          (nptopt) =   20
 initial hessian option           (inhess) =    0
 line search option               (linopt) =    1
 hessian update option            (modupd) =    1
 saddle point option              (modsad) =    0
 initial eigen-mode to follow     (moddir) =    0
 initial variable to follow       (vardir) =    0
 follow first negative mode     (firstneg) =    T
 apply conjugacy                    (opcg) =    F
 source of zmatrix                         =   autoz   


          -------------------
          Energy Minimization
          -------------------


 Names of Z-matrix variables 
    1              2              3              4              5         
    6              7              8              9             10         

 Variables with the same non-blank name are constrained to be equal


 Using diagonal initial Hessian 
 Scaling for Hessian diagonals: bonds = 1.00  angles = 0.25  torsions = 0.10

          --------
          Step   0
          --------


                         Geometry "geometry" -> "geometry"
                         ---------------------------------

 Output coordinates in a.u. (scale by  1.000000000 to convert to a.u.)

  No.       Tag          Charge          X              Y              Z
 ---- ---------------- ---------- -------------- -------------- --------------
    1 c                    6.0000     0.00000000     0.00000000     0.00000000
    2 h                    1.0000     1.19121659     1.19121659     1.19121659
    3 h                    1.0000    -1.19121659    -1.19121659     1.19121659
    4 h                    1.0000    -1.19121659     1.19121659    -1.19121659
    5 h                    1.0000     1.19121659    -1.19121659    -1.19121659

      Atomic Mass 
      ----------- 

      c                 12.000000
      h                  1.007825


 Effective nuclear repulsion energy (a.u.)      13.4129485393

            Nuclear Dipole moment (a.u.) 
            ----------------------------
        X                 Y               Z
 ---------------- ---------------- ----------------
     0.0000000000     0.0000000000     0.0000000000

      Symmetry information
      --------------------

 Group name              Td       
 Group number             42
 Group order              24
 No. of unique centers     2

      Symmetry unique atoms

     1    2


                                 NWChem DFT Module
                                 -----------------


                           Methane Molecule META GGA XC



  Caching 1-el integrals 
   Time after variat. SCF:      3.9
   Time prior to 1st pass:      3.9


         Total DFT energy =      -40.445914250179
      One electron energy =      -79.748142399171
           Coulomb energy =       32.704646390883
          Exchange energy =       -6.503489944873
       Correlation energy =       -0.311876836268
 Nuclear repulsion energy =       13.412948539251

 Numeric. integr. density =        9.999999994531

     Total iterative time =      0.8s



                  Occupations of the irreducible representations
                  ----------------------------------------------

                     irrep           alpha         beta
                     --------     --------     --------
                     a1                2.0          2.0
                     a2                0.0          0.0
                     e                 0.0          0.0
                     t1                0.0          0.0
                     t2                3.0          3.0



                         DFT ENERGY GRADIENTS

    atom               coordinates                        gradient
                 x          y          z           x          y          z
   1 c       0.000000   0.000000   0.000000    0.000000   0.000000   0.000000
   2 h       1.191217   1.191217   1.191217   -0.003291  -0.003291  -0.003291
   3 h      -1.191217  -1.191217   1.191217    0.003291   0.003291  -0.003291
   4 h      -1.191217   1.191217  -1.191217    0.003291  -0.003291   0.003291
   5 h       1.191217  -1.191217  -1.191217   -0.003291   0.003291   0.003291

  no constraints, skipping    0.0000000000000000     

@ Step       Energy      Delta E   Gmax     Grms     Xrms     Xmax   Walltime
@ ---- ---------------- -------- -------- -------- -------- -------- --------
@    0     -40.44591425  0.0D+00  0.00570  0.00361  0.00000  0.00000      5.3
                                                                    



                                Z-matrix (autoz)
                                -------- 

 Units are Angstrom for bonds and degrees for angles

      Type          Name      I     J     K     L     M      Value     Gradient
      ----------- --------  ----- ----- ----- ----- ----- ---------- ----------
    1 Stretch                  1     2                       1.09182   -0.00570
    2 Stretch                  1     3                       1.09182   -0.00570
    3 Stretch                  1     4                       1.09182   -0.00570
    4 Stretch                  1     5                       1.09182   -0.00570
    5 Bend                     2     1     3               109.47122    0.00000
    6 Bend                     2     1     4               109.47122   -0.00000
    7 Bend                     2     1     5               109.47122   -0.00000
    8 Bend                     3     1     4               109.47122   -0.00000
    9 Bend                     3     1     5               109.47122   -0.00000
   10 Bend                     4     1     5               109.47122    0.00000

  no constraints, skipping    0.0000000000000000     
  no constraints, skipping    0.0000000000000000     
  no constraints, skipping    0.0000000000000000     

                                 NWChem DFT Module
                                 -----------------


                           Methane Molecule META GGA XC



  Caching 1-el integrals 
   Time after variat. SCF:      5.3
   Time prior to 1st pass:      5.3


         Total DFT energy =      -40.446104730150
      One electron energy =      -79.547601341260
           Coulomb energy =       32.598350629500
          Exchange energy =       -6.491922358278
       Correlation energy =       -0.311363710981
 Nuclear repulsion energy =       13.306432050869

 Numeric. integr. density =        9.999999994908

     Total iterative time =      0.8s



                  Occupations of the irreducible representations
                  ----------------------------------------------

                     irrep           alpha         beta
                     --------     --------     --------
                     a1                2.0          2.0
                     a2                0.0          0.0
                     e                 0.0          0.0
                     t1                0.0          0.0
                     t2                3.0          3.0

 Line search: 
     step= 1.00 grad=-3.8D-04 hess= 1.9D-04 energy=    -40.446105 mode=accept  
 new step= 1.00                   predicted energy=    -40.446105
  no constraints, skipping    0.0000000000000000     
  no constraints, skipping    0.0000000000000000     
  no constraints, skipping    0.0000000000000000     

          --------
          Step   1
          --------


                         Geometry "geometry" -> "geometry"
                         ---------------------------------

 Output coordinates in a.u. (scale by  1.000000000 to convert to a.u.)

  No.       Tag          Charge          X              Y              Z
 ---- ---------------- ---------- -------------- -------------- --------------
    1 c                    6.0000     0.00000000     0.00000000     0.00000000
    2 h                    1.0000     1.20075214     1.20075214     1.20075214
    3 h                    1.0000    -1.20075214    -1.20075214     1.20075214
    4 h                    1.0000    -1.20075214     1.20075214    -1.20075214
    5 h                    1.0000     1.20075214    -1.20075214    -1.20075214

      Atomic Mass 
      ----------- 

      c                 12.000000
      h                  1.007825


 Effective nuclear repulsion energy (a.u.)      13.3064320509

            Nuclear Dipole moment (a.u.) 
            ----------------------------
        X                 Y               Z
 ---------------- ---------------- ----------------
     0.0000000000     0.0000000000     0.0000000000

      Symmetry information
      --------------------

 Group name              Td       
 Group number             42
 Group order              24
 No. of unique centers     2

      Symmetry unique atoms

     1    2


                                 NWChem DFT Module
                                 -----------------


                           Methane Molecule META GGA XC




  The DFT is already converged 

         Total DFT energy =    -40.446104730150



                         DFT ENERGY GRADIENTS

    atom               coordinates                        gradient
                 x          y          z           x          y          z
   1 c       0.000000   0.000000   0.000000    0.000000   0.000000   0.000000
   2 h       1.200752   1.200752   1.200752   -0.000064  -0.000064  -0.000064
   3 h      -1.200752  -1.200752   1.200752    0.000064   0.000064  -0.000064
   4 h      -1.200752   1.200752  -1.200752    0.000064  -0.000064   0.000064
   5 h       1.200752  -1.200752  -1.200752   -0.000064   0.000064   0.000064

  no constraints, skipping    0.0000000000000000     

  Step       Energy      Delta E   Gmax     Grms     Xrms     Xmax   Walltime
  ---- ---------------- -------- -------- -------- -------- -------- --------
@    1     -40.44610473 -1.9D-04  0.00011  0.00007  0.00853  0.00954      6.7
                                     ok       ok                    



                                Z-matrix (autoz)
                                -------- 

 Units are Angstrom for bonds and degrees for angles

      Type          Name      I     J     K     L     M      Value     Gradient
      ----------- --------  ----- ----- ----- ----- ----- ---------- ----------
    1 Stretch                  1     2                       1.10056   -0.00011
    2 Stretch                  1     3                       1.10056   -0.00011
    3 Stretch                  1     4                       1.10056   -0.00011
    4 Stretch                  1     5                       1.10056   -0.00011
    5 Bend                     2     1     3               109.47122    0.00000
    6 Bend                     2     1     4               109.47122    0.00000
    7 Bend                     2     1     5               109.47122   -0.00000
    8 Bend                     3     1     4               109.47122   -0.00000
    9 Bend                     3     1     5               109.47122    0.00000
   10 Bend                     4     1     5               109.47122    0.00000

  no constraints, skipping    0.0000000000000000     
  no constraints, skipping    0.0000000000000000     
  no constraints, skipping    0.0000000000000000     

                                 NWChem DFT Module
                                 -----------------


                           Methane Molecule META GGA XC



  Caching 1-el integrals 
   Time after variat. SCF:      6.7
   Time prior to 1st pass:      6.7


         Total DFT energy =      -40.446104804123
      One electron energy =      -79.543656169177
           Coulomb energy =       32.596258398661
          Exchange energy =       -6.491694889305
       Correlation energy =       -0.311353542352
 Nuclear repulsion energy =       13.304341398050

 Numeric. integr. density =        9.999999994782

     Total iterative time =      0.7s



                  Occupations of the irreducible representations
                  ----------------------------------------------

                     irrep           alpha         beta
                     --------     --------     --------
                     a1                2.0          2.0
                     a2                0.0          0.0
                     e                 0.0          0.0
                     t1                0.0          0.0
                     t2                3.0          3.0

 Line search: 
     step= 1.00 grad=-1.4D-07 hess= 7.1D-08 energy=    -40.446105 mode=accept  
 new step= 1.00                   predicted energy=    -40.446105
  no constraints, skipping    0.0000000000000000     
  no constraints, skipping    0.0000000000000000     
  no constraints, skipping    0.0000000000000000     

          --------
          Step   2
          --------


                         Geometry "geometry" -> "geometry"
                         ---------------------------------

 Output coordinates in a.u. (scale by  1.000000000 to convert to a.u.)

  No.       Tag          Charge          X              Y              Z
 ---- ---------------- ---------- -------------- -------------- --------------
    1 c                    6.0000     0.00000000     0.00000000     0.00000000
    2 h                    1.0000     1.20094083     1.20094083     1.20094083
    3 h                    1.0000    -1.20094083    -1.20094083     1.20094083
    4 h                    1.0000    -1.20094083     1.20094083    -1.20094083
    5 h                    1.0000     1.20094083    -1.20094083    -1.20094083

      Atomic Mass 
      ----------- 

      c                 12.000000
      h                  1.007825


 Effective nuclear repulsion energy (a.u.)      13.3043413980

            Nuclear Dipole moment (a.u.) 
            ----------------------------
        X                 Y               Z
 ---------------- ---------------- ----------------
     0.0000000000     0.0000000000     0.0000000000

      Symmetry information
      --------------------

 Group name              Td       
 Group number             42
 Group order              24
 No. of unique centers     2

      Symmetry unique atoms

     1    2


                                 NWChem DFT Module
                                 -----------------


                           Methane Molecule META GGA XC




  The DFT is already converged 

         Total DFT energy =    -40.446104804123



                         DFT ENERGY GRADIENTS

    atom               coordinates                        gradient
                 x          y          z           x          y          z
   1 c       0.000000   0.000000   0.000000    0.000000   0.000000   0.000000
   2 h       1.200941   1.200941   1.200941   -0.000002  -0.000002  -0.000002
   3 h      -1.200941  -1.200941   1.200941    0.000002   0.000002  -0.000002
   4 h      -1.200941   1.200941  -1.200941    0.000002  -0.000002   0.000002
   5 h       1.200941  -1.200941  -1.200941   -0.000002   0.000002   0.000002

  no constraints, skipping    0.0000000000000000     

  Step       Energy      Delta E   Gmax     Grms     Xrms     Xmax   Walltime
  ---- ---------------- -------- -------- -------- -------- -------- --------
@    2     -40.44610480 -7.4D-08  0.00000  0.00000  0.00017  0.00019      8.0
                                     ok       ok       ok       ok  



                                Z-matrix (autoz)
                                -------- 

 Units are Angstrom for bonds and degrees for angles

      Type          Name      I     J     K     L     M      Value     Gradient
      ----------- --------  ----- ----- ----- ----- ----- ---------- ----------
    1 Stretch                  1     2                       1.10074   -0.00000
    2 Stretch                  1     3                       1.10074   -0.00000
    3 Stretch                  1     4                       1.10074   -0.00000
    4 Stretch                  1     5                       1.10074   -0.00000
    5 Bend                     2     1     3               109.47122    0.00000
    6 Bend                     2     1     4               109.47122   -0.00000
    7 Bend                     2     1     5               109.47122   -0.00000
    8 Bend                     3     1     4               109.47122    0.00000
    9 Bend                     3     1     5               109.47122    0.00000
   10 Bend                     4     1     5               109.47122   -0.00000


      ----------------------
      Optimization converged
      ----------------------


  Step       Energy      Delta E   Gmax     Grms     Xrms     Xmax   Walltime
  ---- ---------------- -------- -------- -------- -------- -------- --------
@    2     -40.44610480 -7.4D-08  0.00000  0.00000  0.00017  0.00019      8.0
                                     ok       ok       ok       ok  



                                Z-matrix (autoz)
                                -------- 

 Units are Angstrom for bonds and degrees for angles

      Type          Name      I     J     K     L     M      Value     Gradient
      ----------- --------  ----- ----- ----- ----- ----- ---------- ----------
    1 Stretch                  1     2                       1.10074   -0.00000
    2 Stretch                  1     3                       1.10074   -0.00000
    3 Stretch                  1     4                       1.10074   -0.00000
    4 Stretch                  1     5                       1.10074   -0.00000
    5 Bend                     2     1     3               109.47122    0.00000
    6 Bend                     2     1     4               109.47122   -0.00000
    7 Bend                     2     1     5               109.47122   -0.00000
    8 Bend                     3     1     4               109.47122    0.00000
    9 Bend                     3     1     5               109.47122    0.00000
   10 Bend                     4     1     5               109.47122   -0.00000



                         Geometry "geometry" -> "geometry"
                         ---------------------------------

 Output coordinates in a.u. (scale by  1.000000000 to convert to a.u.)

  No.       Tag          Charge          X              Y              Z
 ---- ---------------- ---------- -------------- -------------- --------------
    1 c                    6.0000     0.00000000     0.00000000     0.00000000
    2 h                    1.0000     1.20094083     1.20094083     1.20094083
    3 h                    1.0000    -1.20094083    -1.20094083     1.20094083
    4 h                    1.0000    -1.20094083     1.20094083    -1.20094083
    5 h                    1.0000     1.20094083    -1.20094083    -1.20094083

      Atomic Mass 
      ----------- 

      c                 12.000000
      h                  1.007825


 Effective nuclear repulsion energy (a.u.)      13.3043413980

            Nuclear Dipole moment (a.u.) 
            ----------------------------
        X                 Y               Z
 ---------------- ---------------- ----------------
     0.0000000000     0.0000000000     0.0000000000

      Symmetry information
      --------------------

 Group name              Td       
 Group number             42
 Group order              24
 No. of unique centers     2

      Symmetry unique atoms

     1    2


                Final and change from initial internal coordinates
                --------------------------------------------------



                                Z-matrix (autoz)
                                -------- 

 Units are Angstrom for bonds and degrees for angles

      Type          Name      I     J     K     L     M      Value       Change
      ----------- --------  ----- ----- ----- ----- ----- ---------- ----------
    1 Stretch                  1     2                       1.10074    0.00891
    2 Stretch                  1     3                       1.10074    0.00891
    3 Stretch                  1     4                       1.10074    0.00891
    4 Stretch                  1     5                       1.10074    0.00891
    5 Bend                     2     1     3               109.47122    0.00000
    6 Bend                     2     1     4               109.47122    0.00000
    7 Bend                     2     1     5               109.47122    0.00000
    8 Bend                     3     1     4               109.47122    0.00000
    9 Bend                     3     1     5               109.47122    0.00000
   10 Bend                     4     1     5               109.47122    0.00000

 ==============================================================================
                                internuclear distances
 ------------------------------------------------------------------------------
       center one      |      center two      | atomic units |       a.u.
 ------------------------------------------------------------------------------
    2 h                |   1 c                |     2.08009  |     2.08009
    3 h                |   1 c                |     2.08009  |     2.08009
    4 h                |   1 c                |     2.08009  |     2.08009
    5 h                |   1 c                |     2.08009  |     2.08009
 ------------------------------------------------------------------------------
                         number of included internuclear distances:          4
 ==============================================================================



 ==============================================================================
                                 internuclear angles
 ------------------------------------------------------------------------------
        center 1       |       center 2       |       center 3       |  degrees
 ------------------------------------------------------------------------------
    2 h                |   1 c                |   3 h                |   109.47
    2 h                |   1 c                |   4 h                |   109.47
    2 h                |   1 c                |   5 h                |   109.47
    3 h                |   1 c                |   4 h                |   109.47
    3 h                |   1 c                |   5 h                |   109.47
    4 h                |   1 c                |   5 h                |   109.47
 ------------------------------------------------------------------------------
                            number of included internuclear angles:          6
 ==============================================================================




 Task  times  cpu:        3.9s     wall:        4.1s


                                NWChem Input Module
                                -------------------


 Summary of allocated global arrays
-----------------------------------
  No active global arrays



                         GA Statistics for process    0
                         ------------------------------

       create   destroy   get      put      acc     scatter   gather  read&inc
calls: 1176     1176     1.47e+05 9502     1.82e+04    0        0     1867     
number of processes/call 1.09e+00 1.30e+00 1.08e+00 0.00e+00 0.00e+00
bytes total:             2.28e+08 3.96e+07 1.56e+08 0.00e+00 0.00e+00 1.49e+04
bytes remote:            1.29e+08 1.42e+07 7.58e+07 0.00e+00 0.00e+00 0.00e+00
Max memory consumed for GA by this process: 1315600 bytes

MA_summarize_allocated_blocks: starting scan ...
MA_summarize_allocated_blocks: scan completed: 0 heap blocks, 0 stack blocks
MA usage statistics:

	allocation statistics:
					      heap	     stack
					      ----	     -----
	current number of blocks	         0	         0
	maximum number of blocks	        25	        57
	current total bytes		         0	         0
	maximum total bytes		   9599920	  42536664
	maximum total K-bytes		      9600	     42537
	maximum total M-bytes		        10	        43


                                     CITATION
                                     --------
                Please cite the following reference when publishing
                           results obtained with NWChem:

                 M. Valiev, E.J. Bylaska, N. Govind, K. Kowalski,
              T.P. Straatsma, H.J.J. van Dam, D. Wang, J. Nieplocha,
                        E. Apra, T.L. Windus, W.A. de Jong
                 "NWChem: a comprehensive and scalable open-source
                  solution for large scale molecular simulations"
                      Comput. Phys. Commun. 181, 1477 (2010)
                           doi:10.1016/j.cpc.2010.04.018

                                      AUTHORS
                                      -------
          E. Apra, E. J. Bylaska, W. A. de Jong, N. Govind, K. Kowalski,
       T. P. Straatsma, M. Valiev, H. J. J. van Dam, D. Wang, T. L. Windus,
        J. Hammond, J. Autschbach, K. Bhaskaran-Nair, J. Brabec, K. Lopata,
    S. A. Fischer, S. Krishnamoorthy, M. Jacquelin, W. Ma, M. Klemm, O. Villa,
      Y. Chen, V. Anisimov, F. Aquino, S. Hirata, M. T. Hackler, V. Konjkov,
            D. Mejia-Rodriguez, T. Risthaus, M. Malagoli, A. Marenich,
   A. Otero-de-la-Roza, J. Mullin, P. Nichols, R. Peverati, J. Pittner, Y. Zhao,
        P.-D. Fan, A. Fonari, M. J. Williamson, R. J. Harrison, J. R. Rehr,
      M. Dupuis, D. Silverstein, D. M. A. Smith, J. Nieplocha, V. Tipparaju,
    M. Krishnan, B. E. Van Kuiken, A. Vazquez-Mayagoitia, L. Jensen, M. Swart,
      Q. Wu, T. Van Voorhis, A. A. Auer, M. Nooijen, L. D. Crosby, E. Brown,
      G. Cisneros, G. I. Fann, H. Fruchtl, J. Garza, K. Hirao, R. A. Kendall,
      J. A. Nichols, K. Tsemekhman, K. Wolinski, J. Anchell, D. E. Bernholdt,
      P. Borowski, T. Clark, D. Clerc, H. Dachsel, M. J. O. Deegan, K. Dyall,
    D. Elwood, E. Glendening, M. Gutowski, A. C. Hess, J. Jaffe, B. G. Johnson,
     J. Ju, R. Kobayashi, R. Kutteh, Z. Lin, R. Littlefield, X. Long, B. Meng,
      T. Nakajima, S. Niu, L. Pollack, M. Rosing, K. Glaesemann, G. Sandrone,
      M. Stave, H. Taylor, G. Thomas, J. H. van Lenthe, A. T. Wong, Z. Zhang.

 Total times  cpu:        7.6s     wall:        8.0s
[0] ARMCI Warning: Freed 1 leaked allocations
