 argument  1 = /home/list1234/source/nwchem-6.8.1-release/QA/tests/dft_bsse_d3/dft_bsse_d3.nw



============================== echo of input deck ==============================
echo
start dft_bsse

charge 0


geometry  g0 autosym units angstrom
zmatrix
    H
    O    1 r2
    H    2 r3    1 a3
    O    3 r4    2 a4    1 d4
    H    4 r5    3 a5    2 d5
    H    4 r6    3 a6    2 d6
    variables
    r2 0.9637
    r3 0.8728
    a3  95.07
    r4 1.8441
    a4 172.11
    d4 179.97
    r5 0.9654
    a5 110.73
    d5  58.09
    r6 0.9654
    a6 110.73
    d6 301.91
end
end
geometry  g1 autosym units angstrom
zmatrix
    H
    O    1 r2
    H    2 r3    1 a3
    bqO  3 r4    2 a4    1 d4
    bqH  4 r5    3 a5    2 d5
    bqH  4 r6    3 a6    2 d6
    variables
    r2 0.9637
    r3 0.8728
    a3  95.07
    r4 1.8441
    a4 172.11
    d4 179.97
    r5 0.9654
    a5 110.73
    d5  58.09
    r6 0.9654
    a6 110.73
    d6 301.91
end
end
geometry  g2 autosym units angstrom
zmatrix
    H
    O    1 r2
    H    2 r3    1 a3
    bqO  3 r4    2 a4    1 d4
    XH  4 r5    3 a5    2 d5
    XH  4 r6    3 a6    2 d6
    variables
    r2 0.9637
    r3 0.8728
    a3  95.07
    r4 1.8441
    a4 172.11
    d4 179.97
    r5 0.9654
    a5 110.73
    d5  58.09
    r6 0.9654
    a6 110.73
    d6 301.91
end
end

basis "ao basis" spherical print
  H library "aug-cc-pVDZ"
  O library "aug-cc-pVDZ"
  bqH library H aug-cc-pVDZ
  bqO library O aug-cc-pVDZ
END

dft
  xc S12g
end

title "H2O"
set geometry g0
task dft

title "H2O with bqs"
set geometry g1
task dft


title "H2O with bqs and Xs"
set geometry g2
task dft

================================================================================


                                         
                                         


              Northwest Computational Chemistry Package (NWChem) 6.8
              ------------------------------------------------------


                    Environmental Molecular Sciences Laboratory
                       Pacific Northwest National Laboratory
                                Richland, WA 99352

                              Copyright (c) 1994-2018
                       Pacific Northwest National Laboratory
                            Battelle Memorial Institute

             NWChem is an open-source computational chemistry package
                        distributed under the terms of the
                      Educational Community License (ECL) 2.0
             A copy of the license is included with this distribution
                              in the LICENSE.TXT file

                                  ACKNOWLEDGMENT
                                  --------------

            This software and its documentation were developed at the
            EMSL at Pacific Northwest National Laboratory, a multiprogram
            national laboratory, operated for the U.S. Department of Energy
            by Battelle under Contract Number DE-AC05-76RL01830. Support
            for this work was provided by the Department of Energy Office
            of Biological and Environmental Research, Office of Basic
            Energy Sciences, and the Office of Advanced Scientific Computing.


           Job information
           ---------------

    hostname        = list1234-B360M-H
    program         = /home/list1234/source/nwchem-6.8.1-release/bin/LINUX64/nwchem
    date            = Sun Jun 30 12:40:43 2019

    compiled        = Sun_Jun_30_11:55:59_2019
    source          = /home/list1234/source/nwchem-6.8.1-release
    nwchem branch   = Development
    nwchem revision = N/A
    ga revision     = 5.6.5
    use scalapack   = T
    input           = /home/list1234/source/nwchem-6.8.1-release/QA/tests/dft_bsse_d3/dft_bsse_d3.nw
    prefix          = dft_bsse.
    data base       = ./dft_bsse.db
    status          = startup
    nproc           =        4
    time left       =     -1s



           Memory information
           ------------------

    heap     =   86247162 doubles =    658.0 Mbytes
    stack    =   86247167 doubles =    658.0 Mbytes
    global   =  172494336 doubles =   1316.0 Mbytes (distinct from heap & stack)
    total    =  344988665 doubles =   2632.1 Mbytes
    verify   = yes
    hardfail = no 


           Directory information
           ---------------------

  0 permanent = .
  0 scratch   = .




                                NWChem Input Module
                                -------------------



 Scaling coordinates for geometry "g0" by  1.889725989
 (inverse scale =  0.529177249)

 C1  symmetry detected


                                Geometry "g0" -> ""
                                -------------------

 Output coordinates in angstroms (scale by  1.889725989 to convert to a.u.)

  No.       Tag          Charge          X              Y              Z
 ---- ---------------- ---------- -------------- -------------- --------------
    1 H                    1.0000    -0.86762756    -1.64043024    -0.00558933
    2 O                    8.0000     0.07065619    -1.42064667     0.00044970
    3 H                    1.0000    -0.05251576    -0.55658197    -0.00039800
    4 O                    8.0000    -0.05969360     1.28750406    -0.00042521
    5 H                    1.0000     0.42156259     1.63108602    -0.76353797
    6 H                    1.0000     0.41087997     1.63106706     0.76932939

      Atomic Mass 
      ----------- 

      H                  1.007825
      O                 15.994910


 Effective nuclear repulsion energy (a.u.)      38.3461895394

            Nuclear Dipole moment (a.u.) 
            ----------------------------
        X                 Y               Z
 ---------------- ---------------- ----------------
     0.0000000000    -0.0000000000    -0.0000000000



                                Z-matrix (user)
                                -------- 

 Units are Angstrom for bonds and degrees for angles

      Type          Name      I     J     K     L     M      Value
      ----------- --------  ----- ----- ----- ----- ----- ----------
    1 Stretch      r2          2     1                       0.96370
    2 Stretch      r3          3     2                       0.87280
    3 Bend         a3          3     2     1                95.07000
    4 Stretch      r4          4     3                       1.84410
    5 Bend         a4          4     3     2               172.11000
    6 Torsion      d4          4     3     2     1         179.97000
    7 Stretch      r5          5     4                       0.96540
    8 Bend         a5          5     4     3               110.73000
    9 Torsion      d5          5     4     3     2          58.09000
   10 Stretch      r6          6     4                       0.96540
   11 Bend         a6          6     4     3               110.73000
   12 Torsion      d6          6     4     3     2         -58.09000


            XYZ format geometry
            -------------------
     6
 g0
 H                    -0.86762756    -1.64043024    -0.00558933
 O                     0.07065619    -1.42064667     0.00044970
 H                    -0.05251576    -0.55658197    -0.00039800
 O                    -0.05969360     1.28750406    -0.00042521
 H                     0.42156259     1.63108602    -0.76353797
 H                     0.41087997     1.63106706     0.76932939

 ==============================================================================
                                internuclear distances
 ------------------------------------------------------------------------------
       center one      |      center two      | atomic units |  angstroms
 ------------------------------------------------------------------------------
    2 O                |   1 H                |     1.82113  |     0.96370
    3 H                |   2 O                |     1.64935  |     0.87280
    5 H                |   4 O                |     1.82434  |     0.96540
    6 H                |   4 O                |     1.82434  |     0.96540
 ------------------------------------------------------------------------------
                         number of included internuclear distances:          4
 ==============================================================================



 ==============================================================================
                                 internuclear angles
 ------------------------------------------------------------------------------
        center 1       |       center 2       |       center 3       |  degrees
 ------------------------------------------------------------------------------
    1 H                |   2 O                |   3 H                |    95.07
    5 H                |   4 O                |   6 H                |   105.11
 ------------------------------------------------------------------------------
                            number of included internuclear angles:          2
 ==============================================================================




 Scaling coordinates for geometry "g1" by  1.889725989
 (inverse scale =  0.529177249)

 CS  symmetry detected


                               Geometry "g1" -> "  "
                               ---------------------

 Output coordinates in angstroms (scale by  1.889725989 to convert to a.u.)

  No.       Tag          Charge          X              Y              Z
 ---- ---------------- ---------- -------------- -------------- --------------
    1 H                    1.0000     0.79551152    -0.37472631     0.00000000
    2 O                    8.0000    -0.11263689    -0.05226149     0.00000000
    3 H                    1.0000     0.10558356     0.79281820     0.00000000
    4 bqO                  0.0000     0.31718423     2.62473794     0.00000000
    5 bqH                  0.0000    -0.11771335     3.01896139    -0.76645225
    6 bqH                  0.0000    -0.11771335     3.01896139     0.76645225

      Atomic Mass 
      ----------- 

      H                  1.007825
      O                 15.994910


 Effective nuclear repulsion energy (a.u.)       9.6334718543

            Nuclear Dipole moment (a.u.) 
            ----------------------------
        X                 Y               Z
 ---------------- ---------------- ----------------
     0.0000000000     0.0000000000     0.0000000000

      Symmetry information
      --------------------

 Group name             Cs        
 Group number              2
 Group order               2
 No. of unique centers     5

      Symmetry unique atoms

     1    2    3    4    5



                                Z-matrix (user)
                                -------- 

 Units are Angstrom for bonds and degrees for angles

      Type          Name      I     J     K     L     M      Value
      ----------- --------  ----- ----- ----- ----- ----- ----------
    1 Stretch      r2          2     1                       0.96370
    2 Stretch      r3          3     2                       0.87280
    3 Bend         a3          3     2     1                95.07001
    4 Stretch      r4          4     3                       1.84410
    5 Bend         a4          4     3     2               172.11000
    6 Torsion      d4          4     3     2     1         180.00000
    7 Stretch      r5          5     4                       0.96540
    8 Bend         a5          5     4     3               110.73000
    9 Torsion      d5          5     4     3     2         -58.09000
   10 Stretch      r6          6     4                       0.96540
   11 Bend         a6          6     4     3               110.73000
   12 Torsion      d6          6     4     3     2          58.09000


            XYZ format geometry
            -------------------
     6
 g1
 H                     0.79551152    -0.37472631     0.00000000
 O                    -0.11263689    -0.05226149     0.00000000
 H                     0.10558356     0.79281820     0.00000000
 bqO                   0.31718423     2.62473794     0.00000000
 bqH                  -0.11771335     3.01896139    -0.76645225
 bqH                  -0.11771335     3.01896139     0.76645225

 ==============================================================================
                                internuclear distances
 ------------------------------------------------------------------------------
       center one      |      center two      | atomic units |  angstroms
 ------------------------------------------------------------------------------
    2 O                |   1 H                |     1.82113  |     0.96370
    3 H                |   2 O                |     1.64935  |     0.87280
    4 bqO              |   2 O                |     5.12359  |     2.71129
    4 bqO              |   3 H                |     3.48484  |     1.84410
    5 bqH              |   3 H                |     4.46912  |     2.36496
    5 bqH              |   4 bqO              |     1.82434  |     0.96540
    6 bqH              |   3 H                |     4.46912  |     2.36496
    6 bqH              |   4 bqO              |     1.82434  |     0.96540
    6 bqH              |   5 bqH              |     2.89677  |     1.53290
 ------------------------------------------------------------------------------
                         number of included internuclear distances:          9
 ==============================================================================



 ==============================================================================
                                 internuclear angles
 ------------------------------------------------------------------------------
        center 1       |       center 2       |       center 3       |  degrees
 ------------------------------------------------------------------------------
    1 H                |   2 O                |   3 H                |    95.07
    1 H                |   2 O                |   4 bqO              |   100.43
    2 O                |   3 H                |   4 bqO              |   172.11
    2 O                |   3 H                |   4 bqO              |   172.11
    2 O                |   3 H                |   5 bqH              |   152.60
    2 O                |   3 H                |   6 bqH              |   152.60
    3 H                |   4 bqO              |   5 bqH              |   110.73
    3 H                |   4 bqO              |   6 bqH              |   110.73
    5 bqH              |   3 H                |   6 bqH              |    37.82
    4 bqO              |   3 H                |   2 O                |   172.11
    2 O                |   4 bqO              |   5 bqH              |   109.38
    2 O                |   4 bqO              |   6 bqH              |   109.38
    3 H                |   4 bqO              |   5 bqH              |   110.73
    3 H                |   4 bqO              |   6 bqH              |   110.73
    5 bqH              |   4 bqO              |   6 bqH              |   105.11
    5 bqH              |   4 bqO              |   3 H                |   110.73
    5 bqH              |   3 H                |   6 bqH              |    37.82
    5 bqH              |   4 bqO              |   6 bqH              |   105.11
    6 bqH              |   4 bqO              |   3 H                |   110.73
    6 bqH              |   3 H                |   5 bqH              |    37.82
    6 bqH              |   4 bqO              |   5 bqH              |   105.11
 ------------------------------------------------------------------------------
                            number of included internuclear angles:         21
 ==============================================================================




 Scaling coordinates for geometry "g2" by  1.889725989
 (inverse scale =  0.529177249)

 CS  symmetry detected


                               Geometry "g2" -> "  "
                               ---------------------

 Output coordinates in angstroms (scale by  1.889725989 to convert to a.u.)

  No.       Tag          Charge          X              Y              Z
 ---- ---------------- ---------- -------------- -------------- --------------
    1 H                    1.0000    -0.83416136    -0.27826910     0.00000000
    2 O                    8.0000     0.10568557    -0.06518357     0.00000000
    3 H                    1.0000    -0.01132321     0.79973769     0.00000000
    4 bqO                  0.0000    -0.00534794     2.64382800     0.00000000
    5 XH                   0.0000     0.47301688     2.98399720    -0.76645218
    6 XH                   0.0000     0.47301688     2.98399720     0.76645218

      Atomic Mass 
      ----------- 

      H                  1.007825
      O                 15.994910


 Effective nuclear repulsion energy (a.u.)       9.6334703631

            Nuclear Dipole moment (a.u.) 
            ----------------------------
        X                 Y               Z
 ---------------- ---------------- ----------------
     0.0000000000     0.0000000000     0.0000000000

      Symmetry information
      --------------------

 Group name             Cs        
 Group number              2
 Group order               2
 No. of unique centers     5

      Symmetry unique atoms

     1    2    3    4    5



                                Z-matrix (user)
                                -------- 

 Units are Angstrom for bonds and degrees for angles

      Type          Name      I     J     K     L     M      Value
      ----------- --------  ----- ----- ----- ----- ----- ----------
    1 Stretch      r2          2     1                       0.96370
    2 Stretch      r3          3     2                       0.87280
    3 Bend         a3          3     2     1                95.07000
    4 Stretch      r4          4     3                       1.84410
    5 Bend         a4          4     3     2               172.11000
    6 Torsion      d4          4     3     2     1         180.00000
    7 Stretch      r5          5     4                       0.96540
    8 Bend         a5          5     4     3               110.73000
    9 Torsion      d5          5     4     3     2          58.09000
   10 Stretch      r6          6     4                       0.96540
   11 Bend         a6          6     4     3               110.73000
   12 Torsion      d6          6     4     3     2         -58.09000


            XYZ format geometry
            -------------------
     6
 g2
 H                    -0.83416136    -0.27826910     0.00000000
 O                     0.10568557    -0.06518357     0.00000000
 H                    -0.01132321     0.79973769     0.00000000
 bqO                  -0.00534794     2.64382800     0.00000000
 XH                    0.47301688     2.98399720    -0.76645218
 XH                    0.47301688     2.98399720     0.76645218

 ==============================================================================
                                internuclear distances
 ------------------------------------------------------------------------------
       center one      |      center two      | atomic units |  angstroms
 ------------------------------------------------------------------------------
    2 O                |   1 H                |     1.82113  |     0.96370
    3 H                |   2 O                |     1.64935  |     0.87280
    4 bqO              |   2 O                |     5.12359  |     2.71129
    4 bqO              |   3 H                |     3.48484  |     1.84410
    5 XH               |   3 H                |     4.46912  |     2.36496
    5 XH               |   4 bqO              |     1.82434  |     0.96540
    6 XH               |   3 H                |     4.46912  |     2.36496
    6 XH               |   4 bqO              |     1.82434  |     0.96540
    6 XH               |   5 XH               |     2.89677  |     1.53290
 ------------------------------------------------------------------------------
                         number of included internuclear distances:          9
 ==============================================================================



 ==============================================================================
                                 internuclear angles
 ------------------------------------------------------------------------------
        center 1       |       center 2       |       center 3       |  degrees
 ------------------------------------------------------------------------------
    1 H                |   2 O                |   3 H                |    95.07
    1 H                |   2 O                |   4 bqO              |   100.43
    2 O                |   3 H                |   4 bqO              |   172.11
    2 O                |   3 H                |   4 bqO              |   172.11
    2 O                |   3 H                |   5 XH               |   152.60
    2 O                |   3 H                |   6 XH               |   152.60
    3 H                |   4 bqO              |   5 XH               |   110.73
    3 H                |   4 bqO              |   6 XH               |   110.73
    5 XH               |   3 H                |   6 XH               |    37.82
    4 bqO              |   3 H                |   2 O                |   172.11
    2 O                |   4 bqO              |   5 XH               |   109.38
    2 O                |   4 bqO              |   6 XH               |   109.38
    3 H                |   4 bqO              |   5 XH               |   110.73
    3 H                |   4 bqO              |   6 XH               |   110.73
    5 XH               |   4 bqO              |   6 XH               |   105.11
    5 XH               |   4 bqO              |   3 H                |   110.73
    5 XH               |   3 H                |   6 XH               |    37.82
    5 XH               |   4 bqO              |   6 XH               |   105.11
    6 XH               |   4 bqO              |   3 H                |   110.73
    6 XH               |   3 H                |   5 XH               |    37.82
    6 XH               |   4 bqO              |   5 XH               |   105.11
 ------------------------------------------------------------------------------
                            number of included internuclear angles:         21
 ==============================================================================



                      Basis "ao basis" -> "" (spherical)
                      -----
  H (Hydrogen)
  ------------
            Exponent  Coefficients 
       -------------- ---------------------------------------------------------
  1 S  1.30100000E+01  0.019685
  1 S  1.96200000E+00  0.137977
  1 S  4.44600000E-01  0.478148

  2 S  1.22000000E-01  1.000000

  3 S  2.97400000E-02  1.000000

  4 P  7.27000000E-01  1.000000

  5 P  1.41000000E-01  1.000000

  O (Oxygen)
  ----------
            Exponent  Coefficients 
       -------------- ---------------------------------------------------------
  1 S  1.17200000E+04  0.000710
  1 S  1.75900000E+03  0.005470
  1 S  4.00800000E+02  0.027837
  1 S  1.13700000E+02  0.104800
  1 S  3.70300000E+01  0.283062
  1 S  1.32700000E+01  0.448719
  1 S  5.02500000E+00  0.270952
  1 S  1.01300000E+00  0.015458

  2 S  1.17200000E+04 -0.000160
  2 S  1.75900000E+03 -0.001263
  2 S  4.00800000E+02 -0.006267
  2 S  1.13700000E+02 -0.025716
  2 S  3.70300000E+01 -0.070924
  2 S  1.32700000E+01 -0.165411
  2 S  5.02500000E+00 -0.116955
  2 S  1.01300000E+00  0.557368

  3 S  3.02300000E-01  1.000000

  4 S  7.89600000E-02  1.000000

  5 P  1.77000000E+01  0.043018
  5 P  3.85400000E+00  0.228913
  5 P  1.04600000E+00  0.508728

  6 P  2.75300000E-01  1.000000

  7 P  6.85600000E-02  1.000000

  8 D  1.18500000E+00  1.000000

  9 D  3.32000000E-01  1.000000

  bqH
  ---
            Exponent  Coefficients 
       -------------- ---------------------------------------------------------
  1 S  1.30100000E+01  0.019685
  1 S  1.96200000E+00  0.137977
  1 S  4.44600000E-01  0.478148

  2 S  1.22000000E-01  1.000000

  3 S  2.97400000E-02  1.000000

  4 P  7.27000000E-01  1.000000

  5 P  1.41000000E-01  1.000000

  bqO
  ---
            Exponent  Coefficients 
       -------------- ---------------------------------------------------------
  1 S  1.17200000E+04  0.000710
  1 S  1.75900000E+03  0.005470
  1 S  4.00800000E+02  0.027837
  1 S  1.13700000E+02  0.104800
  1 S  3.70300000E+01  0.283062
  1 S  1.32700000E+01  0.448719
  1 S  5.02500000E+00  0.270952
  1 S  1.01300000E+00  0.015458

  2 S  1.17200000E+04 -0.000160
  2 S  1.75900000E+03 -0.001263
  2 S  4.00800000E+02 -0.006267
  2 S  1.13700000E+02 -0.025716
  2 S  3.70300000E+01 -0.070924
  2 S  1.32700000E+01 -0.165411
  2 S  5.02500000E+00 -0.116955
  2 S  1.01300000E+00  0.557368

  3 S  3.02300000E-01  1.000000

  4 S  7.89600000E-02  1.000000

  5 P  1.77000000E+01  0.043018
  5 P  3.85400000E+00  0.228913
  5 P  1.04600000E+00  0.508728

  6 P  2.75300000E-01  1.000000

  7 P  6.85600000E-02  1.000000

  8 D  1.18500000E+00  1.000000

  9 D  3.32000000E-01  1.000000



 Summary of "ao basis" -> "" (spherical)
 ------------------------------------------------------------------------------
       Tag                 Description            Shells   Functions and Types
 ---------------- ------------------------------  ------  ---------------------
 H                        aug-cc-pVDZ                5        9   3s2p
 O                        aug-cc-pVDZ                9       23   4s3p2d
 bqH                      aug-cc-pVDZ                5        9   3s2p
 bqO                      aug-cc-pVDZ                9       23   4s3p2d


                                        H2O
                                        ---

                                 NWChem DFT Module
                                 -----------------


                                        H2O




 Summary of "ao basis" -> "ao basis" (spherical)
 ------------------------------------------------------------------------------
       Tag                 Description            Shells   Functions and Types
 ---------------- ------------------------------  ------  ---------------------
 H                        aug-cc-pVDZ                5        9   3s2p
 O                        aug-cc-pVDZ                9       23   4s3p2d
 bqH                      aug-cc-pVDZ                5        9   3s2p
 bqO                      aug-cc-pVDZ                9       23   4s3p2d


  Caching 1-el integrals 

            General Information
            -------------------
          SCF calculation type: DFT
          Wavefunction type:  closed shell.
          No. of atoms     :     6
          No. of electrons :    20
           Alpha electrons :    10
            Beta electrons :    10
          Charge           :     0
          Spin multiplicity:     1
          Use of symmetry is: off; symmetry adaption is: off
          Maximum number of iterations:  30
          AO basis - number of functions:    82
                     number of shells:    38
          Convergence on energy requested:  1.00D-06
          Convergence on density requested:  1.00D-05
          Convergence on gradient requested:  5.00D-04

              XC Information
              --------------
                         S12g Method XC Functional
                        Slater Exchange Functional  1.038 local    
                S12g(GGA-part) Exchange Functional  1.000 non-local
            Perdew 1991 LDA Correlation Functional  1.000 local    
           PerdewBurkeErnz. Correlation Functional  1.000 non-local

             Grid Information
             ----------------
          Grid used for XC integration:  medium    
          Radial quadrature: Mura-Knowles        
          Angular quadrature: Lebedev. 
          Tag              B.-S. Rad. Rad. Pts. Rad. Cut. Ang. Pts.
          ---              ---------- --------- --------- ---------
          H                   0.35       45          14.0       434
          O                   0.60       49          13.0       434
          Grid pruning is: on 
          Number of quadrature shells:   278
          Spatial weights used:  Erf1

          Convergence Information
          -----------------------
          Convergence aids based upon iterative change in 
          total energy or number of iterations. 
          Levelshifting, if invoked, occurs when the 
          HOMO/LUMO gap drops below (HL_TOL):  1.00D-02
          DIIS, if invoked, will attempt to extrapolate 
          using up to (NFOCK): 10 stored Fock matrices.

                    Damping( 0%)  Levelshifting(0.5)       DIIS
                  --------------- ------------------- ---------------
          dE  on:    start            ASAP                start   
          dE off:    2 iters         30 iters            30 iters 


      Screening Tolerance Information
      -------------------------------
          Density screening/tol_rho:  1.00D-10
          AO Gaussian exp screening on grid/accAOfunc:  14
          CD Gaussian exp screening on grid/accCDfunc:  20
          XC Gaussian exp screening on grid/accXCfunc:  20
          Schwarz screening/accCoul:  1.00D-08

      Dispersion Parameters
      ---------------------

             DFT-D3 Model   
          s8 scale factor  :        1.000000000000
          sr6 scale factor :        0.844325150000
          sr8 scale factor :        1.177559540000
              vdW contrib  :        1.000000000000


             DFT-D3 Model   
          s8 scale factor  :       -0.000918315788
          sr6 scale factor :

      Superposition of Atomic Density Guess
      -------------------------------------

 Sum of atomic energies:        -151.53096790

      Non-variational initial energy
      ------------------------------

 Total energy =    -151.995061
 1-e energy   =    -283.041596
 2-e energy   =      92.700345
 HOMO         =      -0.483094
 LUMO         =       0.003247

   Time after variat. SCF:      0.1
   Time prior to 1st pass:      0.1

 Integral file          = ./dft_bsse.aoints.0
 Record size in doubles =  65536        No. of integs per rec  =  43688
 Max. records in memory =     47        Max. records in file   = 161716
 No. of bits per label  =      8        No. of bits per value  =     64


 #quartets = 2.703D+05 #integrals = 5.492D+06 #direct =  0.0% #cached =100.0%


File balance: exchanges=     2  moved=     2  time=   0.0


 Grid_pts file          = ./dft_bsse.gridpts.0
 Record size in doubles =  12289        No. of grid_pts per rec  =   3070
 Max. records in memory =     12        Max. recs in file   =    862418


           Memory utilization after 1st SCF pass: 
           Heap Space remaining (MW):       83.01            83008242
          Stack Space remaining (MW):       86.25            86246564

   convergence    iter        energy       DeltaE   RMS-Dens  Diis-err    time
 ---------------- ----- ----------------- --------- --------- ---------  ------
 d= 0,ls=0.0,diis     1   -152.7803321915 -1.91D+02  1.50D-02  7.50D-01     0.4
 d= 0,ls=0.0,diis     2   -152.6650359817  1.15D-01  8.03D-03  2.01D+00     0.5
 d= 0,ls=0.0,diis     3   -152.8560732495 -1.91D-01  1.07D-03  3.62D-02     0.7
 d= 0,ls=0.0,diis     4   -152.8594547171 -3.38D-03  1.92D-04  8.23D-04     0.8
 d= 0,ls=0.0,diis     5   -152.8595077253 -5.30D-05  8.61D-05  2.73D-04     0.9
  Resetting Diis
 d= 0,ls=0.0,diis     6   -152.8595327395 -2.50D-05  1.16D-05  3.42D-06     1.1
 d= 0,ls=0.0,diis     7   -152.8595330518 -3.12D-07  4.09D-06  1.07D-07     1.2


         Total DFT energy =     -152.859533051812
      One electron energy =     -285.649696481660
           Coulomb energy =      113.123388887282
    Exchange-Corr. energy =      -18.678496681045
 Nuclear repulsion energy =       38.346189539398

    Dispersion correction =       -0.000918315788

 Numeric. integr. density =       19.999999222528

     Total iterative time =      1.1s



                       DFT Final Molecular Orbital Analysis
                       ------------------------------------

 Vector    1  Occ=2.000000D+00  E=-1.880818D+01
              MO Center= -6.0D-02,  1.3D+00, -4.2D-04, r^2= 1.5D-02
   Bfn.  Coefficient  Atom+Function         Bfn.  Coefficient  Atom+Function  
  ----- ------------  ---------------      ----- ------------  ---------------
    42      1.004618  4 O  s          

 Vector    2  Occ=2.000000D+00  E=-1.874591D+01
              MO Center=  7.1D-02, -1.4D+00,  4.5D-04, r^2= 1.5D-02
   Bfn.  Coefficient  Atom+Function         Bfn.  Coefficient  Atom+Function  
  ----- ------------  ---------------      ----- ------------  ---------------
    10      1.004991  2 O  s          

 Vector    3  Occ=2.000000D+00  E=-9.692963D-01
              MO Center=  9.1D-02,  1.3D+00,  6.3D-04, r^2= 7.9D-01
   Bfn.  Coefficient  Atom+Function         Bfn.  Coefficient  Atom+Function  
  ----- ------------  ---------------      ----- ------------  ---------------
    43      0.438835  4 O  s                 44      0.353156  4 O  s          
    65      0.211457  5 H  s                 74      0.211457  6 H  s          
    45      0.113413  4 O  s                 11      0.088733  2 O  s          
    46      0.088973  4 O  px                33      0.070587  3 H  s          
    47      0.059873  4 O  py                66     -0.048377  5 H  s          

 Vector    4  Occ=2.000000D+00  E=-9.397907D-01
              MO Center= -9.7D-02, -1.1D+00, -6.4D-04, r^2= 8.1D-01
   Bfn.  Coefficient  Atom+Function         Bfn.  Coefficient  Atom+Function  
  ----- ------------  ---------------      ----- ------------  ---------------
    11      0.429276  2 O  s                 12      0.318365  2 O  s          
    33      0.271839  3 H  s                  1      0.213659  1 H  s          
    14     -0.098242  2 O  px                43     -0.097787  4 O  s          
    15      0.086034  2 O  py                13      0.077017  2 O  s          
    44     -0.072848  4 O  s                 65     -0.051818  5 H  s          

 Vector    5  Occ=2.000000D+00  E=-5.132287D-01
              MO Center=  1.1D-01,  1.4D+00,  7.6D-04, r^2= 7.7D-01
   Bfn.  Coefficient  Atom+Function         Bfn.  Coefficient  Atom+Function  
  ----- ------------  ---------------      ----- ------------  ---------------
    48      0.515642  4 O  pz                65     -0.368395  5 H  s          
    74      0.368395  6 H  s                 51      0.142927  4 O  pz         
    66     -0.119498  5 H  s                 75      0.119503  6 H  s          
    63      0.036843  4 O  d  1              61     -0.029726  4 O  d -1       
    68      0.027742  5 H  px                77     -0.027413  6 H  px         

 Vector    6  Occ=2.000000D+00  E=-4.596402D-01
              MO Center= -1.3D-01, -1.2D+00, -8.5D-04, r^2= 1.1D+00
   Bfn.  Coefficient  Atom+Function         Bfn.  Coefficient  Atom+Function  
  ----- ------------  ---------------      ----- ------------  ---------------
    15      0.426374  2 O  py                33      0.367463  3 H  s          
     1     -0.351763  1 H  s                 14      0.267908  2 O  px         
    34      0.165482  3 H  s                  2     -0.147137  1 H  s          
    47     -0.121341  4 O  py                18      0.110502  2 O  py         
    17      0.077392  2 O  px                50     -0.069008  4 O  py         

 Vector    7  Occ=2.000000D+00  E=-3.782714D-01
              MO Center= -8.8D-02,  8.1D-01, -6.2D-04, r^2= 1.7D+00
   Bfn.  Coefficient  Atom+Function         Bfn.  Coefficient  Atom+Function  
  ----- ------------  ---------------      ----- ------------  ---------------
    46      0.394627  4 O  px                47      0.314263  4 O  py         
    44     -0.303422  4 O  s                 49      0.206542  4 O  px         
    14      0.200464  2 O  px                65      0.194993  5 H  s          
    74      0.195000  6 H  s                 50      0.170436  4 O  py         
    43     -0.150645  4 O  s                  1     -0.147392  1 H  s          

 Vector    8  Occ=2.000000D+00  E=-3.358807D-01
              MO Center=  1.0D-01, -1.1D+00,  6.4D-04, r^2= 1.8D+00
   Bfn.  Coefficient  Atom+Function         Bfn.  Coefficient  Atom+Function  
  ----- ------------  ---------------      ----- ------------  ---------------
    14      0.407537  2 O  px                12      0.342366  2 O  s          
    15     -0.295766  2 O  py                46     -0.227194  4 O  px         
    33     -0.211153  3 H  s                  1     -0.205673  1 H  s          
    17      0.198683  2 O  px                11      0.170125  2 O  s          
    18     -0.133934  2 O  py                49     -0.134598  4 O  px         

 Vector    9  Occ=2.000000D+00  E=-2.907199D-01
              MO Center= -2.0D-02,  1.1D+00, -1.5D-04, r^2= 1.2D+00
   Bfn.  Coefficient  Atom+Function         Bfn.  Coefficient  Atom+Function  
  ----- ------------  ---------------      ----- ------------  ---------------
    47      0.500064  4 O  py                46     -0.358420  4 O  px         
    50      0.345998  4 O  py                49     -0.234616  4 O  px         
    15      0.162182  2 O  py                53      0.091155  4 O  py         
    33      0.082841  3 H  s                 18      0.069248  2 O  py         
    14     -0.053979  2 O  px                52     -0.050091  4 O  px         

 Vector   10  Occ=2.000000D+00  E=-2.450599D-01
              MO Center=  3.0D-02, -1.4D+00,  1.8D-04, r^2= 7.5D-01
   Bfn.  Coefficient  Atom+Function         Bfn.  Coefficient  Atom+Function  
  ----- ------------  ---------------      ----- ------------  ---------------
    16      0.627211  2 O  pz                19      0.412152  2 O  pz         
    22      0.106957  2 O  pz                38      0.030993  3 H  pz         
     6      0.028957  1 H  pz                 9      0.027102  1 H  pz         

 Vector   11  Occ=0.000000D+00  E=-4.851524D-02
              MO Center=  4.5D-01,  1.6D+00,  3.3D-03, r^2= 7.1D+00
   Bfn.  Coefficient  Atom+Function         Bfn.  Coefficient  Atom+Function  
  ----- ------------  ---------------      ----- ------------  ---------------
    67      0.468804  5 H  s                 76      0.468835  6 H  s          
    44     -0.291764  4 O  s                 66      0.237150  5 H  s          
    75      0.237119  6 H  s                  3      0.235518  1 H  s          
    45     -0.202042  4 O  s                 35     -0.197683  3 H  s          
    43     -0.147404  4 O  s                 46     -0.127725  4 O  px         

 Vector   12  Occ=0.000000D+00  E=-2.155226D-03
              MO Center= -1.1D+00, -1.4D+00, -6.9D-03, r^2= 9.7D+00
   Bfn.  Coefficient  Atom+Function         Bfn.  Coefficient  Atom+Function  
  ----- ------------  ---------------      ----- ------------  ---------------
     3      1.193529  1 H  s                 13     -0.473069  2 O  s          
     2      0.441907  1 H  s                 67     -0.335590  5 H  s          
    76     -0.335128  6 H  s                 12     -0.222042  2 O  s          
    14      0.152182  2 O  px                21      0.147074  2 O  py         
    17      0.136810  2 O  px                35      0.129581  3 H  s          

 Vector   13  Occ=0.000000D+00  E= 1.075233D-02
              MO Center=  5.9D-01,  1.8D+00,  4.1D-03, r^2= 1.1D+01
   Bfn.  Coefficient  Atom+Function         Bfn.  Coefficient  Atom+Function  
  ----- ------------  ---------------      ----- ------------  ---------------
    67      2.086281  5 H  s                 76     -2.086466  6 H  s          
    66      0.348009  5 H  s                 75     -0.348047  6 H  s          
    54      0.339258  4 O  pz                48      0.210653  4 O  pz         
    51      0.184555  4 O  pz                73     -0.059935  5 H  pz         
    82     -0.060135  6 H  pz                16      0.053778  2 O  pz         

 Vector   14  Occ=0.000000D+00  E= 4.696415D-02
              MO Center=  4.1D-01, -9.9D-03,  2.7D-03, r^2= 1.7D+01
   Bfn.  Coefficient  Atom+Function         Bfn.  Coefficient  Atom+Function  
  ----- ------------  ---------------      ----- ------------  ---------------
    35      5.738334  3 H  s                  3     -3.417931  1 H  s          
    13     -1.303512  2 O  s                 67     -1.159573  5 H  s          
    76     -1.158708  6 H  s                 34      0.883932  3 H  s          
    21     -0.601207  2 O  py                45      0.591046  4 O  s          
    52      0.431927  4 O  px                40     -0.403121  3 H  py         

 Vector   15  Occ=0.000000D+00  E= 8.127541D-02
              MO Center= -7.3D-01,  4.9D-01, -5.2D-03, r^2= 1.0D+01
   Bfn.  Coefficient  Atom+Function         Bfn.  Coefficient  Atom+Function  
  ----- ------------  ---------------      ----- ------------  ---------------
    45      3.052595  4 O  s                 35     -2.230211  3 H  s          
     3      1.682631  1 H  s                 52      1.560986  4 O  px         
    66     -1.103993  5 H  s                 75     -1.104069  6 H  s          
    53     -0.384042  4 O  py                21     -0.376262  2 O  py         
    13     -0.360542  2 O  s                 20      0.361453  2 O  px         

 Vector   16  Occ=0.000000D+00  E= 9.061389D-02
              MO Center=  7.7D-01,  9.0D-01,  5.4D-03, r^2= 1.3D+01
   Bfn.  Coefficient  Atom+Function         Bfn.  Coefficient  Atom+Function  
  ----- ------------  ---------------      ----- ------------  ---------------
    45      2.417916  4 O  s                 13      1.761146  2 O  s          
    34     -0.947593  3 H  s                 67     -0.864901  5 H  s          
    76     -0.865179  6 H  s                 20     -0.681870  2 O  px         
    21      0.572363  2 O  py                 2     -0.546772  1 H  s          
    66     -0.372049  5 H  s                 75     -0.372277  6 H  s          

 Vector   17  Occ=0.000000D+00  E= 1.116332D-01
              MO Center=  3.3D-01,  2.4D-01,  2.7D-03, r^2= 8.1D+00
   Bfn.  Coefficient  Atom+Function         Bfn.  Coefficient  Atom+Function  
  ----- ------------  ---------------      ----- ------------  ---------------
    67      0.887430  5 H  s                 76     -0.889110  6 H  s          
    22     -0.765887  2 O  pz                82      0.276346  6 H  pz         
    73      0.272388  5 H  pz                72     -0.259759  5 H  py         
    81      0.259689  6 H  py                71     -0.256725  5 H  px         
    48     -0.252054  4 O  pz                80      0.253118  6 H  px         

 Vector   18  Occ=0.000000D+00  E= 1.162018D-01
              MO Center= -4.1D-01, -7.6D-01, -3.1D-03, r^2= 1.3D+01
   Bfn.  Coefficient  Atom+Function         Bfn.  Coefficient  Atom+Function  
  ----- ------------  ---------------      ----- ------------  ---------------
    13      2.313230  2 O  s                  3     -1.167068  1 H  s          
    34     -1.066788  3 H  s                 53     -0.894693  4 O  py         
    35     -0.846712  3 H  s                 67      0.755189  5 H  s          
    76      0.751346  6 H  s                 20     -0.733389  2 O  px         
    45     -0.556901  4 O  s                  7     -0.518588  1 H  px         

 Vector   19  Occ=0.000000D+00  E= 1.310282D-01
              MO Center=  4.2D-01,  9.7D-01,  3.2D-03, r^2= 1.3D+01
   Bfn.  Coefficient  Atom+Function         Bfn.  Coefficient  Atom+Function  
  ----- ------------  ---------------      ----- ------------  ---------------
    67      2.947073  5 H  s                 76     -2.947513  6 H  s          
    54      1.825613  4 O  pz                66      0.948018  5 H  s          
    75     -0.947737  6 H  s                 22      0.811773  2 O  pz         
    71     -0.307205  5 H  px                80      0.303264  6 H  px         
    41     -0.297136  3 H  pz                82      0.286794  6 H  pz         

 Vector   20  Occ=0.000000D+00  E= 1.367501D-01
              MO Center= -4.6D-01, -5.0D-02, -3.0D-03, r^2= 1.2D+01
   Bfn.  Coefficient  Atom+Function         Bfn.  Coefficient  Atom+Function  
  ----- ------------  ---------------      ----- ------------  ---------------
    35     -2.293183  3 H  s                  3      2.088802  1 H  s          
    53     -1.758183  4 O  py                13     -1.503781  2 O  s          
    45     -0.775560  4 O  s                 34     -0.725366  3 H  s          
    66      0.662762  5 H  s                 67      0.659651  5 H  s          
    75      0.662698  6 H  s                 76      0.658767  6 H  s          

 Vector   21  Occ=0.000000D+00  E= 1.599208D-01
              MO Center= -3.5D-01,  4.5D-01, -2.5D-03, r^2= 8.4D+00
   Bfn.  Coefficient  Atom+Function         Bfn.  Coefficient  Atom+Function  
  ----- ------------  ---------------      ----- ------------  ---------------
    54      2.441210  4 O  pz                66      1.907253  5 H  s          
    75     -1.907935  6 H  s                 67      1.104137  5 H  s          
    76     -1.104067  6 H  s                 22     -0.937557  2 O  pz         
    51      0.256441  4 O  pz                 9      0.214053  1 H  pz         
    65      0.176944  5 H  s                 74     -0.176971  6 H  s          

 Vector   22  Occ=0.000000D+00  E= 1.682483D-01
              MO Center=  1.7D-01, -6.5D-01,  1.2D-03, r^2= 1.2D+01
   Bfn.  Coefficient  Atom+Function         Bfn.  Coefficient  Atom+Function  
  ----- ------------  ---------------      ----- ------------  ---------------
    21      2.353339  2 O  py                34     -2.175408  3 H  s          
     2      2.074254  1 H  s                  3      1.802992  1 H  s          
    53      1.658013  4 O  py                45      1.197159  4 O  s          
    20      1.002968  2 O  px                66     -1.002541  5 H  s          
    75     -1.001794  6 H  s                 35     -0.838656  3 H  s          

 Vector   23  Occ=0.000000D+00  E= 1.950400D-01
              MO Center= -4.6D-02, -3.6D-01, -8.5D-04, r^2= 1.1D+01
   Bfn.  Coefficient  Atom+Function         Bfn.  Coefficient  Atom+Function  
  ----- ------------  ---------------      ----- ------------  ---------------
    35      6.082152  3 H  s                 45     -3.193989  4 O  s          
     3     -3.049004  1 H  s                  2     -2.151744  1 H  s          
    53      2.098331  4 O  py                20     -1.940339  2 O  px         
    34      1.445499  3 H  s                 67     -1.066858  5 H  s          
    76     -1.066862  6 H  s                 66      0.696420  5 H  s          

 Vector   24  Occ=0.000000D+00  E= 2.094871D-01
              MO Center=  1.9D-01,  4.0D-01,  1.2D-03, r^2= 7.2D+00
   Bfn.  Coefficient  Atom+Function         Bfn.  Coefficient  Atom+Function  
  ----- ------------  ---------------      ----- ------------  ---------------
    45      3.438100  4 O  s                 35      1.912799  3 H  s          
    66     -1.496924  5 H  s                 75     -1.497105  6 H  s          
     3     -1.370649  1 H  s                 21     -1.250639  2 O  py         
     2     -1.159960  1 H  s                 20     -1.146341  2 O  px         
    53     -0.562202  4 O  py                13     -0.515443  2 O  s          

 Vector   25  Occ=0.000000D+00  E= 2.216113D-01
              MO Center= -4.1D-02, -6.1D-01, -3.8D-04, r^2= 7.2D+00
   Bfn.  Coefficient  Atom+Function         Bfn.  Coefficient  Atom+Function  
  ----- ------------  ---------------      ----- ------------  ---------------
    13      5.950872  2 O  s                  2     -2.429606  1 H  s          
    35     -2.370931  3 H  s                 34     -2.061601  3 H  s          
    21      1.526493  2 O  py                45     -1.289970  4 O  s          
     3      1.046324  1 H  s                 20     -1.025984  2 O  px         
    53      0.868427  4 O  py                40      0.826316  3 H  py         

 Vector   26  Occ=0.000000D+00  E= 2.378822D-01
              MO Center=  8.7D-02,  5.2D-01,  1.1D-03, r^2= 6.0D+00
   Bfn.  Coefficient  Atom+Function         Bfn.  Coefficient  Atom+Function  
  ----- ------------  ---------------      ----- ------------  ---------------
    41      0.674541  3 H  pz                72      0.669751  5 H  py         
    81     -0.670068  6 H  py                 9     -0.553419  1 H  pz         
    71     -0.432739  5 H  px                80      0.428793  6 H  px         
    66      0.369373  5 H  s                 75     -0.368469  6 H  s          
    22     -0.310222  2 O  pz                82      0.288350  6 H  pz         

 Vector   27  Occ=0.000000D+00  E= 2.508465D-01
              MO Center= -1.1D-01, -3.4D-02, -6.1D-04, r^2= 7.2D+00
   Bfn.  Coefficient  Atom+Function         Bfn.  Coefficient  Atom+Function  
  ----- ------------  ---------------      ----- ------------  ---------------
    45      4.139186  4 O  s                 66     -1.753810  5 H  s          
    75     -1.754622  6 H  s                 35      1.502856  3 H  s          
    34      1.370771  3 H  s                  2     -1.290477  1 H  s          
    40     -1.262859  3 H  py                 3     -1.027028  1 H  s          
    20     -1.027078  2 O  px                13     -0.937320  2 O  s          

 Vector   28  Occ=0.000000D+00  E= 3.051762D-01
              MO Center= -5.1D-01, -1.1D+00, -3.3D-03, r^2= 5.7D+00
   Bfn.  Coefficient  Atom+Function         Bfn.  Coefficient  Atom+Function  
  ----- ------------  ---------------      ----- ------------  ---------------
     9      1.492768  1 H  pz                22     -1.125163  2 O  pz         
    71     -0.413924  5 H  px                80      0.414368  6 H  px         
    19     -0.411724  2 O  pz                67     -0.339135  5 H  s          
    76      0.338938  6 H  s                 41      0.255264  3 H  pz         
    72      0.216622  5 H  py                81     -0.216716  6 H  py         

 Vector   29  Occ=0.000000D+00  E= 3.250559D-01
              MO Center=  1.9D-01, -3.0D-01,  1.2D-03, r^2= 6.3D+00
   Bfn.  Coefficient  Atom+Function         Bfn.  Coefficient  Atom+Function  
  ----- ------------  ---------------      ----- ------------  ---------------
    13      5.940137  2 O  s                 34     -4.020768  3 H  s          
    35     -2.040425  3 H  s                 45     -1.964282  4 O  s          
     2     -1.389500  1 H  s                 52     -1.304254  4 O  px         
    21      1.278964  2 O  py                66      0.995022  5 H  s          
    75      0.994965  6 H  s                 20     -0.594002  2 O  px         

 Vector   30  Occ=0.000000D+00  E= 3.589589D-01
              MO Center= -2.4D-03,  4.8D-01, -1.3D-04, r^2= 7.7D+00
   Bfn.  Coefficient  Atom+Function         Bfn.  Coefficient  Atom+Function  
  ----- ------------  ---------------      ----- ------------  ---------------
    45      8.543650  4 O  s                 66     -3.626130  5 H  s          
    75     -3.625003  6 H  s                 52      2.418858  4 O  px         
    34     -2.023676  3 H  s                  2     -1.195580  1 H  s          
    13      1.105725  2 O  s                 40     -1.050851  3 H  py         
    35     -0.843338  3 H  s                 21     -0.783890  2 O  py         

 Vector   31  Occ=0.000000D+00  E= 3.992485D-01
              MO Center= -1.3D-01,  7.3D-01, -1.4D-03, r^2= 7.5D+00
   Bfn.  Coefficient  Atom+Function         Bfn.  Coefficient  Atom+Function  
  ----- ------------  ---------------      ----- ------------  ---------------
    53     -3.118325  4 O  py                45      2.936424  4 O  s          
    35     -2.303655  3 H  s                 34     -1.871695  3 H  s          
    72      1.298359  5 H  py                81      1.296916  6 H  py         
     3      1.045083  1 H  s                  8     -0.968752  1 H  py         
    75     -0.772333  6 H  s                 66     -0.767740  5 H  s          

 Vector   32  Occ=0.000000D+00  E= 4.163128D-01
              MO Center=  3.8D-01,  1.4D+00,  2.9D-03, r^2= 5.5D+00
   Bfn.  Coefficient  Atom+Function         Bfn.  Coefficient  Atom+Function  
  ----- ------------  ---------------      ----- ------------  ---------------
    73     -1.908752  5 H  pz                82     -1.898002  6 H  pz         
    54      1.773753  4 O  pz                66     -1.017674  5 H  s          
    75      1.017818  6 H  s                 80      0.810957  6 H  px         
    71     -0.785112  5 H  px                67      0.779805  5 H  s          
    72     -0.780712  5 H  py                81      0.783109  6 H  py         

 Vector   33  Occ=0.000000D+00  E= 4.220764D-01
              MO Center=  1.3D-02,  6.3D-01,  3.3D-04, r^2= 6.3D+00
   Bfn.  Coefficient  Atom+Function         Bfn.  Coefficient  Atom+Function  
  ----- ------------  ---------------      ----- ------------  ---------------
    54      3.035960  4 O  pz                66      2.812742  5 H  s          
    75     -2.812895  6 H  s                 41     -1.743292  3 H  pz         
    67      1.592950  5 H  s                 76     -1.593962  6 H  s          
    71     -1.022878  5 H  px                80      1.021214  6 H  px         
    51      0.591414  4 O  pz                19      0.460316  2 O  pz         

 Vector   34  Occ=0.000000D+00  E= 4.761964D-01
              MO Center= -8.6D-02, -2.3D-01, -6.6D-04, r^2= 8.0D+00
   Bfn.  Coefficient  Atom+Function         Bfn.  Coefficient  Atom+Function  
  ----- ------------  ---------------      ----- ------------  ---------------
    21      2.144569  2 O  py                39     -1.994562  3 H  px         
    53      1.710390  4 O  py                 8     -1.585056  1 H  py         
     3      1.340289  1 H  s                 20      1.342299  2 O  px         
    66     -1.187274  5 H  s                 75     -1.182599  6 H  s          
    44      1.154588  4 O  s                 45      1.064000  4 O  s          

 Vector   35  Occ=0.000000D+00  E= 4.818142D-01
              MO Center=  3.8D-01,  1.3D+00,  2.8D-03, r^2= 5.6D+00
   Bfn.  Coefficient  Atom+Function         Bfn.  Coefficient  Atom+Function  
  ----- ------------  ---------------      ----- ------------  ---------------
     2      3.676908  1 H  s                 45      2.384295  4 O  s          
    34     -2.279708  3 H  s                 40      2.092627  3 H  py         
    39      1.974110  3 H  px                44      1.945552  4 O  s          
     8      1.404589  1 H  py                66     -1.389804  5 H  s          
    75     -1.392296  6 H  s                  7      1.116640  1 H  px         

 Vector   36  Occ=0.000000D+00  E= 4.985945D-01
              MO Center=  3.9D-01,  1.6D+00,  2.8D-03, r^2= 4.8D+00
   Bfn.  Coefficient  Atom+Function         Bfn.  Coefficient  Atom+Function  
  ----- ------------  ---------------      ----- ------------  ---------------
    66      5.018021  5 H  s                 75     -5.018086  6 H  s          
    73      2.967803  5 H  pz                82      2.978735  6 H  pz         
    51      1.038664  4 O  pz                72     -1.016065  5 H  py         
    81      1.015866  6 H  py                41      0.918636  3 H  pz         
    67      0.820410  5 H  s                 76     -0.820432  6 H  s          

 Vector   37  Occ=0.000000D+00  E= 5.045405D-01
              MO Center= -1.1D+00, -1.7D+00, -7.0D-03, r^2= 4.1D+00
   Bfn.  Coefficient  Atom+Function         Bfn.  Coefficient  Atom+Function  
  ----- ------------  ---------------      ----- ------------  ---------------
     2      6.734651  1 H  s                 13     -3.658473  2 O  s          
    34     -3.319575  3 H  s                  7      3.255838  1 H  px         
     8      1.832439  1 H  py                12     -1.655196  2 O  s          
     3      1.098213  1 H  s                 39      1.021755  3 H  px         
    40      0.960757  3 H  py                17      0.675762  2 O  px         

 Vector   38  Occ=0.000000D+00  E= 5.775011D-01
              MO Center= -1.2D-02, -1.3D+00, -7.6D-04, r^2= 5.1D+00
   Bfn.  Coefficient  Atom+Function         Bfn.  Coefficient  Atom+Function  
  ----- ------------  ---------------      ----- ------------  ---------------
    34     13.008683  3 H  s                  2    -10.763705  1 H  s          
    40     -5.757412  3 H  py                 7     -3.014780  1 H  px         
     8     -2.531971  1 H  py                35      2.543806  3 H  s          
    13     -2.519281  2 O  s                 21     -2.236772  2 O  py         
     3     -1.474889  1 H  s                 39     -1.481503  3 H  px         

 Vector   39  Occ=0.000000D+00  E= 5.958027D-01
              MO Center=  9.0D-02,  1.1D+00,  1.5D-03, r^2= 4.4D+00
   Bfn.  Coefficient  Atom+Function         Bfn.  Coefficient  Atom+Function  
  ----- ------------  ---------------      ----- ------------  ---------------
    66      6.621563  5 H  s                 75     -6.619520  6 H  s          
    73      2.070300  5 H  pz                82      2.076704  6 H  pz         
    54      2.016494  4 O  pz                51      1.084810  4 O  pz         
    41      0.749215  3 H  pz                67      0.647988  5 H  s          
    76     -0.649377  6 H  s                 72     -0.632372  5 H  py         

 Vector   40  Occ=0.000000D+00  E= 7.124634D-01
              MO Center=  1.1D-02,  5.8D-01, -4.5D-06, r^2= 5.5D+00
   Bfn.  Coefficient  Atom+Function         Bfn.  Coefficient  Atom+Function  
  ----- ------------  ---------------      ----- ------------  ---------------
    40      3.687607  3 H  py                45      3.489790  4 O  s          
    66     -3.347536  5 H  s                 75     -3.346081  6 H  s          
    13      2.541601  2 O  s                 34     -2.459468  3 H  s          
    12      1.512895  2 O  s                 53      1.129633  4 O  py         
    44      1.114758  4 O  s                 35      1.092150  3 H  s          

 Vector   41  Occ=0.000000D+00  E= 7.353263D-01
              MO Center= -6.8D-03, -5.7D-01,  2.5D-06, r^2= 4.7D+00
   Bfn.  Coefficient  Atom+Function         Bfn.  Coefficient  Atom+Function  
  ----- ------------  ---------------      ----- ------------  ---------------
    13      6.762941  2 O  s                 45     -4.685050  4 O  s          
     2     -3.753891  1 H  s                 34     -3.526920  3 H  s          
    66      2.404677  5 H  s                 75      2.403828  6 H  s          
    12      1.819140  2 O  s                 40      1.688956  3 H  py         
    21      1.396878  2 O  py                20     -0.963229  2 O  px         

 Vector   42  Occ=0.000000D+00  E= 7.978793D-01
              MO Center=  1.6D-01, -2.0D-01,  1.0D-03, r^2= 4.3D+00
   Bfn.  Coefficient  Atom+Function         Bfn.  Coefficient  Atom+Function  
  ----- ------------  ---------------      ----- ------------  ---------------
    45      4.734060  4 O  s                  2     -4.142725  1 H  s          
    40     -4.029333  3 H  py                66     -1.766230  5 H  s          
    75     -1.766569  6 H  s                 20     -1.094515  2 O  px         
     7     -0.957631  1 H  px                12     -0.834121  2 O  s          
    13      0.741818  2 O  s                 52      0.675176  4 O  px         

 Vector   43  Occ=0.000000D+00  E= 8.927127D-01
              MO Center=  2.2D-01, -7.4D-01,  1.4D-03, r^2= 3.8D+00
   Bfn.  Coefficient  Atom+Function         Bfn.  Coefficient  Atom+Function  
  ----- ------------  ---------------      ----- ------------  ---------------
    31      0.754081  2 O  d  1              22      0.620845  2 O  pz         
    29      0.550744  2 O  d -1               9     -0.479303  1 H  pz         
    61      0.453412  4 O  d -1              63      0.394232  4 O  d  1       
    41     -0.366185  3 H  pz                72      0.309518  5 H  py         
    81     -0.309765  6 H  py                71     -0.216012  5 H  px         

 Vector   44  Occ=0.000000D+00  E= 9.094764D-01
              MO Center=  1.8D-01,  3.9D-01,  1.1D-03, r^2= 4.1D+00
   Bfn.  Coefficient  Atom+Function         Bfn.  Coefficient  Atom+Function  
  ----- ------------  ---------------      ----- ------------  ---------------
    61      0.850218  4 O  d -1              22     -0.671771  2 O  pz         
    41      0.559295  3 H  pz                31     -0.554662  2 O  d  1       
    63      0.548086  4 O  d  1              72      0.473048  5 H  py         
    81     -0.473147  6 H  py                66      0.460433  5 H  s          
    75     -0.460756  6 H  s                  9      0.424110  1 H  pz         

 Vector   45  Occ=0.000000D+00  E= 9.305128D-01
              MO Center= -1.1D-02,  1.0D+00, -1.3D-04, r^2= 3.1D+00
   Bfn.  Coefficient  Atom+Function         Bfn.  Coefficient  Atom+Function  
  ----- ------------  ---------------      ----- ------------  ---------------
    45      1.592876  4 O  s                 35      1.110628  3 H  s          
    13     -1.082763  2 O  s                 52      1.071969  4 O  px         
    66     -1.047079  5 H  s                 75     -1.046090  6 H  s          
    39      0.836452  3 H  px                 2      0.750806  1 H  s          
    64      0.717674  4 O  d  2              62     -0.679198  4 O  d  0       

 Vector   46  Occ=0.000000D+00  E= 9.622804D-01
              MO Center=  1.4D-01, -2.1D-01,  8.4D-04, r^2= 4.8D+00
   Bfn.  Coefficient  Atom+Function         Bfn.  Coefficient  Atom+Function  
  ----- ------------  ---------------      ----- ------------  ---------------
    13      2.344814  2 O  s                 34     -2.163999  3 H  s          
    45      2.157665  4 O  s                  2     -1.735321  1 H  s          
    35     -1.409518  3 H  s                 40     -1.101045  3 H  py         
     7     -0.714103  1 H  px                72     -0.665594  5 H  py         
    81     -0.665388  6 H  py                28      0.602801  2 O  d -2       

 Vector   47  Occ=0.000000D+00  E= 9.721732D-01
              MO Center= -2.6D-01, -1.6D+00, -1.7D-03, r^2= 2.2D+00
   Bfn.  Coefficient  Atom+Function         Bfn.  Coefficient  Atom+Function  
  ----- ------------  ---------------      ----- ------------  ---------------
    41      1.127630  3 H  pz                 9     -1.008898  1 H  pz         
    29     -0.967718  2 O  d -1              31      0.714815  2 O  d  1       
    66      0.677963  5 H  s                 75     -0.678678  6 H  s          
    19      0.273162  2 O  pz                16     -0.266317  2 O  pz         
    82      0.166075  6 H  pz                61      0.164324  4 O  d -1       

 Vector   48  Occ=0.000000D+00  E= 9.926017D-01
              MO Center=  3.0D-02,  2.2D-01,  1.5D-04, r^2= 4.2D+00
   Bfn.  Coefficient  Atom+Function         Bfn.  Coefficient  Atom+Function  
  ----- ------------  ---------------      ----- ------------  ---------------
     2      4.939797  1 H  s                 13     -2.323413  2 O  s          
    40      1.857098  3 H  py                34     -1.660258  3 H  s          
     7      1.466879  1 H  px                39      1.321404  3 H  px         
    45      1.298039  4 O  s                 66     -0.824352  5 H  s          
    75     -0.823085  6 H  s                  8      0.711294  1 H  py         

 Vector   49  Occ=0.000000D+00  E= 1.077442D+00
              MO Center=  4.5D-02,  1.2D-01,  2.9D-04, r^2= 4.6D+00
   Bfn.  Coefficient  Atom+Function         Bfn.  Coefficient  Atom+Function  
  ----- ------------  ---------------      ----- ------------  ---------------
    34      3.371431  3 H  s                 45     -3.253380  4 O  s          
    13     -2.952087  2 O  s                 66      2.567998  5 H  s          
    75      2.566166  6 H  s                 40     -2.228043  3 H  py         
    12     -1.482186  2 O  s                 44     -1.370938  4 O  s          
    35      1.295032  3 H  s                 18     -0.870851  2 O  py         

 Vector   50  Occ=0.000000D+00  E= 1.125553D+00
              MO Center= -2.4D-01, -2.0D-01, -1.6D-03, r^2= 3.8D+00
   Bfn.  Coefficient  Atom+Function         Bfn.  Coefficient  Atom+Function  
  ----- ------------  ---------------      ----- ------------  ---------------
    34      5.601461  3 H  s                  2     -3.069151  1 H  s          
    40     -2.163587  3 H  py                39     -1.899314  3 H  px         
    13     -1.355051  2 O  s                 12     -1.237309  2 O  s          
     7     -0.850063  1 H  px                18     -0.842181  2 O  py         
     8     -0.820166  1 H  py                53      0.787874  4 O  py         

 Vector   51  Occ=0.000000D+00  E= 1.144379D+00
              MO Center= -1.9D-01,  1.0D+00, -1.1D-03, r^2= 2.5D+00
   Bfn.  Coefficient  Atom+Function         Bfn.  Coefficient  Atom+Function  
  ----- ------------  ---------------      ----- ------------  ---------------
    66      4.797186  5 H  s                 75     -4.795393  6 H  s          
    51      1.974255  4 O  pz                82      1.400055  6 H  pz         
    73      1.386988  5 H  pz                54      1.134137  4 O  pz         
    71     -0.973854  5 H  px                80      0.954687  6 H  px         
    72     -0.706617  5 H  py                81      0.706718  6 H  py         

 Vector   52  Occ=0.000000D+00  E= 1.177434D+00
              MO Center=  4.1D-02, -4.1D-01,  2.5D-05, r^2= 4.0D+00
   Bfn.  Coefficient  Atom+Function         Bfn.  Coefficient  Atom+Function  
  ----- ------------  ---------------      ----- ------------  ---------------
    34     -4.379050  3 H  s                  2      4.253947  1 H  s          
    45     -2.813859  4 O  s                 40      1.562898  3 H  py         
     7      1.526615  1 H  px                75      1.456163  6 H  s          
    66      1.448086  5 H  s                 18      1.231018  2 O  py         
    49     -1.237029  4 O  px                17      0.936422  2 O  px         

 Vector   53  Occ=0.000000D+00  E= 1.285737D+00
              MO Center= -7.8D-02, -2.0D-02, -4.7D-04, r^2= 4.0D+00
   Bfn.  Coefficient  Atom+Function         Bfn.  Coefficient  Atom+Function  
  ----- ------------  ---------------      ----- ------------  ---------------
    34      2.031308  3 H  s                 45     -1.701086  4 O  s          
    35      1.309303  3 H  s                 49     -1.194992  4 O  px         
    18     -1.166466  2 O  py                40      1.103510  3 H  py         
    39      0.908594  3 H  px                 2     -0.854851  1 H  s          
    53      0.681914  4 O  py                 3     -0.600022  1 H  s          

 Vector   54  Occ=0.000000D+00  E= 1.300175D+00
              MO Center= -7.8D-02, -7.1D-01, -6.6D-04, r^2= 2.4D+00
   Bfn.  Coefficient  Atom+Function         Bfn.  Coefficient  Atom+Function  
  ----- ------------  ---------------      ----- ------------  ---------------
    19      1.742547  2 O  pz                41     -1.634234  3 H  pz         
    54      0.923147  4 O  pz                16     -0.861039  2 O  pz         
    66      0.703607  5 H  s                 75     -0.703002  6 H  s          
    29      0.610049  2 O  d -1              51      0.491923  4 O  pz         
    67      0.375735  5 H  s                 76     -0.375202  6 H  s          

 Vector   55  Occ=0.000000D+00  E= 1.338657D+00
              MO Center=  2.1D-01, -6.5D-02,  1.4D-03, r^2= 3.1D+00
   Bfn.  Coefficient  Atom+Function         Bfn.  Coefficient  Atom+Function  
  ----- ------------  ---------------      ----- ------------  ---------------
    45      3.924931  4 O  s                 66     -1.648470  5 H  s          
    75     -1.649377  6 H  s                 13     -1.374895  2 O  s          
    40     -1.334568  3 H  py                17      1.095843  2 O  px         
    50     -1.087866  4 O  py                52      1.032171  4 O  px         
    39     -0.958741  3 H  px                49      0.852854  4 O  px         

 Vector   56  Occ=0.000000D+00  E= 1.648242D+00
              MO Center=  2.4D-01,  1.2D+00,  1.7D-03, r^2= 2.5D+00
   Bfn.  Coefficient  Atom+Function         Bfn.  Coefficient  Atom+Function  
  ----- ------------  ---------------      ----- ------------  ---------------
    66      0.961650  5 H  s                 75     -0.961685  6 H  s          
    54      0.889036  4 O  pz                51      0.749244  4 O  pz         
    80      0.506186  6 H  px                71     -0.502666  5 H  px         
    70      0.468933  5 H  pz                72     -0.469130  5 H  py         
    81      0.469217  6 H  py                79      0.463078  6 H  pz         

 Vector   57  Occ=0.000000D+00  E= 1.716360D+00
              MO Center=  1.4D-01,  7.2D-01,  8.9D-04, r^2= 2.9D+00
   Bfn.  Coefficient  Atom+Function         Bfn.  Coefficient  Atom+Function  
  ----- ------------  ---------------      ----- ------------  ---------------
    54      0.847564  4 O  pz                38      0.732033  3 H  pz         
    41     -0.627174  3 H  pz                68      0.616318  5 H  px         
    77     -0.618233  6 H  px                63     -0.609166  4 O  d  1       
    69     -0.441058  5 H  py                78      0.441169  6 H  py         
    73     -0.434317  5 H  pz                82     -0.431560  6 H  pz         

 Vector   58  Occ=0.000000D+00  E= 1.731577D+00
              MO Center=  1.8D-02, -4.3D-01,  3.7D-04, r^2= 3.2D+00
   Bfn.  Coefficient  Atom+Function         Bfn.  Coefficient  Atom+Function  
  ----- ------------  ---------------      ----- ------------  ---------------
    40      5.568557  3 H  py                 2      5.249599  1 H  s          
    34     -4.782722  3 H  s                 50      1.843220  4 O  py         
     7      1.742015  1 H  px                12      1.517956  2 O  s          
    17      1.467440  2 O  px                21      1.072630  2 O  py         
     1      0.997571  1 H  s                 53      0.894427  4 O  py         

 Vector   59  Occ=0.000000D+00  E= 1.756734D+00
              MO Center= -5.1D-01, -1.1D+00, -3.3D-03, r^2= 2.4D+00
   Bfn.  Coefficient  Atom+Function         Bfn.  Coefficient  Atom+Function  
  ----- ------------  ---------------      ----- ------------  ---------------
     6      1.247568  1 H  pz                31     -0.696843  2 O  d  1       
    19     -0.371177  2 O  pz                66      0.369487  5 H  s          
    75     -0.370085  6 H  s                 61     -0.359503  4 O  d -1       
    69     -0.344746  5 H  py                78      0.344519  6 H  py         
    29      0.246368  2 O  d -1              54      0.175966  4 O  pz         

 Vector   60  Occ=0.000000D+00  E= 1.764987D+00
              MO Center= -2.9D-01, -1.1D+00, -1.9D-03, r^2= 2.2D+00
   Bfn.  Coefficient  Atom+Function         Bfn.  Coefficient  Atom+Function  
  ----- ------------  ---------------      ----- ------------  ---------------
    40      1.979849  3 H  py                39      1.359574  3 H  px         
     8      1.051554  1 H  py                18     -0.990061  2 O  py         
    33      0.946853  3 H  s                 50      0.908449  4 O  py         
    32      0.884814  2 O  d  2              21     -0.877289  2 O  py         
     5     -0.828518  1 H  py                 2      0.795262  1 H  s          

 Vector   61  Occ=0.000000D+00  E= 1.841561D+00
              MO Center=  3.1D-01,  1.2D+00,  1.8D-03, r^2= 2.5D+00
   Bfn.  Coefficient  Atom+Function         Bfn.  Coefficient  Atom+Function  
  ----- ------------  ---------------      ----- ------------  ---------------
    34     -2.931188  3 H  s                  2      2.768436  1 H  s          
    40      2.475059  3 H  py                50      1.034219  4 O  py         
    12      0.918113  2 O  s                 39      0.765493  3 H  px         
     7      0.761490  1 H  px                69     -0.755003  5 H  py         
    78     -0.754408  6 H  py                53     -0.597316  4 O  py         

 Vector   62  Occ=0.000000D+00  E= 2.021801D+00
              MO Center=  8.6D-02,  4.8D-01,  4.1D-04, r^2= 3.4D+00
   Bfn.  Coefficient  Atom+Function         Bfn.  Coefficient  Atom+Function  
  ----- ------------  ---------------      ----- ------------  ---------------
    34      1.924037  3 H  s                 13     -1.714947  2 O  s          
    12     -1.518487  2 O  s                 45      1.480524  4 O  s          
    40     -1.366494  3 H  py                44      1.130113  4 O  s          
    62      0.977159  4 O  d  0              17     -0.947835  2 O  px         
    66     -0.755282  5 H  s                 75     -0.756030  6 H  s          

 Vector   63  Occ=0.000000D+00  E= 2.042811D+00
              MO Center=  7.2D-02,  4.5D-01,  5.4D-04, r^2= 3.0D+00
   Bfn.  Coefficient  Atom+Function         Bfn.  Coefficient  Atom+Function  
  ----- ------------  ---------------      ----- ------------  ---------------
    66      1.586915  5 H  s                 75     -1.585401  6 H  s          
    19     -1.066526  2 O  pz                38      0.984138  3 H  pz         
    41      0.877066  3 H  pz                73      0.857585  5 H  pz         
    82      0.861447  6 H  pz                29     -0.731516  2 O  d -1       
    61      0.683266  4 O  d -1              51      0.665830  4 O  pz         

 Vector   64  Occ=0.000000D+00  E= 2.050938D+00
              MO Center=  2.4D-01,  1.0D+00,  2.0D-03, r^2= 2.4D+00
   Bfn.  Coefficient  Atom+Function         Bfn.  Coefficient  Atom+Function  
  ----- ------------  ---------------      ----- ------------  ---------------
    66      1.847647  5 H  s                 75     -1.849214  6 H  s          
    51      1.677523  4 O  pz                82      0.930511  6 H  pz         
    73      0.925525  5 H  pz                48     -0.780194  4 O  pz         
    19      0.662979  2 O  pz                38     -0.643373  3 H  pz         
    79     -0.627601  6 H  pz                70     -0.623408  5 H  pz         

 Vector   65  Occ=0.000000D+00  E= 2.083380D+00
              MO Center= -1.1D-01, -2.5D-01, -7.7D-04, r^2= 3.8D+00
   Bfn.  Coefficient  Atom+Function         Bfn.  Coefficient  Atom+Function  
  ----- ------------  ---------------      ----- ------------  ---------------
    12      2.274114  2 O  s                 13      2.078287  2 O  s          
    44      1.587890  4 O  s                  2     -1.494728  1 H  s          
    40      1.304525  3 H  py                34     -1.142520  3 H  s          
    28      1.048041  2 O  d -2              66     -1.030115  5 H  s          
    75     -1.029381  6 H  s                 11     -0.841642  2 O  s          

 Vector   66  Occ=0.000000D+00  E= 2.200287D+00
              MO Center= -1.9D-01, -1.9D-01, -1.2D-03, r^2= 3.7D+00
   Bfn.  Coefficient  Atom+Function         Bfn.  Coefficient  Atom+Function  
  ----- ------------  ---------------      ----- ------------  ---------------
    34      1.374660  3 H  s                  4      0.876968  1 H  px         
    17     -0.701222  2 O  px                36      0.686527  3 H  px         
    28     -0.629254  2 O  d -2               7     -0.559140  1 H  px         
    43     -0.550571  4 O  s                  2     -0.514208  1 H  s          
    14      0.477246  2 O  px                62     -0.462922  4 O  d  0       

 Vector   67  Occ=0.000000D+00  E= 2.209145D+00
              MO Center= -2.8D-02,  3.6D-01, -6.6D-05, r^2= 3.8D+00
   Bfn.  Coefficient  Atom+Function         Bfn.  Coefficient  Atom+Function  
  ----- ------------  ---------------      ----- ------------  ---------------
    34      1.665310  3 H  s                 44      1.626482  4 O  s          
    40     -1.385281  3 H  py                43     -1.307027  4 O  s          
     2     -1.077382  1 H  s                 12     -1.076595  2 O  s          
    45      0.850071  4 O  s                  4     -0.746228  1 H  px         
    11      0.670568  2 O  s                 42     -0.579198  4 O  s          

 Vector   68  Occ=0.000000D+00  E= 2.330752D+00
              MO Center=  1.9D-01,  1.5D+00,  1.3D-03, r^2= 1.8D+00
   Bfn.  Coefficient  Atom+Function         Bfn.  Coefficient  Atom+Function  
  ----- ------------  ---------------      ----- ------------  ---------------
    66      4.905162  5 H  s                 75     -4.905086  6 H  s          
    51      3.958985  4 O  pz                65      2.202608  5 H  s          
    74     -2.202579  6 H  s                 63     -1.598253  4 O  d  1       
    82      1.501985  6 H  pz                73      1.494075  5 H  pz         
    61      1.313818  4 O  d -1              54      1.247766  4 O  pz         

 Vector   69  Occ=0.000000D+00  E= 2.399540D+00
              MO Center= -2.2D-01, -1.1D+00, -1.5D-03, r^2= 2.0D+00
   Bfn.  Coefficient  Atom+Function         Bfn.  Coefficient  Atom+Function  
  ----- ------------  ---------------      ----- ------------  ---------------
    34      5.568763  3 H  s                  2     -4.685601  1 H  s          
    18     -3.333492  2 O  py                33      2.385457  3 H  s          
    32      1.971087  2 O  d  2              17     -1.876081  2 O  px         
     1     -1.821070  1 H  s                  7     -1.417304  1 H  px         
    35      1.181834  3 H  s                  8     -0.924926  1 H  py         

 Vector   70  Occ=0.000000D+00  E= 2.586612D+00
              MO Center=  2.6D-02,  7.2D-01,  1.7D-04, r^2= 2.5D+00
   Bfn.  Coefficient  Atom+Function         Bfn.  Coefficient  Atom+Function  
  ----- ------------  ---------------      ----- ------------  ---------------
    44      4.942031  4 O  s                 45      3.963472  4 O  s          
    66     -2.864695  5 H  s                 75     -2.864350  6 H  s          
    34     -1.505728  3 H  s                 49      1.434034  4 O  px         
    43     -1.379815  4 O  s                 65     -1.236627  5 H  s          
    74     -1.236622  6 H  s                 50      0.930839  4 O  py         

 Vector   71  Occ=0.000000D+00  E= 2.666219D+00
              MO Center= -1.1D-01, -1.3D+00, -7.1D-04, r^2= 1.8D+00
   Bfn.  Coefficient  Atom+Function         Bfn.  Coefficient  Atom+Function  
  ----- ------------  ---------------      ----- ------------  ---------------
    12      6.065860  2 O  s                 13      5.135061  2 O  s          
    34     -3.727112  3 H  s                  2     -3.100610  1 H  s          
    17     -2.274164  2 O  px                 1     -1.835233  1 H  s          
    33     -1.668700  3 H  s                 11     -1.554420  2 O  s          
    18      1.290851  2 O  py                40      1.284964  3 H  py         

 Vector   72  Occ=0.000000D+00  E= 2.808274D+00
              MO Center=  4.1D-02,  2.8D-01,  2.6D-04, r^2= 2.3D+00
   Bfn.  Coefficient  Atom+Function         Bfn.  Coefficient  Atom+Function  
  ----- ------------  ---------------      ----- ------------  ---------------
    44      3.352810  4 O  s                 45      2.983795  4 O  s          
    66     -2.074166  5 H  s                 75     -2.074089  6 H  s          
    50      1.428169  4 O  py                34      1.355952  3 H  s          
    49      1.212767  4 O  px                37      1.179140  3 H  py         
    65     -1.156504  5 H  s                 74     -1.156494  6 H  s          

 Vector   73  Occ=0.000000D+00  E= 3.197708D+00
[...]
    19     -0.194656  2 O  pz                 9     -0.136542  1 H  pz         
    61     -0.118106  4 bq d -1              22      0.104590  2 O  pz         
    26      0.057273  2 O  d  1              51      0.048488  4 bq pz         

 Vector   43  Occ=0.000000D+00  E= 1.744252D+00  Symmetry=a'
              MO Center= -2.5D-01,  9.4D-02, -1.5D-17, r^2= 1.8D+00
   Bfn.  Coefficient  Atom+Function         Bfn.  Coefficient  Atom+Function  
  ----- ------------  ---------------      ----- ------------  ---------------
    34      1.831998  3 H  s                  2     -1.401149  1 H  s          
    18     -1.136334  2 O  py                21     -1.139489  2 O  py         
    39      1.021951  3 H  px                17     -0.966871  2 O  px         
    32      0.809933  2 O  d  2               1     -0.802474  1 H  s          
     5     -0.754954  1 H  py                33      0.733129  3 H  s          

 Vector   44  Occ=0.000000D+00  E= 1.915810D+00  Symmetry=a"
              MO Center= -1.2D-01,  5.5D-01, -4.4D-16, r^2= 1.5D+00
   Bfn.  Coefficient  Atom+Function         Bfn.  Coefficient  Atom+Function  
  ----- ------------  ---------------      ----- ------------  ---------------
    38      1.335413  3 H  pz                19     -1.198798  2 O  pz         
    29     -0.895662  2 O  d -1               6      0.667252  1 H  pz         
    41      0.560275  3 H  pz                31     -0.515835  2 O  d  1       
    61      0.350850  4 bq d -1              51     -0.145839  4 bq pz         
    54     -0.080689  4 bq pz                 9     -0.049858  1 H  pz         

 Vector   45  Occ=0.000000D+00  E= 2.027411D+00  Symmetry=a'
              MO Center= -1.8D-01,  1.1D-01,  7.3D-17, r^2= 1.9D+00
   Bfn.  Coefficient  Atom+Function         Bfn.  Coefficient  Atom+Function  
  ----- ------------  ---------------      ----- ------------  ---------------
    12      2.699015  2 O  s                 13      2.548318  2 O  s          
    34     -2.076143  3 H  s                 40      1.561534  3 H  py         
     2     -1.451690  1 H  s                 28      1.363858  2 O  d -2       
    36     -1.062112  3 H  px                 5      1.033243  1 H  py         
    39     -0.995388  3 H  px                11     -0.925278  2 O  s          

 Vector   46  Occ=0.000000D+00  E= 2.160047D+00  Symmetry=a'
              MO Center= -5.9D-01, -7.5D-02,  9.8D-17, r^2= 1.2D+00
   Bfn.  Coefficient  Atom+Function         Bfn.  Coefficient  Atom+Function  
  ----- ------------  ---------------      ----- ------------  ---------------
    34      1.477408  3 H  s                  2     -1.120224  1 H  s          
     4      1.118416  1 H  px                 7     -0.906566  1 H  px         
    17     -0.813524  2 O  px                36      0.671909  3 H  px         
    11     -0.638778  2 O  s                 14      0.625235  2 O  px         
    28     -0.520480  2 O  d -2               8     -0.421336  1 H  py         

 Vector   47  Occ=0.000000D+00  E= 2.342056D+00  Symmetry=a'
              MO Center= -2.1D-01,  1.8D-01,  3.7D-16, r^2= 1.8D+00
   Bfn.  Coefficient  Atom+Function         Bfn.  Coefficient  Atom+Function  
  ----- ------------  ---------------      ----- ------------  ---------------
    34      6.176406  3 H  s                  2     -5.344831  1 H  s          
    18     -3.301461  2 O  py                33      2.233711  3 H  s          
     1     -1.939500  1 H  s                 17     -1.946807  2 O  px         
    32      1.881251  2 O  d  2               7     -1.556667  1 H  px         
    40     -1.255121  3 H  py                 8     -1.011082  1 H  py         

 Vector   48  Occ=0.000000D+00  E= 2.623987D+00  Symmetry=a'
              MO Center= -1.6D-02,  6.5D-01,  1.3D-17, r^2= 1.8D+00
   Bfn.  Coefficient  Atom+Function         Bfn.  Coefficient  Atom+Function  
  ----- ------------  ---------------      ----- ------------  ---------------
    12      4.081870  2 O  s                 34     -3.752020  3 H  s          
    13      3.363066  2 O  s                 40      2.375694  3 H  py         
    11     -1.872141  2 O  s                 17     -1.061139  2 O  px         
    37     -0.920447  3 H  py                10     -0.911466  2 O  s          
     1     -0.893776  1 H  s                 44     -0.729077  4 bq s          

 Vector   49  Occ=0.000000D+00  E= 2.644228D+00  Symmetry=a'
              MO Center= -9.5D-02,  2.9D-01,  1.7D-16, r^2= 1.7D+00
   Bfn.  Coefficient  Atom+Function         Bfn.  Coefficient  Atom+Function  
  ----- ------------  ---------------      ----- ------------  ---------------
    12      4.639051  2 O  s                 13      3.775114  2 O  s          
     2     -3.248230  1 H  s                 17     -2.086421  2 O  px         
    33     -1.919765  3 H  s                 34     -1.915808  3 H  s          
     1     -1.641534  1 H  s                 18      1.206701  2 O  py         
    37      1.107858  3 H  py                30     -1.068542  2 O  d  0       

 Vector   50  Occ=0.000000D+00  E= 3.071190D+00  Symmetry=a'
              MO Center=  1.0D-02,  2.2D+00,  2.5D-17, r^2= 1.6D+00
   Bfn.  Coefficient  Atom+Function         Bfn.  Coefficient  Atom+Function  
  ----- ------------  ---------------      ----- ------------  ---------------
    44      2.159099  4 bq s                 43     -1.744403  4 bq s          
    40     -1.188498  3 H  py                42     -0.996082  4 bq s          
     2     -0.791518  1 H  s                 18      0.628603  2 O  py         
    33     -0.623267  3 H  s                 35      0.515231  3 H  s          
    50     -0.433181  4 bq py                45     -0.401160  4 bq s          

 Vector   51  Occ=0.000000D+00  E= 3.181621D+00  Symmetry=a"
              MO Center=  1.0D-01, -7.5D-02,  2.1D-16, r^2= 7.7D-01
   Bfn.  Coefficient  Atom+Function         Bfn.  Coefficient  Atom+Function  
  ----- ------------  ---------------      ----- ------------  ---------------
    26      1.157643  2 O  d  1              31     -0.674264  2 O  d  1       
     9      0.414889  1 H  pz                22     -0.319197  2 O  pz         
    24      0.308188  2 O  d -1              41      0.179062  3 H  pz         
    29     -0.154795  2 O  d -1               6     -0.153104  1 H  pz         
    19     -0.141930  2 O  pz                38     -0.097524  3 H  pz         

 Vector   52  Occ=0.000000D+00  E= 3.237187D+00  Symmetry=a"
              MO Center=  7.7D-02, -4.0D-02, -1.2D-15, r^2= 8.0D-01
   Bfn.  Coefficient  Atom+Function         Bfn.  Coefficient  Atom+Function  
  ----- ------------  ---------------      ----- ------------  ---------------
    24      1.178136  2 O  d -1              29     -0.723289  2 O  d -1       
    41      0.652657  3 H  pz                26     -0.312161  2 O  d  1       
     9     -0.268982  1 H  pz                38     -0.219213  3 H  pz         
    31      0.203370  2 O  d  1              19     -0.149820  2 O  pz         
    22     -0.143027  2 O  pz                 6      0.086172  1 H  pz         

 Vector   53  Occ=0.000000D+00  E= 3.242409D+00  Symmetry=a'
              MO Center=  1.1D-01, -3.2D-02,  1.2D-15, r^2= 8.5D-01
   Bfn.  Coefficient  Atom+Function         Bfn.  Coefficient  Atom+Function  
  ----- ------------  ---------------      ----- ------------  ---------------
     2      1.743719  1 H  s                 23      1.127625  2 O  d -2       
    13     -0.801099  2 O  s                 12     -0.759055  2 O  s          
    40      0.711224  3 H  py                39      0.665418  3 H  px         
    28     -0.608458  2 O  d -2               7      0.599416  1 H  px         
    34     -0.543522  3 H  s                 17      0.435077  2 O  px         

 Vector   54  Occ=0.000000D+00  E= 3.571911D+00  Symmetry=a'
              MO Center=  8.5D-03,  3.1D-02,  9.0D-17, r^2= 1.2D+00
   Bfn.  Coefficient  Atom+Function         Bfn.  Coefficient  Atom+Function  
  ----- ------------  ---------------      ----- ------------  ---------------
    12      4.405437  2 O  s                 13      2.279599  2 O  s          
    34     -2.287883  3 H  s                  1     -1.737072  1 H  s          
    40      1.704010  3 H  py                17     -1.689107  2 O  px         
    25     -1.071871  2 O  d  0               4     -1.063665  1 H  px         
    33     -0.984441  3 H  s                  2     -0.782100  1 H  s          

 Vector   55  Occ=0.000000D+00  E= 3.955236D+00  Symmetry=a'
              MO Center=  5.6D-02,  1.0D-01, -1.1D-16, r^2= 1.2D+00
   Bfn.  Coefficient  Atom+Function         Bfn.  Coefficient  Atom+Function  
  ----- ------------  ---------------      ----- ------------  ---------------
    34      4.474513  3 H  s                  2     -2.884888  1 H  s          
    33      2.365120  3 H  s                 18     -2.289162  2 O  py         
    12     -2.272097  2 O  s                 40     -2.190153  3 H  py         
    13     -1.305750  2 O  s                 37     -1.277108  3 H  py         
    27      1.242687  2 O  d  2               7     -0.973892  1 H  px         

 Vector   56  Occ=0.000000D+00  E= 4.709426D+00  Symmetry=a"
              MO Center= -4.8D-03,  2.6D+00, -2.8D-17, r^2= 5.4D-01
   Bfn.  Coefficient  Atom+Function         Bfn.  Coefficient  Atom+Function  
  ----- ------------  ---------------      ----- ------------  ---------------
    58      1.159536  4 bq d  1              63     -0.490958  4 bq d  1       

 Vector   57  Occ=0.000000D+00  E= 4.713533D+00  Symmetry=a'
              MO Center= -9.6D-03,  2.6D+00, -9.5D-18, r^2= 5.5D-01
   Bfn.  Coefficient  Atom+Function         Bfn.  Coefficient  Atom+Function  
  ----- ------------  ---------------      ----- ------------  ---------------
    57      1.006512  4 bq d  0              59     -0.573491  4 bq d  2       
     2     -0.557883  1 H  s                 34      0.444748  3 H  s          
    62     -0.430845  4 bq d  0              64      0.242059  4 bq d  2       
    40     -0.223043  3 H  py                 7     -0.154247  1 H  px         
     8     -0.125544  1 H  py                17     -0.120782  2 O  px         

 Vector   58  Occ=0.000000D+00  E= 4.801320D+00  Symmetry=a"
              MO Center= -5.5D-03,  2.7D+00, -1.3D-16, r^2= 6.2D-01
   Bfn.  Coefficient  Atom+Function         Bfn.  Coefficient  Atom+Function  
  ----- ------------  ---------------      ----- ------------  ---------------
    56      1.184384  4 bq d -1              61     -0.612557  4 bq d -1       
    41     -0.396789  3 H  pz                19      0.231608  2 O  pz         
    29      0.139984  2 O  d -1              54      0.110139  4 bq pz         
    38     -0.104620  3 H  pz                 9      0.057363  1 H  pz         
    22      0.055471  2 O  pz                48      0.040565  4 bq pz         

 Vector   59  Occ=0.000000D+00  E= 4.825554D+00  Symmetry=a'
              MO Center= -2.1D-02,  2.7D+00, -1.9D-18, r^2= 6.3D-01
   Bfn.  Coefficient  Atom+Function         Bfn.  Coefficient  Atom+Function  
  ----- ------------  ---------------      ----- ------------  ---------------
    55      1.183658  4 bq d -2               2     -0.880194  1 H  s          
    39     -0.663814  3 H  px                60     -0.644969  4 bq d -2       
    34      0.469615  3 H  s                 40     -0.314183  3 H  py         
     8     -0.294608  1 H  py                13      0.286638  2 O  s          
    17      0.241407  2 O  px                 7     -0.197515  1 H  px         

 Vector   60  Occ=0.000000D+00  E= 4.857794D+00  Symmetry=a'
              MO Center= -1.5D-03,  2.8D+00,  1.2D-16, r^2= 6.0D-01
   Bfn.  Coefficient  Atom+Function         Bfn.  Coefficient  Atom+Function  
  ----- ------------  ---------------      ----- ------------  ---------------
    59      1.025292  4 bq d  2              64     -0.589029  4 bq d  2       
    57      0.579268  4 bq d  0              45      0.487489  4 bq s          
    34     -0.480824  3 H  s                 53     -0.362414  4 bq py         
    62     -0.333461  4 bq d  0              47     -0.211259  4 bq py         
     2      0.185203  1 H  s                 13     -0.181886  2 O  s          

 Vector   61  Occ=0.000000D+00  E= 5.399469D+00  Symmetry=a"
              MO Center= -6.5D-03,  2.6D+00,  2.3D-17, r^2= 5.2D-01
   Bfn.  Coefficient  Atom+Function         Bfn.  Coefficient  Atom+Function  
  ----- ------------  ---------------      ----- ------------  ---------------
    48      1.187455  4 bq pz                51     -0.723023  4 bq pz         
    41      0.231752  3 H  pz                54      0.215237  4 bq pz         
    19     -0.132952  2 O  pz                22     -0.118931  2 O  pz         
    29     -0.115940  2 O  d -1              61      0.072776  4 bq d -1       
    38      0.066750  3 H  pz                56     -0.057286  4 bq d -1       

 Vector   62  Occ=0.000000D+00  E= 5.434179D+00  Symmetry=a'
              MO Center=  4.8D-03,  2.6D+00,  3.8D-17, r^2= 5.4D-01
   Bfn.  Coefficient  Atom+Function         Bfn.  Coefficient  Atom+Function  
  ----- ------------  ---------------      ----- ------------  ---------------
    46      1.189985  4 bq px                 2      0.822447  1 H  s          
    49     -0.763758  4 bq px                34     -0.608426  3 H  s          
    39      0.564450  3 H  px                 8      0.372014  1 H  py         
    40      0.303208  3 H  py                 7      0.222678  1 H  px         
    52      0.195235  4 bq px                13     -0.186549  2 O  s          

 Vector   63  Occ=0.000000D+00  E= 5.879614D+00  Symmetry=a'
              MO Center=  1.2D-02,  2.5D+00, -6.2D-18, r^2= 7.3D-01
   Bfn.  Coefficient  Atom+Function         Bfn.  Coefficient  Atom+Function  
  ----- ------------  ---------------      ----- ------------  ---------------
    40      2.128909  3 H  py                50      1.377257  4 bq py         
    45     -1.243255  4 bq s                 47     -1.234079  4 bq py         
     2      0.975617  1 H  s                 12      0.976947  2 O  s          
    44     -0.531116  4 bq s                 34     -0.479321  3 H  s          
    37      0.436526  3 H  py                64      0.422207  4 bq d  2       

 Vector   64  Occ=0.000000D+00  E= 3.333376D+01  Symmetry=a'
              MO Center= -5.1D-03,  2.6D+00,  1.7D-19, r^2= 4.4D-02
   Bfn.  Coefficient  Atom+Function         Bfn.  Coefficient  Atom+Function  
  ----- ------------  ---------------      ----- ------------  ---------------
    42      0.738421  4 bq s                 43     -0.591769  4 bq s          
    44      0.398496  4 bq s                 40     -0.237391  3 H  py         
    34      0.220483  3 H  s                  2     -0.187765  1 H  s          
    12     -0.116220  2 O  s                 35      0.091456  3 H  s          
    13     -0.077079  2 O  s                 45     -0.073634  4 bq s          


 center of mass
 --------------
 x =   0.08796036 y =  -0.05425121 z =   0.00000000

 moments of inertia (a.u.)
 ------------------
           2.770222869942          -0.495271277007           0.000000000000
          -0.495271277007           3.003379155721           0.000000000000
           0.000000000000           0.000000000000           5.773602025663

     Multipole analysis of the density
     ---------------------------------

     L   x y z        total         alpha         beta         nuclear
     -   - - -        -----         -----         ----         -------
     0   0 0 0     -0.000000     -5.000000     -5.000000     10.000000

     1   1 0 0     -0.625454     -0.312727     -0.312727      0.000000
     1   0 1 0      0.410249      0.205124      0.205124      0.000000
     1   0 0 1     -0.000000     -0.000000     -0.000000      0.000000

     2   2 0 0     -4.261269     -3.532829     -3.532829      2.804389
     2   1 1 0      0.458288     -0.070743     -0.070743      0.599775
     2   1 0 1     -0.000000     -0.000000     -0.000000      0.000000
     2   0 2 0     -4.100795     -3.391342     -3.391342      2.681888
     2   0 1 1     -0.000000     -0.000000     -0.000000      0.000000
     2   0 0 2     -5.756320     -2.878160     -2.878160      0.000000


 Parallel integral file used      27 records with       0 large values


 Task  times  cpu:        0.4s     wall:        0.4s


                                NWChem Input Module
                                -------------------


 Summary of allocated global arrays
-----------------------------------
  No active global arrays



                         GA Statistics for process    0
                         ------------------------------

       create   destroy   get      put      acc     scatter   gather  read&inc
calls:  755      755     2.34e+04 3772     1.18e+04    0        0     1257     
number of processes/call 1.15e+00 1.27e+00 1.09e+00 0.00e+00 0.00e+00
bytes total:             6.90e+07 1.14e+07 3.53e+07 0.00e+00 0.00e+00 1.01e+04
bytes remote:            3.04e+07 4.09e+06 1.36e+07 0.00e+00 0.00e+00 0.00e+00
Max memory consumed for GA by this process: 566392 bytes

MA_summarize_allocated_blocks: starting scan ...
MA_summarize_allocated_blocks: scan completed: 0 heap blocks, 0 stack blocks
MA usage statistics:

	allocation statistics:
					      heap	     stack
					      ----	     -----
	current number of blocks	         0	         0
	maximum number of blocks	        22	        57
	current total bytes		         0	         0
	maximum total bytes		  25911200	  22513560
	maximum total K-bytes		     25912	     22514
	maximum total M-bytes		        26	        23


                                     CITATION
                                     --------
                Please cite the following reference when publishing
                           results obtained with NWChem:

                 M. Valiev, E.J. Bylaska, N. Govind, K. Kowalski,
              T.P. Straatsma, H.J.J. van Dam, D. Wang, J. Nieplocha,
                        E. Apra, T.L. Windus, W.A. de Jong
                 "NWChem: a comprehensive and scalable open-source
                  solution for large scale molecular simulations"
                      Comput. Phys. Commun. 181, 1477 (2010)
                           doi:10.1016/j.cpc.2010.04.018

                                      AUTHORS
                                      -------
          E. Apra, E. J. Bylaska, W. A. de Jong, N. Govind, K. Kowalski,
       T. P. Straatsma, M. Valiev, H. J. J. van Dam, D. Wang, T. L. Windus,
        J. Hammond, J. Autschbach, K. Bhaskaran-Nair, J. Brabec, K. Lopata,
    S. A. Fischer, S. Krishnamoorthy, M. Jacquelin, W. Ma, M. Klemm, O. Villa,
      Y. Chen, V. Anisimov, F. Aquino, S. Hirata, M. T. Hackler, V. Konjkov,
            D. Mejia-Rodriguez, T. Risthaus, M. Malagoli, A. Marenich,
   A. Otero-de-la-Roza, J. Mullin, P. Nichols, R. Peverati, J. Pittner, Y. Zhao,
        P.-D. Fan, A. Fonari, M. J. Williamson, R. J. Harrison, J. R. Rehr,
      M. Dupuis, D. Silverstein, D. M. A. Smith, J. Nieplocha, V. Tipparaju,
    M. Krishnan, B. E. Van Kuiken, A. Vazquez-Mayagoitia, L. Jensen, M. Swart,
      Q. Wu, T. Van Voorhis, A. A. Auer, M. Nooijen, L. D. Crosby, E. Brown,
      G. Cisneros, G. I. Fann, H. Fruchtl, J. Garza, K. Hirao, R. A. Kendall,
      J. A. Nichols, K. Tsemekhman, K. Wolinski, J. Anchell, D. E. Bernholdt,
      P. Borowski, T. Clark, D. Clerc, H. Dachsel, M. J. O. Deegan, K. Dyall,
    D. Elwood, E. Glendening, M. Gutowski, A. C. Hess, J. Jaffe, B. G. Johnson,
     J. Ju, R. Kobayashi, R. Kutteh, Z. Lin, R. Littlefield, X. Long, B. Meng,
      T. Nakajima, S. Niu, L. Pollack, M. Rosing, K. Glaesemann, G. Sandrone,
      M. Stave, H. Taylor, G. Thomas, J. H. van Lenthe, A. T. Wong, Z. Zhang.

 Total times  cpu:        3.0s     wall:        3.1s
[0] ARMCI Warning: Freed 1 leaked allocations
