 argument  1 = /home/list1234/source/nwchem-6.8.1-release/QA/tests/dft_mpw1k/dft_mpw1k.nw



============================== echo of input deck ==============================
echo
title "ch4+ mpw1k from S. Parthiban and J.M.L. Martin JCP 114,6014-6029 (2001)"
start dft_mpw1k

geometry
 C      -0.17835627    -0.07079230     0.00000000
 H       0.60168160    -0.93456635     0.00000000
 H      -0.51729906    -1.18414149     0.00000000
 H      -0.28986450     0.42953812     0.94477639
 H      -0.28986450     0.42953812    -0.94477639
end
charge 1d0
basis
* library cc-pvtz
end

dft
xc mpw1k
mult 2
end

task dft optimize
================================================================================


                                         
                                         


              Northwest Computational Chemistry Package (NWChem) 6.8
              ------------------------------------------------------


                    Environmental Molecular Sciences Laboratory
                       Pacific Northwest National Laboratory
                                Richland, WA 99352

                              Copyright (c) 1994-2018
                       Pacific Northwest National Laboratory
                            Battelle Memorial Institute

             NWChem is an open-source computational chemistry package
                        distributed under the terms of the
                      Educational Community License (ECL) 2.0
             A copy of the license is included with this distribution
                              in the LICENSE.TXT file

                                  ACKNOWLEDGMENT
                                  --------------

            This software and its documentation were developed at the
            EMSL at Pacific Northwest National Laboratory, a multiprogram
            national laboratory, operated for the U.S. Department of Energy
            by Battelle under Contract Number DE-AC05-76RL01830. Support
            for this work was provided by the Department of Energy Office
            of Biological and Environmental Research, Office of Basic
            Energy Sciences, and the Office of Advanced Scientific Computing.


           Job information
           ---------------

    hostname        = list1234-B360M-H
    program         = /home/list1234/source/nwchem-6.8.1-release/bin/LINUX64/nwchem
    date            = Sun Jun 30 12:46:00 2019

    compiled        = Sun_Jun_30_11:55:59_2019
    source          = /home/list1234/source/nwchem-6.8.1-release
    nwchem branch   = Development
    nwchem revision = N/A
    ga revision     = 5.6.5
    use scalapack   = T
    input           = /home/list1234/source/nwchem-6.8.1-release/QA/tests/dft_mpw1k/dft_mpw1k.nw
    prefix          = dft_mpw1k.
    data base       = ./dft_mpw1k.db
    status          = startup
    nproc           =        4
    time left       =     -1s



           Memory information
           ------------------

    heap     =   86247162 doubles =    658.0 Mbytes
    stack    =   86247167 doubles =    658.0 Mbytes
    global   =  172494336 doubles =   1316.0 Mbytes (distinct from heap & stack)
    total    =  344988665 doubles =   2632.1 Mbytes
    verify   = yes
    hardfail = no 


           Directory information
           ---------------------

  0 permanent = .
  0 scratch   = .




                                NWChem Input Module
                                -------------------


      ch4+ mpw1k from S. Parthiban and J.M.L. Martin JCP 114,6014-6029 (2001)
      -----------------------------------------------------------------------

 Scaling coordinates for geometry "geometry" by  1.889725989
 (inverse scale =  0.529177249)

 C2V symmetry detected

          ------
          auto-z
          ------
  Looking for out-of-plane bends
  no constraints, skipping    0.0000000000000000     
  no constraints, skipping    0.0000000000000000     


                             Geometry "geometry" -> ""
                             -------------------------

 Output coordinates in angstroms (scale by  1.889725989 to convert to a.u.)

  No.       Tag          Charge          X              Y              Z
 ---- ---------------- ---------- -------------- -------------- --------------
    1 C                    6.0000     0.00000000     0.00000000    -0.10005184
    2 H                    1.0000     0.57323762     0.00000000     0.91281306
    3 H                    1.0000    -0.57323762     0.00000000     0.91281306
    4 H                    1.0000     0.00000000     0.94477639    -0.61265754
    5 H                    1.0000     0.00000000    -0.94477639    -0.61265754

      Atomic Mass 
      ----------- 

      C                 12.000000
      H                  1.007825


 Effective nuclear repulsion energy (a.u.)      13.2293242908

            Nuclear Dipole moment (a.u.) 
            ----------------------------
        X                 Y               Z
 ---------------- ---------------- ----------------
     0.0000000000     0.0000000000     0.0000000000

      Symmetry information
      --------------------

 Group name             C2v       
 Group number             16
 Group order               4
 No. of unique centers     3

      Symmetry unique atoms

     1    2    4



                                Z-matrix (autoz)
                                -------- 

 Units are Angstrom for bonds and degrees for angles

      Type          Name      I     J     K     L     M      Value
      ----------- --------  ----- ----- ----- ----- ----- ----------
    1 Stretch                  1     2                       1.16383
    2 Stretch                  1     3                       1.16383
    3 Stretch                  1     4                       1.07488
    4 Stretch                  1     5                       1.07488
    5 Bend                     2     1     3                59.01596
    6 Bend                     2     1     4               114.52160
    7 Bend                     2     1     5               114.52160
    8 Bend                     3     1     4               114.52160
    9 Bend                     3     1     5               114.52160
   10 Bend                     4     1     5               123.03429


            XYZ format geometry
            -------------------
     5
 geometry
 C                     0.00000000     0.00000000    -0.10005184
 H                     0.57323762     0.00000000     0.91281306
 H                    -0.57323762     0.00000000     0.91281306
 H                     0.00000000     0.94477639    -0.61265754
 H                     0.00000000    -0.94477639    -0.61265754

 ==============================================================================
                                internuclear distances
 ------------------------------------------------------------------------------
       center one      |      center two      | atomic units |  angstroms
 ------------------------------------------------------------------------------
    2 H                |   1 C                |     2.19932  |     1.16383
    3 H                |   1 C                |     2.19932  |     1.16383
    4 H                |   1 C                |     2.03123  |     1.07488
    5 H                |   1 C                |     2.03123  |     1.07488
 ------------------------------------------------------------------------------
                         number of included internuclear distances:          4
 ==============================================================================



 ==============================================================================
                                 internuclear angles
 ------------------------------------------------------------------------------
        center 1       |       center 2       |       center 3       |  degrees
 ------------------------------------------------------------------------------
    2 H                |   1 C                |   3 H                |    59.02
    2 H                |   1 C                |   4 H                |   114.52
    2 H                |   1 C                |   5 H                |   114.52
    3 H                |   1 C                |   4 H                |   114.52
    3 H                |   1 C                |   5 H                |   114.52
    4 H                |   1 C                |   5 H                |   123.03
 ------------------------------------------------------------------------------
                            number of included internuclear angles:          6
 ==============================================================================





 Summary of "ao basis" -> "" (cartesian)
 ------------------------------------------------------------------------------
       Tag                 Description            Shells   Functions and Types
 ---------------- ------------------------------  ------  ---------------------
 *                          cc-pvtz                   on all atoms 




                           NWChem Geometry Optimization
                           ----------------------------




      ch4+ mpw1k from S. Parthiban and J.M.L. Martin JCP 114,6014-6029 (2001)


  no constraints, skipping    0.0000000000000000     
 maximum gradient threshold         (gmax) =   0.000450
 rms gradient threshold             (grms) =   0.000300
 maximum cartesian step threshold   (xmax) =   0.001800
 rms cartesian step threshold       (xrms) =   0.001200
 fixed trust radius                (trust) =   0.300000
 maximum step size to saddle      (sadstp) =   0.100000
 energy precision                  (eprec) =   5.0D-06
 maximum number of steps          (nptopt) =   20
 initial hessian option           (inhess) =    0
 line search option               (linopt) =    1
 hessian update option            (modupd) =    1
 saddle point option              (modsad) =    0
 initial eigen-mode to follow     (moddir) =    0
 initial variable to follow       (vardir) =    0
 follow first negative mode     (firstneg) =    T
 apply conjugacy                    (opcg) =    F
 source of zmatrix                         =   autoz   


          -------------------
          Energy Minimization
          -------------------


 Names of Z-matrix variables 
    1              2              3              4              5         
    6              7              8              9             10         

 Variables with the same non-blank name are constrained to be equal


 Using diagonal initial Hessian 
 Scaling for Hessian diagonals: bonds = 1.00  angles = 0.25  torsions = 0.10

          --------
          Step   0
          --------


                         Geometry "geometry" -> "geometry"
                         ---------------------------------

 Output coordinates in angstroms (scale by  1.889725989 to convert to a.u.)

  No.       Tag          Charge          X              Y              Z
 ---- ---------------- ---------- -------------- -------------- --------------
    1 C                    6.0000     0.00000000     0.00000000    -0.10005184
    2 H                    1.0000     0.57323762     0.00000000     0.91281306
    3 H                    1.0000    -0.57323762     0.00000000     0.91281306
    4 H                    1.0000     0.00000000     0.94477639    -0.61265754
    5 H                    1.0000     0.00000000    -0.94477639    -0.61265754

      Atomic Mass 
      ----------- 

      C                 12.000000
      H                  1.007825


 Effective nuclear repulsion energy (a.u.)      13.2293242908

            Nuclear Dipole moment (a.u.) 
            ----------------------------
        X                 Y               Z
 ---------------- ---------------- ----------------
     0.0000000000     0.0000000000     0.0000000000

      Symmetry information
      --------------------

 Group name             C2v       
 Group number             16
 Group order               4
 No. of unique centers     3

      Symmetry unique atoms

     1    2    4


                                 NWChem DFT Module
                                 -----------------


      ch4+ mpw1k from S. Parthiban and J.M.L. Martin JCP 114,6014-6029 (2001)


                      Basis "ao basis" -> "ao basis" (cartesian)
                      -----
  C (Carbon)
  ----------
            Exponent  Coefficients 
       -------------- ---------------------------------------------------------
  1 S  8.23600000E+03  0.000531
  1 S  1.23500000E+03  0.004108
  1 S  2.80800000E+02  0.021087
  1 S  7.92700000E+01  0.081853
  1 S  2.55900000E+01  0.234817
  1 S  8.99700000E+00  0.434401
  1 S  3.31900000E+00  0.346129
  1 S  3.64300000E-01 -0.008983

  2 S  8.23600000E+03 -0.000113
  2 S  1.23500000E+03 -0.000878
  2 S  2.80800000E+02 -0.004540
  2 S  7.92700000E+01 -0.018133
  2 S  2.55900000E+01 -0.055760
  2 S  8.99700000E+00 -0.126895
  2 S  3.31900000E+00 -0.170352
  2 S  3.64300000E-01  0.598684

  3 S  9.05900000E-01  1.000000

  4 S  1.28500000E-01  1.000000

  5 P  1.87100000E+01  0.014031
  5 P  4.13300000E+00  0.086866
  5 P  1.20000000E+00  0.290216

  6 P  3.82700000E-01  1.000000

  7 P  1.20900000E-01  1.000000

  8 D  1.09700000E+00  1.000000

  9 D  3.18000000E-01  1.000000

 10 F  7.61000000E-01  1.000000

  H (Hydrogen)
  ------------
            Exponent  Coefficients 
       -------------- ---------------------------------------------------------
  1 S  3.38700000E+01  0.006068
  1 S  5.09500000E+00  0.045308
  1 S  1.15900000E+00  0.202822

  2 S  3.25800000E-01  1.000000

  3 S  1.02700000E-01  1.000000

  4 P  1.40700000E+00  1.000000

  5 P  3.88000000E-01  1.000000

  6 D  1.05700000E+00  1.000000



 Summary of "ao basis" -> "ao basis" (cartesian)
 ------------------------------------------------------------------------------
       Tag                 Description            Shells   Functions and Types
 ---------------- ------------------------------  ------  ---------------------
 C                          cc-pvtz                 10       35   4s3p2d1f
 H                          cc-pvtz                  6       15   3s2p1d




 Summary of "ao basis" -> "ao basis" (cartesian)
 ------------------------------------------------------------------------------
       Tag                 Description            Shells   Functions and Types
 ---------------- ------------------------------  ------  ---------------------
 C                          cc-pvtz                 10       35   4s3p2d1f
 H                          cc-pvtz                  6       15   3s2p1d


      Symmetry analysis of basis
      --------------------------

        a1         38
        a2         11
        b1         23
        b2         23

  Caching 1-el integrals 

            General Information
            -------------------
          SCF calculation type: DFT
          Wavefunction type:  spin polarized.
          No. of atoms     :     5
          No. of electrons :     9
           Alpha electrons :     5
            Beta electrons :     4
          Charge           :     1
          Spin multiplicity:     2
          Use of symmetry is: on ; symmetry adaption is: on 
          Maximum number of iterations:  30
          AO basis - number of functions:    95
                     number of shells:    34
          Convergence on energy requested:  1.00D-06
          Convergence on density requested:  1.00D-05
          Convergence on gradient requested:  5.00D-04

              XC Information
              --------------
                        MPW1K Method XC Functional
                     Hartree-Fock (Exact) Exchange  0.428          
                        mPW91  Exchange Functional  0.572          
                Perdew 1991 Correlation Functional  1.000 non-local
            Perdew 1991 LDA Correlation Functional  1.000 local    

             Grid Information
             ----------------
          Grid used for XC integration:  medium    
          Radial quadrature: Mura-Knowles        
          Angular quadrature: Lebedev. 
          Tag              B.-S. Rad. Rad. Pts. Rad. Cut. Ang. Pts.
          ---              ---------- --------- --------- ---------
          C                   0.70       49           7.0       434
          H                   0.35       45           8.0       434
          Grid pruning is: on 
          Number of quadrature shells:   139
          Spatial weights used:  Erf1

          Convergence Information
          -----------------------
          Convergence aids based upon iterative change in 
          total energy or number of iterations. 
          Levelshifting, if invoked, occurs when the 
          HOMO/LUMO gap drops below (HL_TOL):  1.00D-02
          DIIS, if invoked, will attempt to extrapolate 
          using up to (NFOCK): 10 stored Fock matrices.

                    Damping( 0%)  Levelshifting(0.5)       DIIS
                  --------------- ------------------- ---------------
          dE  on:    start            ASAP                start   
          dE off:    2 iters         30 iters            30 iters 


      Screening Tolerance Information
      -------------------------------
          Density screening/tol_rho:  1.00D-10
          AO Gaussian exp screening on grid/accAOfunc:  14
          CD Gaussian exp screening on grid/accCDfunc:  20
          XC Gaussian exp screening on grid/accXCfunc:  20
          Schwarz screening/accCoul:  1.00D-08


      Superposition of Atomic Density Guess
      -------------------------------------

 Sum of atomic energies:         -39.66973355

 Renormalizing density from      10.00 to      9

      Non-variational initial energy
      ------------------------------

 Total energy =     -37.085051
 1-e energy   =     -70.128800
 2-e energy   =      19.814424
 HOMO         =      -0.789361
 LUMO         =      -0.249979


   Symmetry analysis of molecular orbitals - initial alpha
   -------------------------------------------------------

  Numbering of irreducible representations: 

     1 a1          2 a2          3 b1          4 b2      

  Orbital symmetries:

     1 a1          2 a1          3 a1          4 b2          5 b1      
     6 a1          7 b1          8 a1          9 b2         10 b2      
    11 a1         12 b1         13 a1         14 a1         15 b1      


   Symmetry analysis of molecular orbitals - initial beta
   ------------------------------------------------------

  Numbering of irreducible representations: 

     1 a1          2 a2          3 b1          4 b2      

  Orbital symmetries:

     1 a1          2 a1          3 a1          4 b2          5 b1      
     6 a1          7 b1          8 a1          9 b2         10 b2      
    11 a1         12 b1         13 a1         14 a1         15 b1      

   Time after variat. SCF:      0.1
   Time prior to 1st pass:      0.1

 Integral file          = ./dft_mpw1k.aoints.0
 Record size in doubles =  65536        No. of integs per rec  =  43688
 Max. records in memory =     28        Max. records in file   = 161702
 No. of bits per label  =      8        No. of bits per value  =     64


 #quartets = 7.330D+04 #integrals = 3.248D+06 #direct =  0.0% #cached =100.0%


File balance: exchanges=     0  moved=     0  time=   0.0


 Grid_pts file          = ./dft_mpw1k.gridpts.0
 Record size in doubles =  12289        No. of grid_pts per rec  =   3070
 Max. records in memory =      7        Max. recs in file   =    862347


           Memory utilization after 1st SCF pass: 
           Heap Space remaining (MW):       84.32            84322794
          Stack Space remaining (MW):       86.25            86246220

   convergence    iter        energy       DeltaE   RMS-Dens  Diis-err    time
 ---------------- ----- ----------------- --------- --------- ---------  ------
 d= 0,ls=0.0,diis     1    -39.9757212871 -5.32D+01  2.95D-03  2.56D-01     0.3
                                                     2.45D-03  2.05D-01
 d= 0,ls=0.0,diis     2    -40.0265874224 -5.09D-02  1.18D-03  7.41D-02     0.4
                                                     8.83D-04  5.84D-02
 d= 0,ls=0.0,diis     3    -40.0590307729 -3.24D-02  1.36D-04  8.76D-04     0.5
                                                     1.21D-04  7.46D-04
 d= 0,ls=0.0,diis     4    -40.0594552208 -4.24D-04  2.38D-05  1.09D-05     0.6
                                                     1.59D-05  5.54D-06
 d= 0,ls=0.0,diis     5    -40.0594622285 -7.01D-06  6.13D-06  6.87D-07     0.7
                                                     7.12D-06  7.72D-07
 d= 0,ls=0.0,diis     6    -40.0594629065 -6.78D-07  3.06D-06  6.68D-08     0.8
                                                     2.54D-06  4.90D-08


         Total DFT energy =      -40.059462906547
      One electron energy =      -75.683302251050
           Coulomb energy =       28.949309622356
    Exchange-Corr. energy =       -6.554794568617
 Nuclear repulsion energy =       13.229324290764

 Numeric. integr. density =        9.000001810132

     Total iterative time =      0.7s



                  Occupations of the irreducible representations
                  ----------------------------------------------

                     irrep           alpha         beta
                     --------     --------     --------
                     a1                3.0          3.0
                     a2                0.0          0.0
                     b1                1.0          0.0
                     b2                1.0          1.0


                    DFT Final Alpha Molecular Orbital Analysis
                    ------------------------------------------

 Vector    1  Occ=1.000000D+00  E=-1.086664D+01  Symmetry=a1
              MO Center= -2.2D-17,  5.0D-17, -1.0D-01, r^2= 2.8D-02
   Bfn.  Coefficient  Atom+Function         Bfn.  Coefficient  Atom+Function  
  ----- ------------  ---------------      ----- ------------  ---------------
     1      0.991038  1 C  s                  3      0.052522  1 C  s          
     2      0.035313  1 C  s          

 Vector    2  Occ=1.000000D+00  E=-1.187899D+00  Symmetry=a1
              MO Center=  1.4D-15,  3.1D-15,  2.3D-01, r^2= 8.7D-01
   Bfn.  Coefficient  Atom+Function         Bfn.  Coefficient  Atom+Function  
  ----- ------------  ---------------      ----- ------------  ---------------
     2      0.418265  1 C  s                  4      0.140282  1 C  s          
    37      0.125467  2 H  s                 52      0.125467  3 H  s          
    36      0.110214  2 H  s                 51      0.110214  3 H  s          
     3      0.103632  1 C  s                 67      0.070154  4 H  s          
    82      0.070154  5 H  s                 66      0.062810  4 H  s          

 Vector    3  Occ=1.000000D+00  E=-8.736931D-01  Symmetry=a1
              MO Center= -1.3D-15, -2.3D-14, -1.0D-01, r^2= 1.2D+00
   Bfn.  Coefficient  Atom+Function         Bfn.  Coefficient  Atom+Function  
  ----- ------------  ---------------      ----- ------------  ---------------
     7      0.239948  1 C  pz                10      0.216479  1 C  pz         
    37      0.183416  2 H  s                 52      0.183416  3 H  s          
     2     -0.172250  1 C  s                 67     -0.149891  4 H  s          
    82     -0.149891  5 H  s                 36      0.112281  2 H  s          
    51      0.112281  3 H  s                  4     -0.106162  1 C  s          

 Vector    4  Occ=1.000000D+00  E=-8.168956D-01  Symmetry=b2
              MO Center=  3.0D-19,  1.9D-14, -2.9D-01, r^2= 1.1D+00
   Bfn.  Coefficient  Atom+Function         Bfn.  Coefficient  Atom+Function  
  ----- ------------  ---------------      ----- ------------  ---------------
     6      0.284764  1 C  py                 9      0.277618  1 C  py         
    67      0.218194  4 H  s                 82     -0.218194  5 H  s          
    66      0.144061  4 H  s                 81     -0.144061  5 H  s          
    12      0.138634  1 C  py                27      0.027707  1 C  fxxy       

 Vector    5  Occ=1.000000D+00  E=-7.406844D-01  Symmetry=b1
              MO Center= -2.2D-15,  4.0D-17,  2.4D-01, r^2= 1.1D+00
   Bfn.  Coefficient  Atom+Function         Bfn.  Coefficient  Atom+Function  
  ----- ------------  ---------------      ----- ------------  ---------------
     8      0.362041  1 C  px                 5      0.291418  1 C  px         
    37      0.232920  2 H  s                 52     -0.232920  3 H  s          
    11      0.161016  1 C  px                36      0.121313  2 H  s          
    51     -0.121313  3 H  s                 38      0.070063  2 H  s          
    53     -0.070063  3 H  s                 22      0.045718  1 C  dxz        

 Vector    6  Occ=0.000000D+00  E=-2.000105D-01  Symmetry=a1
              MO Center= -2.8D-14,  9.6D-15,  9.0D-01, r^2= 3.5D+00
   Bfn.  Coefficient  Atom+Function         Bfn.  Coefficient  Atom+Function  
  ----- ------------  ---------------      ----- ------------  ---------------
     4      2.360794  1 C  s                 38     -0.987802  2 H  s          
    53     -0.987802  3 H  s                 13      0.536941  1 C  pz         
    68     -0.425703  4 H  s                 83     -0.425703  5 H  s          
     2      0.300171  1 C  s                 10      0.200931  1 C  pz         
    23     -0.187713  1 C  dyy               20     -0.169008  1 C  dxx        

 Vector    7  Occ=0.000000D+00  E=-1.691810D-01  Symmetry=b1
              MO Center=  1.1D-14,  7.5D-17,  6.7D-01, r^2= 2.6D+00
   Bfn.  Coefficient  Atom+Function         Bfn.  Coefficient  Atom+Function  
  ----- ------------  ---------------      ----- ------------  ---------------
    38      1.388056  2 H  s                 53     -1.388056  3 H  s          
    11     -0.762187  1 C  px                37      0.368461  2 H  s          
    52     -0.368461  3 H  s                  8     -0.253534  1 C  px         
     5     -0.221895  1 C  px                36      0.132692  2 H  s          
    51     -0.132692  3 H  s                 22      0.072708  1 C  dxz        

 Vector    8  Occ=0.000000D+00  E=-1.068769D-01  Symmetry=a1
              MO Center=  1.3D-14,  8.4D-14, -3.9D-01, r^2= 4.4D+00
   Bfn.  Coefficient  Atom+Function         Bfn.  Coefficient  Atom+Function  
  ----- ------------  ---------------      ----- ------------  ---------------
    68      1.507504  4 H  s                 83      1.507504  5 H  s          
     4     -1.271761  1 C  s                 13      1.221501  1 C  pz         
    38     -0.673093  2 H  s                 53     -0.673093  3 H  s          
    10      0.294752  1 C  pz                37     -0.215642  2 H  s          
    52     -0.215642  3 H  s                  7      0.195426  1 C  pz         

 Vector    9  Occ=0.000000D+00  E=-8.720712D-02  Symmetry=b2
              MO Center=  4.0D-18, -9.7D-14, -7.3D-01, r^2= 4.0D+00
   Bfn.  Coefficient  Atom+Function         Bfn.  Coefficient  Atom+Function  
  ----- ------------  ---------------      ----- ------------  ---------------
    68      1.930256  4 H  s                 83     -1.930256  5 H  s          
    12     -1.642752  1 C  py                67      0.398788  4 H  s          
    82     -0.398788  5 H  s                  9     -0.283266  1 C  py         
     6     -0.191942  1 C  py                73     -0.077457  4 H  py         
    88     -0.077457  5 H  py                66      0.056146  4 H  s          

 Vector   10  Occ=0.000000D+00  E=-1.060627D-02  Symmetry=b2
              MO Center=  3.1D-18,  5.6D-15,  3.1D-01, r^2= 3.6D+00
   Bfn.  Coefficient  Atom+Function         Bfn.  Coefficient  Atom+Function  
  ----- ------------  ---------------      ----- ------------  ---------------
    12      1.531988  1 C  py                67     -1.320825  4 H  s          
    82      1.320825  5 H  s                 24     -0.361442  1 C  dyz        
    73      0.179803  4 H  py                88      0.179803  5 H  py         
    68      0.132129  4 H  s                 83     -0.132129  5 H  s          
    43      0.108415  2 H  py                58      0.108415  3 H  py         

 Vector   11  Occ=0.000000D+00  E= 2.006133D-03  Symmetry=a1
              MO Center= -1.7D-14,  3.2D-15, -5.9D-01, r^2= 3.6D+00
   Bfn.  Coefficient  Atom+Function         Bfn.  Coefficient  Atom+Function  
  ----- ------------  ---------------      ----- ------------  ---------------
    13      1.700431  1 C  pz                37     -1.167646  2 H  s          
    52     -1.167646  3 H  s                 67      0.747085  4 H  s          
    82      0.747085  5 H  s                 25      0.293976  1 C  dzz        
    10      0.283718  1 C  pz                23     -0.227204  1 C  dyy        
     4      0.192393  1 C  s                 74      0.128587  4 H  pz         

 Vector   12  Occ=0.000000D+00  E= 1.205058D-02  Symmetry=b1
              MO Center=  2.2D-14, -1.7D-19,  2.3D-01, r^2= 4.4D+00
   Bfn.  Coefficient  Atom+Function         Bfn.  Coefficient  Atom+Function  
  ----- ------------  ---------------      ----- ------------  ---------------
    38      1.177481  2 H  s                 53     -1.177481  3 H  s          
    37     -0.958823  2 H  s                 52      0.958823  3 H  s          
    11      0.807454  1 C  px                 8     -0.509542  1 C  px         
    29      0.134511  1 C  fxyy              26      0.128540  1 C  fxxx       
    31      0.126796  1 C  fxzz              44      0.078863  2 H  pz         

 Vector   13  Occ=0.000000D+00  E= 6.235269D-02  Symmetry=a1
              MO Center=  1.9D-16, -2.5D-17,  6.1D-02, r^2= 2.8D+00
   Bfn.  Coefficient  Atom+Function         Bfn.  Coefficient  Atom+Function  
  ----- ------------  ---------------      ----- ------------  ---------------
     4      2.286100  1 C  s                 67     -0.963792  4 H  s          
    82     -0.963792  5 H  s                 25     -0.598698  1 C  dzz        
    13     -0.488580  1 C  pz                37     -0.467783  2 H  s          
    52     -0.467783  3 H  s                 38      0.381648  2 H  s          
    53      0.381648  3 H  s                 23     -0.315442  1 C  dyy        

 Vector   14  Occ=0.000000D+00  E= 1.580326D-01  Symmetry=a1
              MO Center= -1.1D-15,  2.5D-18,  9.9D-01, r^2= 4.4D+00
   Bfn.  Coefficient  Atom+Function         Bfn.  Coefficient  Atom+Function  
  ----- ------------  ---------------      ----- ------------  ---------------
     4      8.966363  1 C  s                 38     -2.114927  2 H  s          
    53     -2.114927  3 H  s                 13      2.083317  1 C  pz         
    23     -1.358816  1 C  dyy               20     -1.173925  1 C  dxx        
     3     -0.992992  1 C  s                 25     -0.741398  1 C  dzz        
    68     -0.691290  4 H  s                 83     -0.691290  5 H  s          

 Vector   15  Occ=0.000000D+00  E= 1.816820D-01  Symmetry=b1
              MO Center=  1.0D-14,  6.4D-16,  5.8D-01, r^2= 4.7D+00
   Bfn.  Coefficient  Atom+Function         Bfn.  Coefficient  Atom+Function  
  ----- ------------  ---------------      ----- ------------  ---------------
    38      2.950240  2 H  s                 53     -2.950240  3 H  s          
    11     -2.119590  1 C  px                 8      0.874480  1 C  px         
    22     -0.658566  1 C  dxz               31     -0.366563  1 C  fxzz       
    44     -0.298855  2 H  pz                59      0.298855  3 H  pz         
    37     -0.241976  2 H  s                 52      0.241976  3 H  s          

 Vector   16  Occ=0.000000D+00  E= 2.340860D-01  Symmetry=a1
              MO Center=  8.3D-17, -3.4D-16, -6.8D-01, r^2= 4.6D+00
   Bfn.  Coefficient  Atom+Function         Bfn.  Coefficient  Atom+Function  
  ----- ------------  ---------------      ----- ------------  ---------------
     4      5.691640  1 C  s                 68     -2.570514  4 H  s          
    83     -2.570514  5 H  s                 13     -2.380095  1 C  pz         
    25     -1.181331  1 C  dzz               20     -1.140024  1 C  dxx        
    38      0.675369  2 H  s                 53      0.675369  3 H  s          
     3     -0.647944  1 C  s                 73      0.512158  4 H  py         

 Vector   17  Occ=0.000000D+00  E= 2.496761D-01  Symmetry=b2
              MO Center=  6.8D-18, -1.3D-15, -6.5D-01, r^2= 4.5D+00
   Bfn.  Coefficient  Atom+Function         Bfn.  Coefficient  Atom+Function  
  ----- ------------  ---------------      ----- ------------  ---------------
    12      3.292048  1 C  py                68     -2.932028  4 H  s          
    83      2.932028  5 H  s                 24     -1.240198  1 C  dyz        
    73      0.534774  4 H  py                88      0.534774  5 H  py         
    67     -0.490049  4 H  s                 82      0.490049  5 H  s          
    74     -0.343221  4 H  pz                89      0.343221  5 H  pz         

 Vector   18  Occ=0.000000D+00  E= 2.552072D-01  Symmetry=a2
              MO Center=  4.0D-19, -6.0D-16, -7.7D-02, r^2= 1.8D+00
   Bfn.  Coefficient  Atom+Function         Bfn.  Coefficient  Atom+Function  
  ----- ------------  ---------------      ----- ------------  ---------------
    21      0.803463  1 C  dxy               72      0.318478  4 H  px         
    87     -0.318478  5 H  px                43      0.295553  2 H  py         
    58     -0.295553  3 H  py                15      0.034341  1 C  dxy        

 Vector   19  Occ=0.000000D+00  E= 4.543233D-01  Symmetry=a1
              MO Center= -3.5D-15, -1.4D-15,  3.7D-01, r^2= 2.6D+00
   Bfn.  Coefficient  Atom+Function         Bfn.  Coefficient  Atom+Function  
  ----- ------------  ---------------      ----- ------------  ---------------
     4      5.646814  1 C  s                 67     -1.289220  4 H  s          
    82     -1.289220  5 H  s                 37     -1.254399  2 H  s          
    52     -1.254399  3 H  s                 20     -1.048914  1 C  dxx        
    68     -0.575032  4 H  s                 83     -0.575032  5 H  s          
    13      0.483003  1 C  pz                38     -0.444857  2 H  s          

 Vector   20  Occ=0.000000D+00  E= 5.555701D-01  Symmetry=b2
              MO Center=  6.7D-16,  6.1D-15,  1.5D-01, r^2= 2.6D+00
   Bfn.  Coefficient  Atom+Function         Bfn.  Coefficient  Atom+Function  
  ----- ------------  ---------------      ----- ------------  ---------------
    12      1.295975  1 C  py                67     -1.020014  4 H  s          
    82      1.020014  5 H  s                 43     -0.649880  2 H  py         
    58     -0.649880  3 H  py                 9      0.486778  1 C  py         
    24     -0.472837  1 C  dyz               74      0.419560  4 H  pz         
    89     -0.419560  5 H  pz                68     -0.403165  4 H  s          

 Vector   21  Occ=0.000000D+00  E= 5.858427D-01  Symmetry=b1
              MO Center= -1.5D-15, -2.0D-15,  8.4D-02, r^2= 2.4D+00
   Bfn.  Coefficient  Atom+Function         Bfn.  Coefficient  Atom+Function  
  ----- ------------  ---------------      ----- ------------  ---------------
    37     -1.815964  2 H  s                 52      1.815964  3 H  s          
    22      1.750522  1 C  dxz               11      0.768435  1 C  px         
    42      0.413194  2 H  px                57      0.413194  3 H  px         
    72     -0.411806  4 H  px                87     -0.411806  5 H  px         
     8      0.362493  1 C  px                44     -0.143478  2 H  pz         

 Vector   22  Occ=0.000000D+00  E= 6.200138D-01  Symmetry=a2
              MO Center= -8.6D-17,  1.5D-15,  3.1D-01, r^2= 2.4D+00
   Bfn.  Coefficient  Atom+Function         Bfn.  Coefficient  Atom+Function  
  ----- ------------  ---------------      ----- ------------  ---------------
    43      0.784474  2 H  py                58     -0.784474  3 H  py         
    72     -0.624251  4 H  px                87      0.624251  5 H  px         
    21      0.309544  1 C  dxy               30     -0.218825  1 C  fxyz       
    76      0.047536  4 H  dxy               91      0.047536  5 H  dxy        
    40     -0.039934  2 H  py                55      0.039934  3 H  py         

 Vector   23  Occ=0.000000D+00  E= 6.294269D-01  Symmetry=b2
              MO Center= -1.6D-15, -1.4D-15, -8.1D-02, r^2= 2.7D+00
   Bfn.  Coefficient  Atom+Function         Bfn.  Coefficient  Atom+Function  
  ----- ------------  ---------------      ----- ------------  ---------------
    67     -2.441464  4 H  s                 82      2.441464  5 H  s          
    12      2.348682  1 C  py                24     -2.090590  1 C  dyz        
     9      1.088903  1 C  py                68     -0.615848  4 H  s          
    83      0.615848  5 H  s                 74     -0.518217  4 H  pz         
    89      0.518217  5 H  pz                 6      0.168114  1 C  py         

 Vector   24  Occ=0.000000D+00  E= 6.551932D-01  Symmetry=a1
              MO Center=  3.7D-15,  7.4D-16,  7.3D-02, r^2= 2.4D+00
   Bfn.  Coefficient  Atom+Function         Bfn.  Coefficient  Atom+Function  
  ----- ------------  ---------------      ----- ------------  ---------------
     4      1.578960  1 C  s                 13      1.411626  1 C  pz         
    25      1.079643  1 C  dzz               20     -1.051643  1 C  dxx        
    37     -0.993689  2 H  s                 52     -0.993689  3 H  s          
    42      0.484891  2 H  px                57     -0.484891  3 H  px         
    44     -0.326068  2 H  pz                59     -0.326068  3 H  pz         

 Vector   25  Occ=0.000000D+00  E= 7.156278D-01  Symmetry=a1
              MO Center=  1.3D-15,  5.7D-16, -4.1D-01, r^2= 2.7D+00
   Bfn.  Coefficient  Atom+Function         Bfn.  Coefficient  Atom+Function  
  ----- ------------  ---------------      ----- ------------  ---------------
    13      2.244467  1 C  pz                37     -2.026331  2 H  s          
    52     -2.026331  3 H  s                 67      1.866254  4 H  s          
    82      1.866254  5 H  s                 23     -1.764650  1 C  dyy        
    10      1.116537  1 C  pz                20      1.045061  1 C  dxx        
     4      0.766690  1 C  s                 25      0.712558  1 C  dzz        

 Vector   26  Occ=0.000000D+00  E= 7.667742D-01  Symmetry=b1
              MO Center= -9.9D-18,  5.1D-16, -3.5D-01, r^2= 2.4D+00
   Bfn.  Coefficient  Atom+Function         Bfn.  Coefficient  Atom+Function  
  ----- ------------  ---------------      ----- ------------  ---------------
    22      2.450788  1 C  dxz               72      1.023125  4 H  px         
    87      1.023125  5 H  px                38      0.593087  2 H  s          
    53     -0.593087  3 H  s                 37     -0.539365  2 H  s          
    52      0.539365  3 H  s                 42     -0.498702  2 H  px         
    57     -0.498702  3 H  px                11     -0.393514  1 C  px         

 Vector   27  Occ=0.000000D+00  E= 9.266988D-01  Symmetry=b1
              MO Center=  1.4D-14,  2.8D-16,  4.2D-01, r^2= 2.8D+00
   Bfn.  Coefficient  Atom+Function         Bfn.  Coefficient  Atom+Function  
  ----- ------------  ---------------      ----- ------------  ---------------
    22      1.549432  1 C  dxz               11      1.367492  1 C  px         
    42     -1.169114  2 H  px                57     -1.169114  3 H  px         
    44      1.140028  2 H  pz                59     -1.140028  3 H  pz         
    37     -0.725604  2 H  s                 52      0.725604  3 H  s          
    31      0.594192  1 C  fxzz               5      0.397251  1 C  px         

 Vector   28  Occ=0.000000D+00  E= 9.692036D-01  Symmetry=a1
              MO Center=  2.7D-14, -1.1D-14,  9.1D-01, r^2= 2.5D+00
   Bfn.  Coefficient  Atom+Function         Bfn.  Coefficient  Atom+Function  
  ----- ------------  ---------------      ----- ------------  ---------------
     4      7.406296  1 C  s                 23     -3.835347  1 C  dyy        
    10      2.591894  1 C  pz                67      1.991550  4 H  s          
    82      1.991550  5 H  s                 20     -1.933872  1 C  dxx        
    13      1.835884  1 C  pz                38     -1.573343  2 H  s          
    53     -1.573343  3 H  s                  3     -1.303450  1 C  s          

 Vector   29  Occ=0.000000D+00  E= 1.002754D+00  Symmetry=b2
              MO Center= -6.2D-17,  1.1D-13,  3.0D-02, r^2= 2.7D+00
   Bfn.  Coefficient  Atom+Function         Bfn.  Coefficient  Atom+Function  
  ----- ------------  ---------------      ----- ------------  ---------------
    24      5.649835  1 C  dyz               67      4.196383  4 H  s          
    82     -4.196383  5 H  s                  9     -2.894710  1 C  py         
    73     -2.095915  4 H  py                88     -2.095915  5 H  py         
    43     -0.991182  2 H  py                58     -0.991182  3 H  py         
    34     -0.272769  1 C  fyzz              32     -0.257730  1 C  fyyy       

 Vector   30  Occ=0.000000D+00  E= 1.012272D+00  Symmetry=a1
              MO Center= -6.6D-15, -5.9D-15, -5.5D-01, r^2= 2.7D+00
   Bfn.  Coefficient  Atom+Function         Bfn.  Coefficient  Atom+Function  
  ----- ------------  ---------------      ----- ------------  ---------------
     4      6.451793  1 C  s                 25     -4.382309  1 C  dzz        
    10     -2.415486  1 C  pz                20     -2.328065  1 C  dxx        
    37      2.005915  2 H  s                 52      2.005915  3 H  s          
    67     -1.586115  4 H  s                 82     -1.586115  5 H  s          
    74     -1.369720  4 H  pz                89     -1.369720  5 H  pz         

 Vector   31  Occ=0.000000D+00  E= 1.033270D+00  Symmetry=a1
              MO Center= -3.9D-15, -1.1D-13, -1.0D-01, r^2= 3.0D+00
   Bfn.  Coefficient  Atom+Function         Bfn.  Coefficient  Atom+Function  
  ----- ------------  ---------------      ----- ------------  ---------------
     4      6.041608  1 C  s                 23     -3.394342  1 C  dyy        
    20     -2.235641  1 C  dxx               25     -1.435992  1 C  dzz        
    68     -1.362771  4 H  s                 83     -1.362771  5 H  s          
     3     -1.350304  1 C  s                 13     -1.053488  1 C  pz         
    74      0.908273  4 H  pz                89      0.908273  5 H  pz         

 Vector   32  Occ=0.000000D+00  E= 1.048350D+00  Symmetry=b1
              MO Center= -4.7D-14,  2.0D-15,  7.0D-01, r^2= 2.9D+00
   Bfn.  Coefficient  Atom+Function         Bfn.  Coefficient  Atom+Function  
  ----- ------------  ---------------      ----- ------------  ---------------
    22      3.847160  1 C  dxz               37     -3.180607  2 H  s          
    52      3.180607  3 H  s                 44      2.027906  2 H  pz         
    59     -2.027906  3 H  pz                38     -1.884868  2 H  s          
    53      1.884868  3 H  s                 42      1.800558  2 H  px         
    57      1.800558  3 H  px                 8      1.698828  1 C  px         

 Vector   33  Occ=0.000000D+00  E= 1.084873D+00  Symmetry=a2
              MO Center=  9.8D-16, -3.8D-15, -3.9D-03, r^2= 2.6D+00
   Bfn.  Coefficient  Atom+Function         Bfn.  Coefficient  Atom+Function  
  ----- ------------  ---------------      ----- ------------  ---------------
    21      3.668373  1 C  dxy               72     -1.275833  4 H  px         
    87      1.275833  5 H  px                43     -0.974335  2 H  py         
    58      0.974335  3 H  py                30     -0.109919  1 C  fxyz       
    76      0.085329  4 H  dxy               91      0.085329  5 H  dxy        
    69      0.072725  4 H  px                84     -0.072725  5 H  px         

 Vector   34  Occ=0.000000D+00  E= 1.091829D+00  Symmetry=b2
              MO Center= -1.7D-17, -1.2D-14, -6.3D-01, r^2= 3.1D+00
   Bfn.  Coefficient  Atom+Function         Bfn.  Coefficient  Atom+Function  
  ----- ------------  ---------------      ----- ------------  ---------------
     9      3.426880  1 C  py                67     -2.659971  4 H  s          
    82      2.659971  5 H  s                 12      2.605407  1 C  py         
    68     -2.054255  4 H  s                 83      2.054255  5 H  s          
    73      1.889780  4 H  py                88      1.889780  5 H  py         
    74     -1.470398  4 H  pz                89      1.470398  5 H  pz         

 Vector   35  Occ=0.000000D+00  E= 1.211904D+00  Symmetry=a1
              MO Center=  5.9D-15, -5.6D-15, -3.7D-01, r^2= 2.8D+00
   Bfn.  Coefficient  Atom+Function         Bfn.  Coefficient  Atom+Function  
  ----- ------------  ---------------      ----- ------------  ---------------
    37      1.388605  2 H  s                 52      1.388605  3 H  s          
    23      1.335216  1 C  dyy               13     -1.233320  1 C  pz         
    10     -1.138934  1 C  pz                73      1.099467  4 H  py         
    88     -1.099467  5 H  py                68     -0.902942  4 H  s          
    83     -0.902942  5 H  s                  3      0.715190  1 C  s          

 Vector   36  Occ=0.000000D+00  E= 1.481984D+00  Symmetry=b1
              MO Center= -1.3D-14, -9.6D-18,  5.6D-01, r^2= 2.1D+00
   Bfn.  Coefficient  Atom+Function         Bfn.  Coefficient  Atom+Function  
  ----- ------------  ---------------      ----- ------------  ---------------
    37      4.863357  2 H  s                 52     -4.863357  3 H  s          
    42     -2.006271  2 H  px                57     -2.006271  3 H  px         
     8      1.603374  1 C  px                31     -1.385367  1 C  fxzz       
    36     -0.974322  2 H  s                 51      0.974322  3 H  s          
    26     -0.863561  1 C  fxxx              22     -0.844517  1 C  dxz        

 Vector   37  Occ=0.000000D+00  E= 1.563547D+00  Symmetry=b2
              MO Center= -1.6D-16,  7.4D-16, -2.6D-01, r^2= 2.2D+00
   Bfn.  Coefficient  Atom+Function         Bfn.  Coefficient  Atom+Function  
  ----- ------------  ---------------      ----- ------------  ---------------
    24      3.074012  1 C  dyz               67     -1.727156  4 H  s          
    82      1.727156  5 H  s                 12      1.382581  1 C  py         
     9     -1.206493  1 C  py                66      1.011548  4 H  s          
    81     -1.011548  5 H  s                 34      0.711071  1 C  fyzz       
    32      0.701246  1 C  fyyy              43     -0.700502  2 H  py         

 Vector   38  Occ=0.000000D+00  E= 1.836803D+00  Symmetry=a1
              MO Center=  2.0D-14, -1.1D-15, -3.0D-02, r^2= 2.6D+00
   Bfn.  Coefficient  Atom+Function         Bfn.  Coefficient  Atom+Function  
  ----- ------------  ---------------      ----- ------------  ---------------
    37      2.617194  2 H  s                 52      2.617194  3 H  s          
    67     -2.614551  4 H  s                 82     -2.614551  5 H  s          
    10     -2.430174  1 C  pz                 4     -2.271645  1 C  s          
    25      1.565784  1 C  dzz               73      1.177320  4 H  py         
    88     -1.177320  5 H  py                36     -0.997117  2 H  s          

 Vector   39  Occ=0.000000D+00  E= 1.979095D+00  Symmetry=b1
              MO Center= -1.3D-14,  1.1D-16,  2.4D-01, r^2= 1.7D+00
   Bfn.  Coefficient  Atom+Function         Bfn.  Coefficient  Atom+Function  
  ----- ------------  ---------------      ----- ------------  ---------------
    37     -6.118956  2 H  s                 52      6.118956  3 H  s          
     8      5.752677  1 C  px                22      3.204320  1 C  dxz        
    44      1.880634  2 H  pz                59     -1.880634  3 H  pz         
    29     -1.524656  1 C  fxyy               5     -1.371780  1 C  px         
    42      1.359040  2 H  px                57      1.359040  3 H  px         

 Vector   40  Occ=0.000000D+00  E= 2.168109D+00  Symmetry=b2
              MO Center=  2.7D-17,  4.4D-15,  4.7D-02, r^2= 1.5D+00
   Bfn.  Coefficient  Atom+Function         Bfn.  Coefficient  Atom+Function  
  ----- ------------  ---------------      ----- ------------  ---------------
     9      5.668358  1 C  py                67     -4.595173  4 H  s          
    82      4.595173  5 H  s                 24     -2.285460  1 C  dyz        
    73      1.470794  4 H  py                88      1.470794  5 H  py         
     6     -1.093411  1 C  py                74     -1.002927  4 H  pz         
    89      1.002927  5 H  pz                12      0.934432  1 C  py         

 Vector   41  Occ=0.000000D+00  E= 2.226667D+00  Symmetry=a1
              MO Center= -1.0D-15, -2.7D-15,  3.4D-01, r^2= 1.2D+00
   Bfn.  Coefficient  Atom+Function         Bfn.  Coefficient  Atom+Function  
  ----- ------------  ---------------      ----- ------------  ---------------
     4      2.624959  1 C  s                 23     -1.412589  1 C  dyy        
    28      1.385687  1 C  fxxz              20     -1.236729  1 C  dxx        
     3     -0.941281  1 C  s                 67      0.757611  4 H  s          
    82      0.757611  5 H  s                 33     -0.538235  1 C  fyyz       
    25     -0.518211  1 C  dzz               19     -0.508572  1 C  dzz        

 Vector   42  Occ=0.000000D+00  E= 2.393029D+00  Symmetry=b1
              MO Center= -4.7D-15,  5.7D-16, -1.2D-02, r^2= 1.2D+00
   Bfn.  Coefficient  Atom+Function         Bfn.  Coefficient  Atom+Function  
  ----- ------------  ---------------      ----- ------------  ---------------
    22      1.351853  1 C  dxz               16     -1.202774  1 C  dxz        
    37     -0.880001  2 H  s                 52      0.880001  3 H  s          
    31      0.854369  1 C  fxzz              29      0.722482  1 C  fxyy       
    11      0.409805  1 C  px                41      0.311392  2 H  pz         
    56     -0.311392  3 H  pz                26     -0.222447  1 C  fxxx       

 Vector   43  Occ=0.000000D+00  E= 2.421912D+00  Symmetry=b2
              MO Center=  1.3D-16, -2.0D-17,  3.5D-01, r^2= 1.3D+00
   Bfn.  Coefficient  Atom+Function         Bfn.  Coefficient  Atom+Function  
  ----- ------------  ---------------      ----- ------------  ---------------
    24      2.421522  1 C  dyz               34     -1.649166  1 C  fyzz       
    67      1.337443  4 H  s                 82     -1.337443  5 H  s          
     9     -0.976471  1 C  py                12     -0.790858  1 C  py         
    46      0.609776  2 H  dxy               61     -0.609776  3 H  dxy        
    73     -0.589681  4 H  py                88     -0.589681  5 H  py         

 Vector   44  Occ=0.000000D+00  E= 2.448641D+00  Symmetry=a1
              MO Center=  2.6D-14, -1.2D-14,  3.0D-01, r^2= 2.2D+00
   Bfn.  Coefficient  Atom+Function         Bfn.  Coefficient  Atom+Function  
  ----- ------------  ---------------      ----- ------------  ---------------
    67      5.138482  4 H  s                 82      5.138482  5 H  s          
    23     -3.965163  1 C  dyy               25     -3.112813  1 C  dzz        
     3     -2.955428  1 C  s                 37      2.583192  2 H  s          
    52      2.583192  3 H  s                  4      2.315071  1 C  s          
    20     -2.225729  1 C  dxx               73     -1.494095  4 H  py         

 Vector   45  Occ=0.000000D+00  E= 2.453423D+00  Symmetry=a2
              MO Center= -2.6D-17, -3.4D-16, -3.2D-01, r^2= 1.1D+00
   Bfn.  Coefficient  Atom+Function         Bfn.  Coefficient  Atom+Function  
  ----- ------------  ---------------      ----- ------------  ---------------
    30      1.966389  1 C  fxyz              15     -1.064802  1 C  dxy        
    21      1.020317  1 C  dxy               76      0.398738  4 H  dxy        
    91      0.398738  5 H  dxy               43     -0.356943  2 H  py         
    58      0.356943  3 H  py                69     -0.265571  4 H  px         
    84      0.265571  5 H  px                77      0.103388  4 H  dxz        

 Vector   46  Occ=0.000000D+00  E= 2.570979D+00  Symmetry=a2
              MO Center= -6.8D-16,  2.1D-15,  1.7D-01, r^2= 1.1D+00
   Bfn.  Coefficient  Atom+Function         Bfn.  Coefficient  Atom+Function  
  ----- ------------  ---------------      ----- ------------  ---------------
    30      2.723785  1 C  fxyz              21     -2.251578  1 C  dxy        
    15      1.234224  1 C  dxy               72      0.660678  4 H  px         
    87     -0.660678  5 H  px                40      0.270055  2 H  py         
    55     -0.270055  3 H  py                49     -0.259185  2 H  dyz        
    64      0.259185  3 H  dyz               77      0.257266  4 H  dxz        

 Vector   47  Occ=0.000000D+00  E= 2.591733D+00  Symmetry=a1
              MO Center=  9.5D-16, -8.6D-16, -1.1D-01, r^2= 1.4D+00
   Bfn.  Coefficient  Atom+Function         Bfn.  Coefficient  Atom+Function  
  ----- ------------  ---------------      ----- ------------  ---------------
    23      2.039121  1 C  dyy               25     -1.846203  1 C  dzz        
    13     -1.256154  1 C  pz                37      1.204665  2 H  s          
    52      1.204665  3 H  s                 33     -1.186575  1 C  fyyz       
    67     -0.963949  4 H  s                 82     -0.963949  5 H  s          
    10     -0.693270  1 C  pz                35     -0.690846  1 C  fzzz       

 Vector   48  Occ=0.000000D+00  E= 2.630868D+00  Symmetry=b2
              MO Center=  8.4D-16,  6.5D-16, -1.2D-01, r^2= 1.3D+00
   Bfn.  Coefficient  Atom+Function         Bfn.  Coefficient  Atom+Function  
  ----- ------------  ---------------      ----- ------------  ---------------
    24      2.324365  1 C  dyz               32     -1.024144  1 C  fyyy       
    18     -0.959551  1 C  dyz               34      0.704583  1 C  fyzz       
    27      0.452587  1 C  fxxy              46      0.429284  2 H  dxy        
    61     -0.429284  3 H  dxy                9      0.419461  1 C  py         
    12     -0.413226  1 C  py                43     -0.406354  2 H  py         

 Vector   49  Occ=0.000000D+00  E= 2.679593D+00  Symmetry=a1
              MO Center=  7.0D-16, -4.6D-17, -1.5D-01, r^2= 1.1D+00
   Bfn.  Coefficient  Atom+Function         Bfn.  Coefficient  Atom+Function  
  ----- ------------  ---------------      ----- ------------  ---------------
    20      1.573378  1 C  dxx               10      1.256380  1 C  pz         
    28      1.085529  1 C  fxxz              37     -0.977685  2 H  s          
    52     -0.977685  3 H  s                 35     -0.903882  1 C  fzzz       
     4     -0.862517  1 C  s                 33      0.699065  1 C  fyyz       
    44      0.701443  2 H  pz                59      0.701443  3 H  pz         

 Vector   50  Occ=0.000000D+00  E= 2.699353D+00  Symmetry=b1
              MO Center= -3.5D-15, -3.7D-15, -7.4D-03, r^2= 1.3D+00
   Bfn.  Coefficient  Atom+Function         Bfn.  Coefficient  Atom+Function  
  ----- ------------  ---------------      ----- ------------  ---------------
    29      2.150879  1 C  fxyy              37     -1.540932  2 H  s          
    52      1.540932  3 H  s                 42      1.075358  2 H  px         
    57      1.075358  3 H  px                16      0.958003  1 C  dxz        
    22     -0.901428  1 C  dxz                8      0.816118  1 C  px         
    26     -0.650369  1 C  fxxx              72     -0.614571  4 H  px         

 Vector   51  Occ=0.000000D+00  E= 2.759422D+00  Symmetry=a1
              MO Center=  2.9D-15, -8.2D-15, -6.4D-02, r^2= 1.8D+00
   Bfn.  Coefficient  Atom+Function         Bfn.  Coefficient  Atom+Function  
  ----- ------------  ---------------      ----- ------------  ---------------
    10      4.126275  1 C  pz                37     -2.735600  2 H  s          
    52     -2.735600  3 H  s                 25      2.544585  1 C  dzz        
    44      1.628150  2 H  pz                59      1.628150  3 H  pz         
    13      1.387229  1 C  pz                20      1.091476  1 C  dxx        
     7     -0.922749  1 C  pz                42      0.883220  2 H  px         

 Vector   52  Occ=0.000000D+00  E= 2.858783D+00  Symmetry=b2
              MO Center= -6.5D-17, -3.1D-15, -2.0D-01, r^2= 1.7D+00
   Bfn.  Coefficient  Atom+Function         Bfn.  Coefficient  Atom+Function  
  ----- ------------  ---------------      ----- ------------  ---------------
     9      3.946216  1 C  py                67     -2.722393  4 H  s          
    82      2.722393  5 H  s                 73      1.711210  4 H  py         
    88      1.711210  5 H  py                18     -1.368827  1 C  dyz        
    74     -1.286558  4 H  pz                89      1.286558  5 H  pz         
    12      1.216570  1 C  py                24     -0.966014  1 C  dyz        

 Vector   53  Occ=0.000000D+00  E= 2.888219D+00  Symmetry=b1
              MO Center= -1.1D-14,  2.8D-17,  1.2D-01, r^2= 1.8D+00
   Bfn.  Coefficient  Atom+Function         Bfn.  Coefficient  Atom+Function  
  ----- ------------  ---------------      ----- ------------  ---------------
    31      3.701807  1 C  fxzz              22      3.604196  1 C  dxz        
    37     -2.369400  2 H  s                 52      2.369400  3 H  s          
    44      1.765142  2 H  pz                59     -1.765142  3 H  pz         
    11      1.031017  1 C  px                38     -0.999632  2 H  s          
    53      0.999632  3 H  s                 42      0.851206  2 H  px         

 Vector   54  Occ=0.000000D+00  E= 2.892028D+00  Symmetry=a1
              MO Center= -7.0D-16,  8.5D-16,  4.8D-01, r^2= 1.5D+00
   Bfn.  Coefficient  Atom+Function         Bfn.  Coefficient  Atom+Function  
  ----- ------------  ---------------      ----- ------------  ---------------
    23      3.671242  1 C  dyy               67     -2.683642  4 H  s          
    82     -2.683642  5 H  s                  4     -2.353872  1 C  s          
     3      1.812552  1 C  s                 25      1.220295  1 C  dzz        
    20      1.042422  1 C  dxx               37     -0.964915  2 H  s          
    52     -0.964915  3 H  s                 33     -0.735578  1 C  fyyz       

 Vector   55  Occ=0.000000D+00  E= 2.962916D+00  Symmetry=b2
              MO Center= -2.2D-17,  9.3D-15, -1.3D-01, r^2= 1.7D+00
   Bfn.  Coefficient  Atom+Function         Bfn.  Coefficient  Atom+Function  
  ----- ------------  ---------------      ----- ------------  ---------------
    24      3.995549  1 C  dyz               67      1.658218  4 H  s          
    82     -1.658218  5 H  s                  9     -1.536097  1 C  py         
    34     -1.535327  1 C  fyzz              32     -1.212481  1 C  fyyy       
    73     -1.217100  4 H  py                88     -1.217100  5 H  py         
    27      0.910485  1 C  fxxy              12     -0.733829  1 C  py         

 Vector   56  Occ=0.000000D+00  E= 3.025176D+00  Symmetry=a2
              MO Center=  4.5D-17,  1.0D-15, -2.7D-01, r^2= 1.6D+00
   Bfn.  Coefficient  Atom+Function         Bfn.  Coefficient  Atom+Function  
  ----- ------------  ---------------      ----- ------------  ---------------
    77      0.970389  4 H  dxz               92     -0.970389  5 H  dxz        
    21     -0.645385  1 C  dxy               76      0.467964  4 H  dxy        
    91      0.467964  5 H  dxy               49      0.372944  2 H  dyz        
    64     -0.372944  3 H  dyz               43      0.298403  2 H  py         
    58     -0.298403  3 H  py                15      0.291322  1 C  dxy        

 Vector   57  Occ=0.000000D+00  E= 3.064162D+00  Symmetry=a1
              MO Center= -7.0D-15, -7.6D-15, -1.7D-01, r^2= 1.5D+00
   Bfn.  Coefficient  Atom+Function         Bfn.  Coefficient  Atom+Function  
  ----- ------------  ---------------      ----- ------------  ---------------
     4      5.193776  1 C  s                 23     -4.808567  1 C  dyy        
    25     -4.267889  1 C  dzz                3     -3.676501  1 C  s          
    67      2.944200  4 H  s                 82      2.944200  5 H  s          
    20     -2.782745  1 C  dxx               33      2.584718  1 C  fyyz       
    73     -1.465746  4 H  py                88      1.465746  5 H  py         

 Vector   58  Occ=0.000000D+00  E= 3.390200D+00  Symmetry=b1
              MO Center=  2.9D-16,  2.8D-16,  7.3D-01, r^2= 1.5D+00
   Bfn.  Coefficient  Atom+Function         Bfn.  Coefficient  Atom+Function  
  ----- ------------  ---------------      ----- ------------  ---------------
     8      2.826755  1 C  px                37     -1.906109  2 H  s          
    52      1.906109  3 H  s                 42      1.795378  2 H  px         
    57      1.795378  3 H  px                29     -1.608041  1 C  fxyy       
    26     -1.308231  1 C  fxxx              22      1.021578  1 C  dxz        
    45     -0.740396  2 H  dxx               60      0.740396  3 H  dxx        

 Vector   59  Occ=0.000000D+00  E= 3.406756D+00  Symmetry=b1
              MO Center=  7.3D-16, -4.1D-17, -2.6D-01, r^2= 1.8D+00
   Bfn.  Coefficient  Atom+Function         Bfn.  Coefficient  Atom+Function  
  ----- ------------  ---------------      ----- ------------  ---------------
    29     -1.242740  1 C  fxyy               8      1.233949  1 C  px         
    77      0.918971  4 H  dxz               92      0.918971  5 H  dxz        
    26     -0.531319  1 C  fxxx              31      0.505999  1 C  fxzz       
    44      0.433197  2 H  pz                59     -0.433197  3 H  pz         
    50     -0.430693  2 H  dzz               65      0.430693  3 H  dzz        

 Vector   60  Occ=0.000000D+00  E= 3.465675D+00  Symmetry=b2
              MO Center= -1.4D-15,  1.4D-15, -2.3D-01, r^2= 1.7D+00
   Bfn.  Coefficient  Atom+Function         Bfn.  Coefficient  Atom+Function  
  ----- ------------  ---------------      ----- ------------  ---------------
    27      1.683822  1 C  fxxy              67     -1.044022  4 H  s          
    82      1.044022  5 H  s                 24     -0.712066  1 C  dyz        
    80      0.562083  4 H  dzz               95     -0.562083  5 H  dzz        
    78      0.510892  4 H  dyy               93     -0.510892  5 H  dyy        
    34     -0.412346  1 C  fyzz              68      0.390893  4 H  s          

 Vector   61  Occ=0.000000D+00  E= 3.516698D+00  Symmetry=a2
              MO Center=  2.2D-15,  1.6D-16,  6.4D-01, r^2= 1.4D+00
   Bfn.  Coefficient  Atom+Function         Bfn.  Coefficient  Atom+Function  
  ----- ------------  ---------------      ----- ------------  ---------------
    21      1.638881  1 C  dxy               43     -0.857135  2 H  py         
    58      0.857135  3 H  py                40      0.782317  2 H  py         
    55     -0.782317  3 H  py                15     -0.628356  1 C  dxy        
    72     -0.578187  4 H  px                87      0.578187  5 H  px         
    49      0.439630  2 H  dyz               64     -0.439630  3 H  dyz        

 Vector   62  Occ=0.000000D+00  E= 3.540621D+00  Symmetry=a1
              MO Center=  4.9D-16,  1.2D-15, -2.1D-01, r^2= 1.8D+00
   Bfn.  Coefficient  Atom+Function         Bfn.  Coefficient  Atom+Function  
  ----- ------------  ---------------      ----- ------------  ---------------
    37     -1.531898  2 H  s                 52     -1.531898  3 H  s          
    25      1.394716  1 C  dzz               33      0.939395  1 C  fyyz       
    67     -0.767620  4 H  s                 82     -0.767620  5 H  s          
    28      0.723540  1 C  fxxz               3      0.719243  1 C  s          
     4     -0.715850  1 C  s                 10      0.696310  1 C  pz         

 Vector   63  Occ=0.000000D+00  E= 3.550379D+00  Symmetry=a2
              MO Center=  3.1D-15, -5.6D-16, -1.8D-02, r^2= 2.0D+00
   Bfn.  Coefficient  Atom+Function         Bfn.  Coefficient  Atom+Function  
  ----- ------------  ---------------      ----- ------------  ---------------
    30      1.044049  1 C  fxyz              49      0.791877  2 H  dyz        
    64     -0.791877  3 H  dyz               69     -0.602118  4 H  px         
    84      0.602118  5 H  px                76     -0.597813  4 H  dxy        
    91     -0.597813  5 H  dxy               72      0.584249  4 H  px         
    87     -0.584249  5 H  px                46     -0.365463  2 H  dxy        

 Vector   64  Occ=0.000000D+00  E= 3.612371D+00  Symmetry=b2
              MO Center= -3.7D-17,  5.4D-15, -1.1D-01, r^2= 1.9D+00
   Bfn.  Coefficient  Atom+Function         Bfn.  Coefficient  Atom+Function  
  ----- ------------  ---------------      ----- ------------  ---------------
    24      1.624817  1 C  dyz               34     -1.161703  1 C  fyzz       
     9     -0.999046  1 C  py                12      0.909758  1 C  py         
    73     -0.767297  4 H  py                88     -0.767297  5 H  py         
    27      0.727920  1 C  fxxy              67      0.673343  4 H  s          
    82     -0.673343  5 H  s                 40      0.548199  2 H  py         

 Vector   65  Occ=0.000000D+00  E= 3.635522D+00  Symmetry=a1
              MO Center=  3.4D-14, -1.2D-14, -1.0D-01, r^2= 1.8D+00
   Bfn.  Coefficient  Atom+Function         Bfn.  Coefficient  Atom+Function  
  ----- ------------  ---------------      ----- ------------  ---------------
    10      1.718336  1 C  pz                67      1.722866  4 H  s          
    82      1.722866  5 H  s                 23     -1.627572  1 C  dyy        
    74      0.894619  4 H  pz                89      0.894619  5 H  pz         
    13     -0.625799  1 C  pz                37     -0.603994  2 H  s          
    52     -0.603994  3 H  s                 71     -0.563132  4 H  pz         

 Vector   66  Occ=0.000000D+00  E= 3.668160D+00  Symmetry=b2
              MO Center= -3.3D-15,  9.3D-15,  3.6D-01, r^2= 2.0D+00
   Bfn.  Coefficient  Atom+Function         Bfn.  Coefficient  Atom+Function  
  ----- ------------  ---------------      ----- ------------  ---------------
    27      1.001057  1 C  fxxy              34      0.959748  1 C  fyzz       
    49      0.774520  2 H  dyz               64      0.774520  3 H  dyz        
    24      0.706472  1 C  dyz                9     -0.697483  1 C  py         
    43     -0.682003  2 H  py                58     -0.682003  3 H  py         
    12      0.646884  1 C  py                80      0.607708  4 H  dzz        

 Vector   67  Occ=0.000000D+00  E= 3.690389D+00  Symmetry=b1
              MO Center= -3.5D-14,  5.4D-16,  5.3D-01, r^2= 1.4D+00
   Bfn.  Coefficient  Atom+Function         Bfn.  Coefficient  Atom+Function  
  ----- ------------  ---------------      ----- ------------  ---------------
     8      2.909250  1 C  px                26     -2.218539  1 C  fxxx       
    29     -2.149736  1 C  fxyy              37      1.984235  2 H  s          
    52     -1.984235  3 H  s                 31     -1.030723  1 C  fxzz       
    42     -0.974758  2 H  px                57     -0.974758  3 H  px         
    48     -0.871810  2 H  dyy               63      0.871810  3 H  dyy        

 Vector   68  Occ=0.000000D+00  E= 3.782242D+00  Symmetry=b1
              MO Center=  5.0D-16, -2.2D-16, -3.7D-01, r^2= 1.8D+00
   Bfn.  Coefficient  Atom+Function         Bfn.  Coefficient  Atom+Function  
  ----- ------------  ---------------      ----- ------------  ---------------
    22      1.341575  1 C  dxz                8      1.316437  1 C  px         
    37     -0.995953  2 H  s                 52      0.995953  3 H  s          
    76     -0.985079  4 H  dxy               91      0.985079  5 H  dxy        
    26     -0.907311  1 C  fxxx              72      0.667989  4 H  px         
    87      0.667989  5 H  px                69     -0.610012  4 H  px         

 Vector   69  Occ=0.000000D+00  E= 3.852502D+00  Symmetry=a1
              MO Center=  2.6D-15,  7.3D-16,  9.0D-02, r^2= 1.8D+00
   Bfn.  Coefficient  Atom+Function         Bfn.  Coefficient  Atom+Function  
  ----- ------------  ---------------      ----- ------------  ---------------
    28      1.103184  1 C  fxxz              37     -0.976949  2 H  s          
    52     -0.976949  3 H  s                 74     -0.673859  4 H  pz         
    89     -0.673859  5 H  pz                13      0.659995  1 C  pz         
    48      0.593324  2 H  dyy               63      0.593324  3 H  dyy        
    10      0.545418  1 C  pz                71      0.515768  4 H  pz         

 Vector   70  Occ=0.000000D+00  E= 3.982103D+00  Symmetry=a2
              MO Center= -7.9D-16,  1.8D-15,  6.2D-01, r^2= 1.4D+00
   Bfn.  Coefficient  Atom+Function         Bfn.  Coefficient  Atom+Function  
  ----- ------------  ---------------      ----- ------------  ---------------
    46      1.446848  2 H  dxy               61      1.446848  3 H  dxy        
    21     -0.830856  1 C  dxy               72      0.434697  4 H  px         
    87     -0.434697  5 H  px                30     -0.407930  1 C  fxyz       
    77      0.406470  4 H  dxz               92     -0.406470  5 H  dxz        
    69     -0.309982  4 H  px                84      0.309982  5 H  px         

 Vector   71  Occ=0.000000D+00  E= 4.034540D+00  Symmetry=a1
              MO Center=  1.9D-14,  2.8D-14,  8.7D-02, r^2= 1.7D+00
   Bfn.  Coefficient  Atom+Function         Bfn.  Coefficient  Atom+Function  
  ----- ------------  ---------------      ----- ------------  ---------------
     3      1.528323  1 C  s                 37     -1.305760  2 H  s          
    52     -1.305760  3 H  s                  2     -1.054150  1 C  s          
    20      1.035558  1 C  dxx               67     -0.968900  4 H  s          
    82     -0.968900  5 H  s                  1     -0.716093  1 C  s          
    19      0.713747  1 C  dzz               79      0.700073  4 H  dyz        

 Vector   72  Occ=0.000000D+00  E= 4.115360D+00  Symmetry=b1
              MO Center= -1.6D-14, -4.6D-16,  2.9D-01, r^2= 1.8D+00
   Bfn.  Coefficient  Atom+Function         Bfn.  Coefficient  Atom+Function  
  ----- ------------  ---------------      ----- ------------  ---------------
     8      7.294467  1 C  px                29     -3.260833  1 C  fxyy       
    26     -2.887779  1 C  fxxx              31     -2.840841  1 C  fxzz       
    22      2.775556  1 C  dxz               37     -1.818581  2 H  s          
    52      1.818581  3 H  s                 44      1.320252  2 H  pz         
    59     -1.320252  3 H  pz                 5     -0.945430  1 C  px         

 Vector   73  Occ=0.000000D+00  E= 4.204031D+00  Symmetry=b2
              MO Center=  3.4D-16, -2.4D-14, -4.4D-01, r^2= 1.7D+00
   Bfn.  Coefficient  Atom+Function         Bfn.  Coefficient  Atom+Function  
  ----- ------------  ---------------      ----- ------------  ---------------
    67      2.241423  4 H  s                 82     -2.241423  5 H  s          
    24     -1.677309  1 C  dyz               34     -1.125136  1 C  fyzz       
    75     -1.112357  4 H  dxx               90      1.112357  5 H  dxx        
    12     -0.856759  1 C  py                78     -0.804335  4 H  dyy        
    93      0.804335  5 H  dyy               32     -0.738609  1 C  fyyy       

 Vector   74  Occ=0.000000D+00  E= 4.208614D+00  Symmetry=b1
              MO Center=  5.5D-15, -1.3D-15,  2.4D-01, r^2= 1.6D+00
   Bfn.  Coefficient  Atom+Function         Bfn.  Coefficient  Atom+Function  
  ----- ------------  ---------------      ----- ------------  ---------------
     8      6.475487  1 C  px                37     -4.694200  2 H  s          
    52      4.694200  3 H  s                 26     -2.883674  1 C  fxxx       
    22      2.567031  1 C  dxz               29     -2.018058  1 C  fxyy       
    44      1.038997  2 H  pz                59     -1.038997  3 H  pz         
     5     -0.970257  1 C  px                42      0.878744  2 H  px         

 Vector   75  Occ=0.000000D+00  E= 4.215071D+00  Symmetry=a1
              MO Center= -3.6D-14,  5.0D-17,  3.0D-01, r^2= 1.7D+00
   Bfn.  Coefficient  Atom+Function         Bfn.  Coefficient  Atom+Function  
  ----- ------------  ---------------      ----- ------------  ---------------
    37      2.106781  2 H  s                 52      2.106781  3 H  s          
    10     -1.801234  1 C  pz                67     -1.676830  4 H  s          
    82     -1.676830  5 H  s                  4     -1.287656  1 C  s          
    28      1.199266  1 C  fxxz              45     -0.721378  2 H  dxx        
    60     -0.721378  3 H  dxx               50     -0.687172  2 H  dzz        

 Vector   76  Occ=0.000000D+00  E= 4.396450D+00  Symmetry=a1
              MO Center=  2.5D-15, -3.0D-17,  5.4D-01, r^2= 1.3D+00
   Bfn.  Coefficient  Atom+Function         Bfn.  Coefficient  Atom+Function  
  ----- ------------  ---------------      ----- ------------  ---------------
    28      2.016809  1 C  fxxz              35     -1.369974  1 C  fzzz       
    47      0.903966  2 H  dxz               62     -0.903966  3 H  dxz        
    25     -0.801185  1 C  dzz                3     -0.687925  1 C  s          
    50     -0.670940  2 H  dzz               65     -0.670940  3 H  dzz        
    42     -0.637377  2 H  px                57      0.637377  3 H  px         

 Vector   77  Occ=0.000000D+00  E= 4.518844D+00  Symmetry=a2
              MO Center= -1.9D-16,  6.7D-16, -3.0D-03, r^2= 1.6D+00
   Bfn.  Coefficient  Atom+Function         Bfn.  Coefficient  Atom+Function  
  ----- ------------  ---------------      ----- ------------  ---------------
    21      1.945228  1 C  dxy               15      1.237621  1 C  dxy        
    49      1.010621  2 H  dyz               64     -1.010621  3 H  dyz        
    77     -0.910126  4 H  dxz               92      0.910126  5 H  dxz        
    76      0.893056  4 H  dxy               91      0.893056  5 H  dxy        
    72     -0.702460  4 H  px                87      0.702460  5 H  px         

 Vector   78  Occ=0.000000D+00  E= 4.530296D+00  Symmetry=b2
              MO Center=  2.1D-16, -7.6D-14, -9.7D-02, r^2= 1.8D+00
   Bfn.  Coefficient  Atom+Function         Bfn.  Coefficient  Atom+Function  
  ----- ------------  ---------------      ----- ------------  ---------------
    67      1.886964  4 H  s                 82     -1.886964  5 H  s          
    34      1.354720  1 C  fyzz              24      0.960452  1 C  dyz        
    49      0.907716  2 H  dyz               64      0.907716  3 H  dyz        
    73     -0.910680  4 H  py                88     -0.910680  5 H  py         
    80     -0.799491  4 H  dzz               95      0.799491  5 H  dzz        

 Vector   79  Occ=0.000000D+00  E= 4.555902D+00  Symmetry=a1
              MO Center=  5.4D-15,  1.1D-14,  1.8D-01, r^2= 1.8D+00
   Bfn.  Coefficient  Atom+Function         Bfn.  Coefficient  Atom+Function  
  ----- ------------  ---------------      ----- ------------  ---------------
    10      2.853296  1 C  pz                67      2.266120  4 H  s          
    82      2.266120  5 H  s                 37     -1.684550  2 H  s          
    52     -1.684550  3 H  s                 33     -1.044916  1 C  fyyz       
    44      1.028229  2 H  pz                59      1.028229  3 H  pz         
    35     -0.960091  1 C  fzzz              79     -0.936737  4 H  dyz        

 Vector   80  Occ=0.000000D+00  E= 4.579730D+00  Symmetry=b1
              MO Center= -1.5D-15, -1.8D-16,  4.7D-01, r^2= 1.7D+00
   Bfn.  Coefficient  Atom+Function         Bfn.  Coefficient  Atom+Function  
  ----- ------------  ---------------      ----- ------------  ---------------
    37      6.164137  2 H  s                 52     -6.164137  3 H  s          
     8     -5.595173  1 C  px                29      3.164847  1 C  fxyy       
    22     -2.440715  1 C  dxz               31      2.411606  1 C  fxzz       
    26      1.953711  1 C  fxxx              42     -1.903861  2 H  px         
    57     -1.903861  3 H  px                44     -1.855522  2 H  pz         

 Vector   81  Occ=0.000000D+00  E= 4.681560D+00  Symmetry=a1
              MO Center=  3.1D-15,  5.9D-14, -1.8D-01, r^2= 1.9D+00
   Bfn.  Coefficient  Atom+Function         Bfn.  Coefficient  Atom+Function  
  ----- ------------  ---------------      ----- ------------  ---------------
    10      2.973281  1 C  pz                67      2.567631  4 H  s          
    82      2.567631  5 H  s                 73     -1.562528  4 H  py         
    88      1.562528  5 H  py                25     -1.285782  1 C  dzz        
    80     -0.881288  4 H  dzz               95     -0.881288  5 H  dzz        
    44      0.758876  2 H  pz                59      0.758876  3 H  pz         

 Vector   82  Occ=0.000000D+00  E= 4.845767D+00  Symmetry=b2
              MO Center=  5.3D-17,  1.2D-15, -3.2D-01, r^2= 1.7D+00
   Bfn.  Coefficient  Atom+Function         Bfn.  Coefficient  Atom+Function  
  ----- ------------  ---------------      ----- ------------  ---------------
    24      3.170916  1 C  dyz               27      1.875274  1 C  fxxy       
    79      1.363378  4 H  dyz               94      1.363378  5 H  dyz        
    74     -1.216250  4 H  pz                89      1.216250  5 H  pz         
    12      1.053138  1 C  py                67     -0.870371  4 H  s          
    82      0.870371  5 H  s                 49      0.842090  2 H  dyz        

 Vector   83  Occ=0.000000D+00  E= 4.857226D+00  Symmetry=a1
              MO Center=  7.4D-15,  1.8D-14, -1.8D-01, r^2= 1.7D+00
   Bfn.  Coefficient  Atom+Function         Bfn.  Coefficient  Atom+Function  
  ----- ------------  ---------------      ----- ------------  ---------------
    37      2.054325  2 H  s                 52      2.054325  3 H  s          
    10     -1.734036  1 C  pz                23     -1.431216  1 C  dyy        
    67      1.402241  4 H  s                 82      1.402241  5 H  s          
    78     -1.121198  4 H  dyy               93     -1.121198  5 H  dyy        
    28      0.971430  1 C  fxxz              33      0.766129  1 C  fyyz       

 Vector   84  Occ=0.000000D+00  E= 4.891000D+00  Symmetry=b1
              MO Center= -6.0D-15, -5.5D-15,  1.5D-01, r^2= 1.6D+00
   Bfn.  Coefficient  Atom+Function         Bfn.  Coefficient  Atom+Function  
  ----- ------------  ---------------      ----- ------------  ---------------
     8      3.164799  1 C  px                37     -3.122331  2 H  s          
    52      3.122331  3 H  s                 29      2.439829  1 C  fxyy       
    44      1.522256  2 H  pz                59     -1.522256  3 H  pz         
    26     -1.200914  1 C  fxxx              47     -1.061477  2 H  dxz        
    62     -1.061477  3 H  dxz               42      1.017193  2 H  px         

 Vector   85  Occ=0.000000D+00  E= 4.911494D+00  Symmetry=a2
              MO Center= -4.5D-16,  5.2D-15, -1.2D-01, r^2= 1.4D+00
   Bfn.  Coefficient  Atom+Function         Bfn.  Coefficient  Atom+Function  
  ----- ------------  ---------------      ----- ------------  ---------------
    30      5.789371  1 C  fxyz              76     -1.329371  4 H  dxy        
    91     -1.329371  5 H  dxy               49      0.879922  2 H  dyz        
    64     -0.879922  3 H  dyz               15     -0.797471  1 C  dxy        
    46      0.594139  2 H  dxy               61      0.594139  3 H  dxy        
    69      0.500993  4 H  px                84     -0.500993  5 H  px         

 Vector   86  Occ=0.000000D+00  E= 5.513705D+00  Symmetry=b1
              MO Center=  7.4D-16, -5.2D-17,  7.2D-01, r^2= 1.0D+00
   Bfn.  Coefficient  Atom+Function         Bfn.  Coefficient  Atom+Function  
  ----- ------------  ---------------      ----- ------------  ---------------
[...]
    beta     41     43     42     44     45     47     46     48     49     50
 overlap   0.998  0.999  1.000  0.999  0.997  0.999  0.993  0.999  0.980  0.999


   alpha     51     52     53     54     55     56     57     58     59     60
    beta     51     52     53     54     55     56     57     58     59     60
 overlap   0.985  0.998  0.997  0.999  0.998  1.000  1.000  0.710  0.710  0.999


   alpha     61     62     63     64     65     66     67     68     69     70
    beta     62     61     63     64     65     66     67     68     69     70
 overlap   0.981  0.999  0.982  0.992  0.995  0.992  1.000  1.000  0.995  0.999


   alpha     71     72     73     74     75     76     77     78     79     80
    beta     71     72     73     75     74     76     77     78     80     79
 overlap   1.000  1.000  1.000  0.999  1.000  0.998  1.000  1.000  1.000  0.997


   alpha     81     82     83     84     85     86     87     88     89     90
    beta     81     83     82     84     85     86     87     88     89     90
 overlap   0.999  0.999  1.000  1.000  1.000  1.000  1.000  1.000  1.000  0.998


   alpha     91     92     93     94     95
    beta     91     92     93     94     95
 overlap   0.998  1.000  1.000  1.000  1.000

     --------------------------
     Expectation value of S2:  
     --------------------------
      <S2> =      0.7538 (Exact =     0.7500)


 center of mass
 --------------
 x =   0.00000000 y =   0.00000000 z =  -0.09201482

 moments of inertia (a.u.)
 ------------------
          15.902136340644           0.000000000000           0.000000000000
           0.000000000000          11.532612292366           0.000000000000
           0.000000000000           0.000000000000           8.772764716758

     Multipole analysis of the density
     ---------------------------------

     L   x y z        total         alpha         beta         nuclear
     -   - - -        -----         -----         ----         -------
     0   0 0 0      1.000000     -5.000000     -4.000000     10.000000

     1   1 0 0      0.000000      0.000000      0.000000      0.000000
     1   0 1 0     -0.000000      0.000000     -0.000000      0.000000
     1   0 0 1      0.565343      0.145745      0.578606     -0.159009

     2   2 0 0     -4.363446     -4.392488     -2.155484      2.184526
     2   1 1 0     -0.000000     -0.000000     -0.000000      0.000000
     2   1 0 1      0.000000      0.000000      0.000000      0.000000
     2   0 2 0     -3.707722     -5.342762     -4.885084      6.520124
     2   0 1 1     -0.000000     -0.000000      0.000000      0.000000
     2   0 0 2     -2.306420     -6.265766     -5.145714      9.105060


 Parallel integral file used      76 records with       0 large values

 Line search: 
     step= 1.00 grad=-7.8D-07 hess= 3.8D-07 energy=    -40.059840 mode=accept  
 new step= 1.00                   predicted energy=    -40.059840
  no constraints, skipping    0.0000000000000000     
  no constraints, skipping    0.0000000000000000     
  no constraints, skipping    0.0000000000000000     

          --------
          Step   4
          --------


                         Geometry "geometry" -> "geometry"
                         ---------------------------------

 Output coordinates in angstroms (scale by  1.889725989 to convert to a.u.)

  No.       Tag          Charge          X              Y              Z
 ---- ---------------- ---------- -------------- -------------- --------------
    1 C                    6.0000     0.00000000     0.00000000    -0.11688061
    2 H                    1.0000     0.55305053     0.00000000     0.92443025
    3 H                    1.0000    -0.55305053     0.00000000     0.92443025
    4 H                    1.0000     0.00000000     0.95546351    -0.61586035
    5 H                    1.0000     0.00000000    -0.95546351    -0.61586035

      Atomic Mass 
      ----------- 

      C                 12.000000
      H                  1.007825


 Effective nuclear repulsion energy (a.u.)      13.1491745407

            Nuclear Dipole moment (a.u.) 
            ----------------------------
        X                 Y               Z
 ---------------- ---------------- ----------------
     0.0000000000     0.0000000000    -0.1590088727

      Symmetry information
      --------------------

 Group name             C2v       
 Group number             16
 Group order               4
 No. of unique centers     3

      Symmetry unique atoms

     1    2    4


                                 NWChem DFT Module
                                 -----------------


      ch4+ mpw1k from S. Parthiban and J.M.L. Martin JCP 114,6014-6029 (2001)




 Summary of "ao basis" -> "ao basis" (cartesian)
 ------------------------------------------------------------------------------
       Tag                 Description            Shells   Functions and Types
 ---------------- ------------------------------  ------  ---------------------
 C                          cc-pvtz                 10       35   4s3p2d1f
 H                          cc-pvtz                  6       15   3s2p1d


      Symmetry analysis of basis
      --------------------------

        a1         38
        a2         11
        b1         23
        b2         23


  The DFT is already converged 

         Total DFT energy =    -40.059839981424


            General Information
            -------------------
          SCF calculation type: DFT
          Wavefunction type:  spin polarized.
          No. of atoms     :     5
          No. of electrons :     9
           Alpha electrons :     5
            Beta electrons :     4
          Charge           :     1
          Spin multiplicity:     2
          Use of symmetry is: on ; symmetry adaption is: on 
          Maximum number of iterations:  30
          AO basis - number of functions:    95
                     number of shells:    34
          Convergence on energy requested:  1.00D-06
          Convergence on density requested:  1.00D-05
          Convergence on gradient requested:  5.00D-04

              XC Information
              --------------
                        MPW1K Method XC Functional
                     Hartree-Fock (Exact) Exchange  0.428          
                        mPW91  Exchange Functional  0.572          
                Perdew 1991 Correlation Functional  1.000 non-local
            Perdew 1991 LDA Correlation Functional  1.000 local    

             Grid Information
             ----------------
          Grid used for XC integration:  medium    
          Radial quadrature: Mura-Knowles        
          Angular quadrature: Lebedev. 
          Tag              B.-S. Rad. Rad. Pts. Rad. Cut. Ang. Pts.
          ---              ---------- --------- --------- ---------
          C                   0.70       49           7.0       434
          H                   0.35       45           8.0       434
          Grid pruning is: on 
          Number of quadrature shells:   139
          Spatial weights used:  Erf1

          Convergence Information
          -----------------------
          Convergence aids based upon iterative change in 
          total energy or number of iterations. 
          Levelshifting, if invoked, occurs when the 
          HOMO/LUMO gap drops below (HL_TOL):  1.00D-02
          DIIS, if invoked, will attempt to extrapolate 
          using up to (NFOCK): 10 stored Fock matrices.

                    Damping( 0%)  Levelshifting(0.5)       DIIS
                  --------------- ------------------- ---------------
          dE  on:    start            ASAP                start   
          dE off:    2 iters         30 iters            30 iters 


      Screening Tolerance Information
      -------------------------------
          Density screening/tol_rho:  1.00D-10
          AO Gaussian exp screening on grid/accAOfunc:  14
          CD Gaussian exp screening on grid/accCDfunc:  20
          XC Gaussian exp screening on grid/accXCfunc:  20
          Schwarz screening/accCoul:  1.00D-08



                            NWChem DFT Gradient Module
                            --------------------------


      ch4+ mpw1k from S. Parthiban and J.M.L. Martin JCP 114,6014-6029 (2001)



  charge          =   1.00
  wavefunction    = open shell

  Using symmetry


                         DFT ENERGY GRADIENTS

    atom               coordinates                        gradient
                 x          y          z           x          y          z
   1 C       0.000000   0.000000  -0.220872    0.000000   0.000000  -0.000007
   2 H       1.045114   0.000000   1.746920    0.000010   0.000000   0.000004
   3 H      -1.045114   0.000000   1.746920   -0.000010  -0.000000   0.000004
   4 H       0.000000   1.805564  -1.163807    0.000000   0.000002  -0.000000
   5 H       0.000000  -1.805564  -1.163807    0.000000  -0.000002  -0.000000

                 ----------------------------------------
                 |  Time  |  1-e(secs)   |  2-e(secs)   |
                 ----------------------------------------
                 |  CPU   |       0.00   |       0.25   |
                 ----------------------------------------
                 |  WALL  |       0.00   |       0.25   |
                 ----------------------------------------
  no constraints, skipping    0.0000000000000000     

  Step       Energy      Delta E   Gmax     Grms     Xrms     Xmax   Walltime
  ---- ---------------- -------- -------- -------- -------- -------- --------
@    4     -40.05983998 -4.0D-07  0.00001  0.00000  0.00068  0.00114      6.1
                                     ok       ok       ok       ok  



                                Z-matrix (autoz)
                                -------- 

 Units are Angstrom for bonds and degrees for angles

      Type          Name      I     J     K     L     M      Value     Gradient
      ----------- --------  ----- ----- ----- ----- ----- ---------- ----------
    1 Stretch                  1     2                       1.17906    0.00001
    2 Stretch                  1     3                       1.17906    0.00001
    3 Stretch                  1     4                       1.07791    0.00000
    4 Stretch                  1     5                       1.07791    0.00000
    5 Bend                     2     1     3                55.94643    0.00001
    6 Bend                     2     1     4               114.13137   -0.00000
    7 Bend                     2     1     5               114.13137   -0.00000
    8 Bend                     3     1     4               114.13137   -0.00000
    9 Bend                     3     1     5               114.13137   -0.00000
   10 Bend                     4     1     5               124.84942   -0.00000


      ----------------------
      Optimization converged
      ----------------------


  Step       Energy      Delta E   Gmax     Grms     Xrms     Xmax   Walltime
  ---- ---------------- -------- -------- -------- -------- -------- --------
@    4     -40.05983998 -4.0D-07  0.00001  0.00000  0.00068  0.00114      6.1
                                     ok       ok       ok       ok  



                                Z-matrix (autoz)
                                -------- 

 Units are Angstrom for bonds and degrees for angles

      Type          Name      I     J     K     L     M      Value     Gradient
      ----------- --------  ----- ----- ----- ----- ----- ---------- ----------
    1 Stretch                  1     2                       1.17906    0.00001
    2 Stretch                  1     3                       1.17906    0.00001
    3 Stretch                  1     4                       1.07791    0.00000
    4 Stretch                  1     5                       1.07791    0.00000
    5 Bend                     2     1     3                55.94643    0.00001
    6 Bend                     2     1     4               114.13137   -0.00000
    7 Bend                     2     1     5               114.13137   -0.00000
    8 Bend                     3     1     4               114.13137   -0.00000
    9 Bend                     3     1     5               114.13137   -0.00000
   10 Bend                     4     1     5               124.84942   -0.00000



                         Geometry "geometry" -> "geometry"
                         ---------------------------------

 Output coordinates in angstroms (scale by  1.889725989 to convert to a.u.)

  No.       Tag          Charge          X              Y              Z
 ---- ---------------- ---------- -------------- -------------- --------------
    1 C                    6.0000     0.00000000     0.00000000    -0.11688061
    2 H                    1.0000     0.55305053     0.00000000     0.92443025
    3 H                    1.0000    -0.55305053     0.00000000     0.92443025
    4 H                    1.0000     0.00000000     0.95546351    -0.61586035
    5 H                    1.0000     0.00000000    -0.95546351    -0.61586035

      Atomic Mass 
      ----------- 

      C                 12.000000
      H                  1.007825


 Effective nuclear repulsion energy (a.u.)      13.1491745407

            Nuclear Dipole moment (a.u.) 
            ----------------------------
        X                 Y               Z
 ---------------- ---------------- ----------------
     0.0000000000     0.0000000000    -0.1590088727

      Symmetry information
      --------------------

 Group name             C2v       
 Group number             16
 Group order               4
 No. of unique centers     3

      Symmetry unique atoms

     1    2    4


                Final and change from initial internal coordinates
                --------------------------------------------------



                                Z-matrix (autoz)
                                -------- 

 Units are Angstrom for bonds and degrees for angles

      Type          Name      I     J     K     L     M      Value       Change
      ----------- --------  ----- ----- ----- ----- ----- ---------- ----------
    1 Stretch                  1     2                       1.17906    0.01524
    2 Stretch                  1     3                       1.17906    0.01524
    3 Stretch                  1     4                       1.07791    0.00303
    4 Stretch                  1     5                       1.07791    0.00303
    5 Bend                     2     1     3                55.94643   -3.06953
    6 Bend                     2     1     4               114.13137   -0.39023
    7 Bend                     2     1     5               114.13137   -0.39023
    8 Bend                     3     1     4               114.13137   -0.39023
    9 Bend                     3     1     5               114.13137   -0.39023
   10 Bend                     4     1     5               124.84942    1.81512

 ==============================================================================
                                internuclear distances
 ------------------------------------------------------------------------------
       center one      |      center two      | atomic units |  angstroms
 ------------------------------------------------------------------------------
    4 H                |   1 C                |     2.03696  |     1.07791
    5 H                |   1 C                |     2.03696  |     1.07791
 ------------------------------------------------------------------------------
                         number of included internuclear distances:          2
 ==============================================================================



 ==============================================================================
                                 internuclear angles
 ------------------------------------------------------------------------------
        center 1       |       center 2       |       center 3       |  degrees
 ------------------------------------------------------------------------------
    4 H                |   1 C                |   5 H                |   124.85
 ------------------------------------------------------------------------------
                            number of included internuclear angles:          1
 ==============================================================================




 Task  times  cpu:        5.8s     wall:        6.1s


                                NWChem Input Module
                                -------------------


 Summary of allocated global arrays
-----------------------------------
  No active global arrays



                         GA Statistics for process    0
                         ------------------------------

       create   destroy   get      put      acc     scatter   gather  read&inc
calls: 1964     1964     1.03e+05 1.95e+04 1.02e+04    0        0     1880     
number of processes/call 1.19e+00 1.35e+00 1.29e+00 0.00e+00 0.00e+00
bytes total:             2.27e+08 4.37e+07 1.01e+08 0.00e+00 0.00e+00 1.50e+04
bytes remote:            1.35e+08 1.65e+07 5.55e+07 0.00e+00 0.00e+00 0.00e+00
Max memory consumed for GA by this process: 1508800 bytes

MA_summarize_allocated_blocks: starting scan ...
MA_summarize_allocated_blocks: scan completed: 0 heap blocks, 0 stack blocks
MA usage statistics:

	allocation statistics:
					      heap	     stack
					      ----	     -----
	current number of blocks	         0	         0
	maximum number of blocks	        26	        57
	current total bytes		         0	         0
	maximum total bytes		  15394544	  42479512
	maximum total K-bytes		     15395	     42480
	maximum total M-bytes		        16	        43


                                     CITATION
                                     --------
                Please cite the following reference when publishing
                           results obtained with NWChem:

                 M. Valiev, E.J. Bylaska, N. Govind, K. Kowalski,
              T.P. Straatsma, H.J.J. van Dam, D. Wang, J. Nieplocha,
                        E. Apra, T.L. Windus, W.A. de Jong
                 "NWChem: a comprehensive and scalable open-source
                  solution for large scale molecular simulations"
                      Comput. Phys. Commun. 181, 1477 (2010)
                           doi:10.1016/j.cpc.2010.04.018

                                      AUTHORS
                                      -------
          E. Apra, E. J. Bylaska, W. A. de Jong, N. Govind, K. Kowalski,
       T. P. Straatsma, M. Valiev, H. J. J. van Dam, D. Wang, T. L. Windus,
        J. Hammond, J. Autschbach, K. Bhaskaran-Nair, J. Brabec, K. Lopata,
    S. A. Fischer, S. Krishnamoorthy, M. Jacquelin, W. Ma, M. Klemm, O. Villa,
      Y. Chen, V. Anisimov, F. Aquino, S. Hirata, M. T. Hackler, V. Konjkov,
            D. Mejia-Rodriguez, T. Risthaus, M. Malagoli, A. Marenich,
   A. Otero-de-la-Roza, J. Mullin, P. Nichols, R. Peverati, J. Pittner, Y. Zhao,
        P.-D. Fan, A. Fonari, M. J. Williamson, R. J. Harrison, J. R. Rehr,
      M. Dupuis, D. Silverstein, D. M. A. Smith, J. Nieplocha, V. Tipparaju,
    M. Krishnan, B. E. Van Kuiken, A. Vazquez-Mayagoitia, L. Jensen, M. Swart,
      Q. Wu, T. Van Voorhis, A. A. Auer, M. Nooijen, L. D. Crosby, E. Brown,
      G. Cisneros, G. I. Fann, H. Fruchtl, J. Garza, K. Hirao, R. A. Kendall,
      J. A. Nichols, K. Tsemekhman, K. Wolinski, J. Anchell, D. E. Bernholdt,
      P. Borowski, T. Clark, D. Clerc, H. Dachsel, M. J. O. Deegan, K. Dyall,
    D. Elwood, E. Glendening, M. Gutowski, A. C. Hess, J. Jaffe, B. G. Johnson,
     J. Ju, R. Kobayashi, R. Kutteh, Z. Lin, R. Littlefield, X. Long, B. Meng,
      T. Nakajima, S. Niu, L. Pollack, M. Rosing, K. Glaesemann, G. Sandrone,
      M. Stave, H. Taylor, G. Thomas, J. H. van Lenthe, A. T. Wong, Z. Zhang.

 Total times  cpu:        5.8s     wall:        6.1s
[0] ARMCI Warning: Freed 1 leaked allocations
