 argument  1 = /home/list1234/source/nwchem-6.8.1-release/QA/tests/disp_dimer_ch4/disp_dimer_ch4.nw



============================== echo of input deck ==============================
echo
# calculation for methane dimer Grimme JCC 2004
# with BLYP/TZVP2P

title "ch4_2"


start ch4_2

geometry units angstroms noautoz
 C 0.00000000 0.00000000 1.78977169
 H 0.00000000 0.00000000 2.88489619
 H -0.72912121 0.72912121 1.42221856
 H -0.26687689 -0.99599810 1.42221856
 H 0.99599810 0.26687689 1.42221856
 C 0.00000000 0.00000000 -1.78977169
 H -0.99599810 -0.26687689 -1.42221856
 H 0.00000000 0.00000000 -2.88489619
 H 0.72912121 -0.72912121 -1.42221856
 H 0.26687689 0.99599810 -1.42221856
end


basis "ao basis" spherical noprint
# basis set TZVP2P(2d,2p), polarization from aug-cc-pvtz
  C    S
     13575.349682000      0.00022246
      2035.233368000      0.00172327
       463.225623590      0.00892557
       131.200195980      0.03572798
        42.853015891      0.11076260
        15.584185766      0.24295628
  C    S
         6.206713851      0.41440263
         2.576489653      0.23744969
  C    S
         0.576963394      1.00000000
  C    S
         0.229728314      1.00000000
  C    S
         0.095164440      1.00000000
  C    P
        34.697232244      0.00533337
         7.958262283      0.03586411
         2.378082688      0.14215873
         0.814332082      0.34270472
  C    P
         0.288875473      1.00000000
  C    P
         0.100568237      1.00000000
#aug-cc-pVTZ part for C
   C   D
   1.0970000000       1.0000000000
   C   D
  0.31800000000       1.0000000000

    H  S
    34.061341      .60251978E-02
    5.1235746      .45021094E-01
    1.1646626      .20189726
    H  S
    .32723041      1.0000000
    H  S
    .10307241      1.0000000
#aug-cc-pVTZ part for H
   H   P
   1.4070000000       1.0000000000
   H   P
  0.38800000000       1.0000000000

end


basis "cd basis"  spherical noprint
  *   library "Ahlrichs Coulomb Fitting"
end


dft
 xc  becke88 1. lyp 1.
 vectors output ch4_2.movecs
 direct
 disp vdw 1
end
task dft optimize

dft
 disp vdw 3
end
task dft energy
================================================================================


                                         
                                         


              Northwest Computational Chemistry Package (NWChem) 6.8
              ------------------------------------------------------


                    Environmental Molecular Sciences Laboratory
                       Pacific Northwest National Laboratory
                                Richland, WA 99352

                              Copyright (c) 1994-2018
                       Pacific Northwest National Laboratory
                            Battelle Memorial Institute

             NWChem is an open-source computational chemistry package
                        distributed under the terms of the
                      Educational Community License (ECL) 2.0
             A copy of the license is included with this distribution
                              in the LICENSE.TXT file

                                  ACKNOWLEDGMENT
                                  --------------

            This software and its documentation were developed at the
            EMSL at Pacific Northwest National Laboratory, a multiprogram
            national laboratory, operated for the U.S. Department of Energy
            by Battelle under Contract Number DE-AC05-76RL01830. Support
            for this work was provided by the Department of Energy Office
            of Biological and Environmental Research, Office of Basic
            Energy Sciences, and the Office of Advanced Scientific Computing.


           Job information
           ---------------

    hostname        = list1234-B360M-H
    program         = /home/list1234/source/nwchem-6.8.1-release/bin/LINUX64/nwchem
    date            = Sun Jun 30 13:58:59 2019

    compiled        = Sun_Jun_30_11:55:59_2019
    source          = /home/list1234/source/nwchem-6.8.1-release
    nwchem branch   = Development
    nwchem revision = N/A
    ga revision     = 5.6.5
    use scalapack   = T
    input           = /home/list1234/source/nwchem-6.8.1-release/QA/tests/disp_dimer_ch4/disp_dimer_ch4.nw
    prefix          = ch4_2.
    data base       = ./ch4_2.db
    status          = startup
    nproc           =        4
    time left       =     -1s



           Memory information
           ------------------

    heap     =   86247162 doubles =    658.0 Mbytes
    stack    =   86247167 doubles =    658.0 Mbytes
    global   =  172494336 doubles =   1316.0 Mbytes (distinct from heap & stack)
    total    =  344988665 doubles =   2632.1 Mbytes
    verify   = yes
    hardfail = no 


           Directory information
           ---------------------

  0 permanent = .
  0 scratch   = .




                                NWChem Input Module
                                -------------------


                                       ch4_2
                                       -----

 Scaling coordinates for geometry "geometry" by  1.889725989
 (inverse scale =  0.529177249)

 D3D symmetry detected


                             Geometry "geometry" -> ""
                             -------------------------

 Output coordinates in angstroms (scale by  1.889725989 to convert to a.u.)

  No.       Tag          Charge          X              Y              Z
 ---- ---------------- ---------- -------------- -------------- --------------
    1 C                    6.0000    -0.00000000     0.00000000     1.78977169
    2 H                    1.0000     0.00000000    -0.00000000     2.88489619
    3 H                    1.0000    -0.72912121     0.72912121     1.42221856
    4 H                    1.0000    -0.26687689    -0.99599810     1.42221856
    5 H                    1.0000     0.99599810     0.26687689     1.42221856
    6 C                    6.0000     0.00000000     0.00000000    -1.78977169
    7 H                    1.0000    -0.99599810    -0.26687689    -1.42221856
    8 H                    1.0000    -0.00000000     0.00000000    -2.88489619
    9 H                    1.0000     0.72912121    -0.72912121    -1.42221856
   10 H                    1.0000     0.26687689     0.99599810    -1.42221856

      Atomic Mass 
      ----------- 

      C                 12.000000
      H                  1.007825


 Effective nuclear repulsion energy (a.u.)      41.3906222755

            Nuclear Dipole moment (a.u.) 
            ----------------------------
        X                 Y               Z
 ---------------- ---------------- ----------------
    -0.0000000000    -0.0000000000    -0.0000000000

      Symmetry information
      --------------------

 Group name             D3d       
 Group number             33
 Group order              12
 No. of unique centers     3

      Symmetry unique atoms

     1    2    3


            XYZ format geometry
            -------------------
    10
 geometry
 C                    -0.00000000     0.00000000     1.78977169
 H                     0.00000000    -0.00000000     2.88489619
 H                    -0.72912121     0.72912121     1.42221856
 H                    -0.26687689    -0.99599810     1.42221856
 H                     0.99599810     0.26687689     1.42221856
 C                     0.00000000     0.00000000    -1.78977169
 H                    -0.99599810    -0.26687689    -1.42221856
 H                    -0.00000000     0.00000000    -2.88489619
 H                     0.72912121    -0.72912121    -1.42221856
 H                     0.26687689     0.99599810    -1.42221856

 ==============================================================================
                                internuclear distances
 ------------------------------------------------------------------------------
       center one      |      center two      | atomic units |  angstroms
 ------------------------------------------------------------------------------
    2 H                |   1 C                |     2.06949  |     1.09512
    3 H                |   1 C                |     2.06865  |     1.09468
    4 H                |   1 C                |     2.06865  |     1.09468
    5 H                |   1 C                |     2.06865  |     1.09468
    7 H                |   6 C                |     2.06865  |     1.09468
    8 H                |   6 C                |     2.06949  |     1.09512
    9 H                |   6 C                |     2.06865  |     1.09468
   10 H                |   6 C                |     2.06865  |     1.09468
 ------------------------------------------------------------------------------
                         number of included internuclear distances:          8
 ==============================================================================



 ==============================================================================
                                 internuclear angles
 ------------------------------------------------------------------------------
        center 1       |       center 2       |       center 3       |  degrees
 ------------------------------------------------------------------------------
    2 H                |   1 C                |   3 H                |   109.62
    2 H                |   1 C                |   4 H                |   109.62
    2 H                |   1 C                |   5 H                |   109.62
    3 H                |   1 C                |   4 H                |   109.32
    3 H                |   1 C                |   5 H                |   109.32
    4 H                |   1 C                |   5 H                |   109.32
    7 H                |   6 C                |   8 H                |   109.62
    7 H                |   6 C                |   9 H                |   109.32
    7 H                |   6 C                |  10 H                |   109.32
    8 H                |   6 C                |   9 H                |   109.62
    8 H                |   6 C                |  10 H                |   109.62
    9 H                |   6 C                |  10 H                |   109.32
 ------------------------------------------------------------------------------
                            number of included internuclear angles:         12
 ==============================================================================





                           NWChem Geometry Optimization
                           ----------------------------




                                       ch4_2


 maximum gradient threshold         (gmax) =   0.000450
 rms gradient threshold             (grms) =   0.000300
 maximum cartesian step threshold   (xmax) =   0.001800
 rms cartesian step threshold       (xrms) =   0.001200
 fixed trust radius                (trust) =   0.300000
 maximum step size to saddle      (sadstp) =   0.100000
 energy precision                  (eprec) =   5.0D-06
 maximum number of steps          (nptopt) =   20
 initial hessian option           (inhess) =    0
 line search option               (linopt) =    1
 hessian update option            (modupd) =    1
 saddle point option              (modsad) =    0
 initial eigen-mode to follow     (moddir) =    0
 initial variable to follow       (vardir) =    0
 follow first negative mode     (firstneg) =    T
 apply conjugacy                    (opcg) =    F
 source of zmatrix                         =           


          -------------------
          Energy Minimization
          -------------------


 Using diagonal initial Hessian 

          --------
          Step   0
          --------


                         Geometry "geometry" -> "geometry"
                         ---------------------------------

 Output coordinates in angstroms (scale by  1.889725989 to convert to a.u.)

  No.       Tag          Charge          X              Y              Z
 ---- ---------------- ---------- -------------- -------------- --------------
    1 C                    6.0000    -0.00000000     0.00000000     1.78977169
    2 H                    1.0000     0.00000000    -0.00000000     2.88489619
    3 H                    1.0000    -0.72912121     0.72912121     1.42221856
    4 H                    1.0000    -0.26687689    -0.99599810     1.42221856
    5 H                    1.0000     0.99599810     0.26687689     1.42221856
    6 C                    6.0000     0.00000000     0.00000000    -1.78977169
    7 H                    1.0000    -0.99599810    -0.26687689    -1.42221856
    8 H                    1.0000    -0.00000000     0.00000000    -2.88489619
    9 H                    1.0000     0.72912121    -0.72912121    -1.42221856
   10 H                    1.0000     0.26687689     0.99599810    -1.42221856

      Atomic Mass 
      ----------- 

      C                 12.000000
      H                  1.007825


 Effective nuclear repulsion energy (a.u.)      41.3906222755

            Nuclear Dipole moment (a.u.) 
            ----------------------------
        X                 Y               Z
 ---------------- ---------------- ----------------
    -0.0000000000    -0.0000000000    -0.0000000000

      Symmetry information
      --------------------

 Group name             D3d       
 Group number             33
 Group order              12
 No. of unique centers     3

      Symmetry unique atoms

     1    2    3


                                 NWChem DFT Module
                                 -----------------


                                       ch4_2




 Summary of "ao basis" -> "ao basis" (spherical)
 ------------------------------------------------------------------------------
       Tag                 Description            Shells   Functions and Types
 ---------------- ------------------------------  ------  ---------------------
 C                       user specified             10       24   5s3p2d
 H                       user specified              5        9   3s2p


      Symmetry analysis of basis
      --------------------------

        a1g        22
        a1u         2
        a2g         2
        a2u        22
        eg         36
        eu         36

  Caching 1-el integrals 
  Rotation of axis 

            General Information
            -------------------
          SCF calculation type: DFT
          Wavefunction type:  closed shell.
          No. of atoms     :    10
          No. of electrons :    20
           Alpha electrons :    10
            Beta electrons :    10
          Charge           :     0
          Spin multiplicity:     1
          Use of symmetry is: on ; symmetry adaption is: on 
          Maximum number of iterations:  30
          This is a Direct SCF calculation.
          AO basis - number of functions:   120
                     number of shells:    60
          A Charge density fitting basis will be used.
          CD basis - number of functions:   188
                     number of shells:    76
          Convergence on energy requested:  1.00D-06
          Convergence on density requested:  1.00D-05
          Convergence on gradient requested:  5.00D-04

              XC Information
              --------------
                    Becke 1988 Exchange Functional  1.000          
              Lee-Yang-Parr Correlation Functional  1.000          

             Grid Information
             ----------------
          Grid used for XC integration:  medium    
          Radial quadrature: Mura-Knowles        
          Angular quadrature: Lebedev. 
          Tag              B.-S. Rad. Rad. Pts. Rad. Cut. Ang. Pts.
          ---              ---------- --------- --------- ---------
          C                   0.70       49          12.0       434
          H                   0.35       45          14.0       434
          Grid pruning is: on 
          Number of quadrature shells:   139
          Spatial weights used:  Erf1

          Convergence Information
          -----------------------
          Convergence aids based upon iterative change in 
          total energy or number of iterations. 
          Levelshifting, if invoked, occurs when the 
          HOMO/LUMO gap drops below (HL_TOL):  1.00D-02
          DIIS, if invoked, will attempt to extrapolate 
          using up to (NFOCK): 10 stored Fock matrices.

                    Damping( 0%)  Levelshifting(0.5)       DIIS
                  --------------- ------------------- ---------------
          dE  on:    start            ASAP                start   
          dE off:    2 iters         30 iters            30 iters 


      Screening Tolerance Information
      -------------------------------
          Density screening/tol_rho:  1.00D-10
          AO Gaussian exp screening on grid/accAOfunc:  14
          CD Gaussian exp screening on grid/accCDfunc:  20
          XC Gaussian exp screening on grid/accXCfunc:  20
          Schwarz screening/accCoul:  1.00D-08

      Dispersion Parameters
      ---------------------

          s6 scale factor :        1.400000000000
              vdW contrib :       -0.002536153039


      Superposition of Atomic Density Guess
      -------------------------------------

 Sum of atomic energies:         -79.34113001

      Non-variational initial energy
      ------------------------------

 Total energy =     -80.486460
 1-e energy   =    -185.596819
 2-e energy   =      63.719736
 HOMO         =      -0.504988
 LUMO         =       0.062506


      Symmetry analysis of molecular orbitals - initial
      -------------------------------------------------

  Numbering of irreducible representations: 

     1 a1g         2 a1u         3 a2g         4 a2u         5 eg      
     6 eu      

  Orbital symmetries:

     1 a1g         2 a2u         3 a1g         4 a2u         5 a1g     
     6 eu          7 eu          8 eg          9 eg         10 a2u     
    11 a1g        12 a2u        13 eu         14 eu         15 a1g     
    16 eg         17 eg         18 a2u        19 a1g        20 eu      

   Time after variat. SCF:      0.1

      3 Center 2 Electron Integral Information
      ----------------------------------------
          Maximum number of 3-center 2e- integrals is:         2707200.
            This is reduced with Schwarz screening to:         1441960.
            Incore requires a per proc buffer size of:          344229.
          Minimum dble words available (all nodes) is:       172485380
                   This is reduced (for later use) to:       172212863
                      proc 0 Suggested buffer size is:          344229
                         Max Suggested buffer size is:          380701
                              no. integral batches is:            1000

          Incore memory use for 3-center 2e- integrals is turned off. 
   Time prior to 1st pass:      0.1

 Grid_pts file          = ./ch4_2.gridpts.0
 Record size in doubles =  12289        No. of grid_pts per rec  =   3070
 Max. records in memory =      7        Max. recs in file   =    862003


           Memory utilization after 1st SCF pass: 
           Heap Space remaining (MW):       86.15            86152818
          Stack Space remaining (MW):       86.25            86246212

   convergence    iter        energy       DeltaE   RMS-Dens  Diis-err    time
 ---------------- ----- ----------------- --------- --------- ---------  ------
 d= 0,ls=0.0,diis     1    -80.9758367538 -1.22D+02  3.76D-03  3.68D-01     0.3
 d= 0,ls=0.0,diis     2    -80.9992278422 -2.34D-02  1.34D-03  3.62D-02     0.4
 d= 0,ls=0.0,diis     3    -80.9974762825  1.75D-03  7.26D-04  5.14D-02     0.5
 d= 0,ls=0.0,diis     4    -81.0037519146 -6.28D-03  2.50D-05  1.70D-05     0.6
 d= 0,ls=0.0,diis     5    -81.0037547296 -2.81D-06  4.58D-06  1.02D-06     0.7
 d= 0,ls=0.0,diis     6    -81.0037548747 -1.45D-07  1.24D-06  6.60D-08     0.9


         Total DFT energy =      -81.003754874691
      One electron energy =     -188.758859146534
           Coulomb energy =       80.106510294372
    Exchange-Corr. energy =      -13.739492144966
 Nuclear repulsion energy =       41.390622275475

    Dispersion correction =       -0.002536153039

 Numeric. integr. density =       19.999985368034

     Total iterative time =      0.7s



                  Occupations of the irreducible representations
                  ----------------------------------------------

                     irrep           alpha         beta
                     --------     --------     --------
                     a1g               3.0          3.0
                     a1u               0.0          0.0
                     a2g               0.0          0.0
                     a2u               3.0          3.0
                     eg                2.0          2.0
                     eu                2.0          2.0


                       DFT Final Molecular Orbital Analysis
                       ------------------------------------

 Vector    1  Occ=2.000000D+00  E=-9.887177D+00  Symmetry=a1g
              MO Center= -2.5D-17,  7.0D-18,  8.8D-13, r^2= 3.2D+00
   Bfn.  Coefficient  Atom+Function         Bfn.  Coefficient  Atom+Function  
  ----- ------------  ---------------      ----- ------------  ---------------
     2      0.429432   1 C  s                62      0.429432   6 C  s         
     1      0.330334   1 C  s                61      0.330334   6 C  s         
     3      0.030149   1 C  s                63      0.030149   6 C  s         
     4     -0.028710   1 C  s                64     -0.028710   6 C  s         
     5      0.027845   1 C  s                65      0.027845   6 C  s         

 Vector    2  Occ=2.000000D+00  E=-9.887172D+00  Symmetry=a2u
              MO Center= -3.8D-20,  3.5D-21, -8.8D-13, r^2= 3.2D+00
   Bfn.  Coefficient  Atom+Function         Bfn.  Coefficient  Atom+Function  
  ----- ------------  ---------------      ----- ------------  ---------------
     2      0.429462   1 C  s                62     -0.429462   6 C  s         
     1      0.330330   1 C  s                61     -0.330330   6 C  s         
     5      0.030592   1 C  s                65     -0.030592   6 C  s         
     3      0.029867   1 C  s                63     -0.029867   6 C  s         
     4     -0.027645   1 C  s                64      0.027645   6 C  s         

 Vector    3  Occ=2.000000D+00  E=-6.207841D-01  Symmetry=a1g
              MO Center= -3.2D-18, -1.8D-17,  4.9D-16, r^2= 4.1D+00
   Bfn.  Coefficient  Atom+Function         Bfn.  Coefficient  Atom+Function  
  ----- ------------  ---------------      ----- ------------  ---------------
     3      0.235786   1 C  s                63      0.235786   6 C  s         
     4      0.202919   1 C  s                64      0.202919   6 C  s         
     2     -0.142459   1 C  s                62     -0.142459   6 C  s         
     5      0.073510   1 C  s                65      0.073510   6 C  s         
     1     -0.068031   1 C  s                35      0.068356   3 H  s         

 Vector    4  Occ=2.000000D+00  E=-6.155017D-01  Symmetry=a2u
              MO Center= -9.4D-16,  3.8D-16, -2.0D-14, r^2= 4.3D+00
   Bfn.  Coefficient  Atom+Function         Bfn.  Coefficient  Atom+Function  
  ----- ------------  ---------------      ----- ------------  ---------------
     3      0.239914   1 C  s                63     -0.239914   6 C  s         
     4      0.203631   1 C  s                64     -0.203631   6 C  s         
     2     -0.144337   1 C  s                62      0.144337   6 C  s         
     5      0.072802   1 C  s                65     -0.072802   6 C  s         
    26      0.072275   2 H  s                95     -0.072275   8 H  s         

 Vector    5  Occ=2.000000D+00  E=-3.494646D-01  Symmetry=a1g
              MO Center=  2.1D-18, -5.0D-18,  1.9D-14, r^2= 5.7D+00
   Bfn.  Coefficient  Atom+Function         Bfn.  Coefficient  Atom+Function  
  ----- ------------  ---------------      ----- ------------  ---------------
     8      0.232568   1 C  pz               68     -0.232568   6 C  pz        
    26      0.172607   2 H  s                95      0.172607   8 H  s         
    11      0.162719   1 C  pz               71     -0.162719   6 C  pz        
    25      0.131903   2 H  s                94      0.131903   8 H  s         
    27      0.092672   2 H  s                96      0.092672   8 H  s         

 Vector    6  Occ=2.000000D+00  E=-3.456491D-01  Symmetry=eu
              MO Center= -7.4D-17,  3.5D-17, -1.7D-16, r^2= 3.9D+00
   Bfn.  Coefficient  Atom+Function         Bfn.  Coefficient  Atom+Function  
  ----- ------------  ---------------      ----- ------------  ---------------
     6      0.232801   1 C  px               66      0.232801   6 C  px        
     9      0.168088   1 C  px               69      0.168088   6 C  px        
    53      0.154327   5 H  s                86     -0.154327   7 H  s         
    52      0.122300   5 H  s                85     -0.122300   7 H  s         
    35     -0.103124   3 H  s               104      0.103124   9 H  s         

 Vector    7  Occ=2.000000D+00  E=-3.456491D-01  Symmetry=eu
              MO Center=  1.9D-14, -2.9D-14,  2.8D-14, r^2= 3.9D+00
   Bfn.  Coefficient  Atom+Function         Bfn.  Coefficient  Atom+Function  
  ----- ------------  ---------------      ----- ------------  ---------------
     7      0.232801   1 C  py               67      0.232801   6 C  py        
    10      0.168088   1 C  py               70      0.168088   6 C  py        
    44     -0.148639   4 H  s               113      0.148639  10 H  s         
    35      0.118663   3 H  s               104     -0.118663   9 H  s         
    43     -0.117793   4 H  s               112      0.117793  10 H  s         

 Vector    8  Occ=2.000000D+00  E=-3.391739D-01  Symmetry=eg
              MO Center=  1.2D-14,  4.3D-14, -7.9D-14, r^2= 4.0D+00
   Bfn.  Coefficient  Atom+Function         Bfn.  Coefficient  Atom+Function  
  ----- ------------  ---------------      ----- ------------  ---------------
     6      0.218487   1 C  px               66     -0.218487   6 C  px        
    53      0.160061   5 H  s                86      0.160061   7 H  s         
     9      0.156277   1 C  px               69     -0.156277   6 C  px        
    52      0.124637   5 H  s                85      0.124637   7 H  s         
    44     -0.102109   4 H  s               113     -0.102109  10 H  s         

 Vector    9  Occ=2.000000D+00  E=-3.391739D-01  Symmetry=eg
              MO Center=  2.6D-14, -7.9D-14,  5.2D-14, r^2= 4.0D+00
   Bfn.  Coefficient  Atom+Function         Bfn.  Coefficient  Atom+Function  
  ----- ------------  ---------------      ----- ------------  ---------------
     7      0.218487   1 C  py               67     -0.218487   6 C  py        
    10      0.156277   1 C  py               70     -0.156277   6 C  py        
    35      0.151364   3 H  s               104      0.151364   9 H  s         
    44     -0.125870   4 H  s               113     -0.125870  10 H  s         
    34      0.117865   3 H  s               103      0.117865   9 H  s         

 Vector   10  Occ=2.000000D+00  E=-3.359567D-01  Symmetry=a2u
              MO Center= -5.5D-14,  6.8D-14, -7.2D-16, r^2= 5.8D+00
   Bfn.  Coefficient  Atom+Function         Bfn.  Coefficient  Atom+Function  
  ----- ------------  ---------------      ----- ------------  ---------------
     8      0.240284   1 C  pz               68      0.240284   6 C  pz        
    11      0.178061   1 C  pz               71      0.178061   6 C  pz        
    26      0.165121   2 H  s                95     -0.165121   8 H  s         
    25      0.134379   2 H  s                94     -0.134379   8 H  s         
    27      0.103696   2 H  s                96     -0.103696   8 H  s         

 Vector   11  Occ=0.000000D+00  E= 1.290304D-02  Symmetry=a1g
              MO Center=  8.9D-17, -1.2D-15,  2.5D-15, r^2= 7.6D+00
   Bfn.  Coefficient  Atom+Function         Bfn.  Coefficient  Atom+Function  
  ----- ------------  ---------------      ----- ------------  ---------------
     5      2.772866   1 C  s                65      2.772866   6 C  s         
    36     -1.057508   3 H  s                45     -1.057508   4 H  s         
    54     -1.057508   5 H  s                87     -1.057508   7 H  s         
   105     -1.057508   9 H  s               114     -1.057508  10 H  s         
    27     -0.804996   2 H  s                96     -0.804996   8 H  s         

 Vector   12  Occ=0.000000D+00  E= 6.023609D-02  Symmetry=a2u
              MO Center= -2.3D-15,  1.4D-16,  6.1D-15, r^2= 1.1D+01
   Bfn.  Coefficient  Atom+Function         Bfn.  Coefficient  Atom+Function  
  ----- ------------  ---------------      ----- ------------  ---------------
     5      3.121733   1 C  s                65     -3.121733   6 C  s         
    27     -1.199550   2 H  s                96      1.199550   8 H  s         
    36     -1.133167   3 H  s                45     -1.133167   4 H  s         
    54     -1.133167   5 H  s                87      1.133167   7 H  s         
   105      1.133167   9 H  s               114      1.133167  10 H  s         

 Vector   13  Occ=0.000000D+00  E= 9.337324D-02  Symmetry=eu
              MO Center=  8.8D-14,  1.8D-13,  1.4D-14, r^2= 5.9D+00
   Bfn.  Coefficient  Atom+Function         Bfn.  Coefficient  Atom+Function  
  ----- ------------  ---------------      ----- ------------  ---------------
    45      1.601913   4 H  s               114     -1.601913  10 H  s         
    54     -1.153802   5 H  s                87      1.153802   7 H  s         
    13      0.771149   1 C  py               73      0.771149   6 C  py        
    36     -0.448111   3 H  s               105      0.448111   9 H  s         
    12      0.432219   1 C  px               72      0.432219   6 C  px        

 Vector   14  Occ=0.000000D+00  E= 9.337324D-02  Symmetry=eu
              MO Center= -3.4D-13,  2.0D-13,  5.8D-14, r^2= 5.9D+00
   Bfn.  Coefficient  Atom+Function         Bfn.  Coefficient  Atom+Function  
  ----- ------------  ---------------      ----- ------------  ---------------
    36      1.591013   3 H  s               105     -1.591013   9 H  s         
    54     -1.183582   5 H  s                87      1.183582   7 H  s         
    12      0.771149   1 C  px               72      0.771149   6 C  px        
    13     -0.432219   1 C  py               73     -0.432219   6 C  py        
    45     -0.407431   4 H  s               114      0.407431  10 H  s         

 Vector   15  Occ=0.000000D+00  E= 9.493766D-02  Symmetry=a1g
              MO Center=  2.1D-13, -3.6D-13,  3.3D-14, r^2= 1.1D+01
   Bfn.  Coefficient  Atom+Function         Bfn.  Coefficient  Atom+Function  
  ----- ------------  ---------------      ----- ------------  ---------------
    27      1.939891   2 H  s                96      1.939891   8 H  s         
    14     -1.029742   1 C  pz               74      1.029742   6 C  pz        
    36     -0.558608   3 H  s                45     -0.558608   4 H  s         
    54     -0.558608   5 H  s                87     -0.558608   7 H  s         
   105     -0.558608   9 H  s               114     -0.558608  10 H  s         

 Vector   16  Occ=0.000000D+00  E= 1.078802D-01  Symmetry=eg
              MO Center=  4.0D-14,  6.5D-15, -6.2D-14, r^2= 6.7D+00
   Bfn.  Coefficient  Atom+Function         Bfn.  Coefficient  Atom+Function  
  ----- ------------  ---------------      ----- ------------  ---------------
    45      1.912938   4 H  s               114      1.912938  10 H  s         
    13      1.400527   1 C  py               73     -1.400527   6 C  py        
    36     -1.298077   3 H  s               105     -1.298077   9 H  s         
    54     -0.614861   5 H  s                87     -0.614861   7 H  s         
    10      0.147594   1 C  py               70     -0.147594   6 C  py        

 Vector   17  Occ=0.000000D+00  E= 1.078802D-01  Symmetry=eg
              MO Center=  1.9D-13, -1.8D-14, -4.9D-14, r^2= 6.7D+00
   Bfn.  Coefficient  Atom+Function         Bfn.  Coefficient  Atom+Function  
  ----- ------------  ---------------      ----- ------------  ---------------
    54      1.853881   5 H  s                87      1.853881   7 H  s         
    36     -1.459426   3 H  s               105     -1.459426   9 H  s         
    12     -1.400527   1 C  px               72      1.400527   6 C  px        
    45     -0.394455   4 H  s               114     -0.394455  10 H  s         
     9     -0.147594   1 C  px               69      0.147594   6 C  px        

 Vector   18  Occ=0.000000D+00  E= 1.127139D-01  Symmetry=a2u
              MO Center= -1.6D-13,  8.3D-15, -6.5D-14, r^2= 1.1D+01
   Bfn.  Coefficient  Atom+Function         Bfn.  Coefficient  Atom+Function  
  ----- ------------  ---------------      ----- ------------  ---------------
    27      2.124525   2 H  s                96     -2.124525   8 H  s         
    14     -1.397742   1 C  pz               74     -1.397742   6 C  pz        
    36     -0.791149   3 H  s                45     -0.791149   4 H  s         
    54     -0.791149   5 H  s                87      0.791149   7 H  s         
   105      0.791149   9 H  s               114      0.791149  10 H  s         

 Vector   19  Occ=0.000000D+00  E= 1.753217D-01  Symmetry=a1g
              MO Center=  7.2D-16,  1.6D-15, -2.4D-15, r^2= 6.5D+00
   Bfn.  Coefficient  Atom+Function         Bfn.  Coefficient  Atom+Function  
  ----- ------------  ---------------      ----- ------------  ---------------
    14      0.843147   1 C  pz               74     -0.843147   6 C  pz        
    26     -0.324767   2 H  s                95     -0.324767   8 H  s         
    11     -0.289687   1 C  pz               71      0.289687   6 C  pz        
     4     -0.227218   1 C  s                64     -0.227218   6 C  s         
    36      0.127642   3 H  s                45      0.127642   4 H  s         

 Vector   20  Occ=0.000000D+00  E= 1.827718D-01  Symmetry=eu
              MO Center=  4.6D-14,  5.7D-14, -2.3D-13, r^2= 8.2D+00
   Bfn.  Coefficient  Atom+Function         Bfn.  Coefficient  Atom+Function  
  ----- ------------  ---------------      ----- ------------  ---------------
    12      1.334302   1 C  px               72      1.334302   6 C  px        
    54     -0.790086   5 H  s                87      0.790086   7 H  s         
    13      0.695444   1 C  py               73      0.695444   6 C  py        
    45      0.547094   4 H  s               114     -0.547094  10 H  s         
    53     -0.395065   5 H  s                86      0.395065   7 H  s         

 Vector   21  Occ=0.000000D+00  E= 1.827718D-01  Symmetry=eu
              MO Center=  3.1D-15, -7.2D-15,  1.2D-14, r^2= 8.2D+00
   Bfn.  Coefficient  Atom+Function         Bfn.  Coefficient  Atom+Function  
  ----- ------------  ---------------      ----- ------------  ---------------
    13      1.334302   1 C  py               73      1.334302   6 C  py        
    36     -0.772021   3 H  s               105      0.772021   9 H  s         
    12     -0.695444   1 C  px               72     -0.695444   6 C  px        
    45      0.596448   4 H  s               114     -0.596448  10 H  s         
    35     -0.386032   3 H  s               104      0.386032   9 H  s         

 Vector   22  Occ=0.000000D+00  E= 1.901007D-01  Symmetry=eg
              MO Center=  1.0D-14, -1.7D-14, -9.3D-14, r^2= 8.6D+00
   Bfn.  Coefficient  Atom+Function         Bfn.  Coefficient  Atom+Function  
  ----- ------------  ---------------      ----- ------------  ---------------
    13      0.896642   1 C  py               73     -0.896642   6 C  py        
    44      0.372969   4 H  s               113      0.372969  10 H  s         
    10     -0.284833   1 C  py               70      0.284833   6 C  py        
    12      0.266729   1 C  px               72     -0.266729   6 C  px        
    45     -0.241181   4 H  s               114     -0.241181  10 H  s         

 Vector   23  Occ=0.000000D+00  E= 1.901007D-01  Symmetry=eg
              MO Center= -6.1D-14, -4.9D-14,  3.5D-13, r^2= 8.6D+00
   Bfn.  Coefficient  Atom+Function         Bfn.  Coefficient  Atom+Function  
  ----- ------------  ---------------      ----- ------------  ---------------
    12      0.896642   1 C  px               72     -0.896642   6 C  px        
    35      0.328100   3 H  s               104      0.328100   9 H  s         
    53     -0.317901   5 H  s                86     -0.317901   7 H  s         
     9     -0.284833   1 C  px               69      0.284833   6 C  px        
    13     -0.266729   1 C  py               73      0.266729   6 C  py        

 Vector   24  Occ=0.000000D+00  E= 3.593892D-01  Symmetry=a2u
              MO Center= -9.5D-15,  1.0D-15, -4.0D-15, r^2= 8.4D+00
   Bfn.  Coefficient  Atom+Function         Bfn.  Coefficient  Atom+Function  
  ----- ------------  ---------------      ----- ------------  ---------------
     5      5.717393   1 C  s                65     -5.717393   6 C  s         
    27     -1.572308   2 H  s                96      1.572308   8 H  s         
     4     -1.390107   1 C  s                36     -1.392636   3 H  s         
    45     -1.392636   4 H  s                54     -1.392636   5 H  s         
    64      1.390107   6 C  s                87      1.392636   7 H  s         

 Vector   25  Occ=0.000000D+00  E= 3.654062D-01  Symmetry=a1g
              MO Center=  5.3D-14, -2.2D-14,  1.3D-12, r^2= 8.9D+00
   Bfn.  Coefficient  Atom+Function         Bfn.  Coefficient  Atom+Function  
  ----- ------------  ---------------      ----- ------------  ---------------
     5      9.534009   1 C  s                65      9.534009   6 C  s         
     4     -2.619048   1 C  s                27     -2.630088   2 H  s         
    64     -2.619048   6 C  s                96     -2.630088   8 H  s         
    36     -2.153344   3 H  s                45     -2.153344   4 H  s         
    54     -2.153344   5 H  s                87     -2.153344   7 H  s         

 Vector   26  Occ=0.000000D+00  E= 4.049287D-01  Symmetry=a2u
              MO Center= -1.1D-14, -1.6D-15, -1.1D-12, r^2= 1.1D+01
   Bfn.  Coefficient  Atom+Function         Bfn.  Coefficient  Atom+Function  
  ----- ------------  ---------------      ----- ------------  ---------------
     5      8.171855   1 C  s                65     -8.171855   6 C  s         
    27     -3.177330   2 H  s                96      3.177330   8 H  s         
     4     -2.165411   1 C  s                64      2.165411   6 C  s         
    36     -1.633753   3 H  s                45     -1.633753   4 H  s         
    54     -1.633753   5 H  s                87      1.633753   7 H  s         

 Vector   27  Occ=0.000000D+00  E= 4.109216D-01  Symmetry=eg
              MO Center= -7.0D-14, -7.2D-14, -3.8D-14, r^2= 5.9D+00
   Bfn.  Coefficient  Atom+Function         Bfn.  Coefficient  Atom+Function  
  ----- ------------  ---------------      ----- ------------  ---------------
    54      2.008129   5 H  s                87      2.008129   7 H  s         
    12     -1.263396   1 C  px               45     -1.257876   4 H  s         
    72      1.263396   6 C  px              114     -1.257876  10 H  s         
    36     -0.750253   3 H  s               105     -0.750253   9 H  s         
    13     -0.544193   1 C  py               73      0.544193   6 C  py        

 Vector   28  Occ=0.000000D+00  E= 4.109216D-01  Symmetry=eg
              MO Center= -7.1D-14, -2.0D-14,  1.9D-13, r^2= 5.9D+00
   Bfn.  Coefficient  Atom+Function         Bfn.  Coefficient  Atom+Function  
  ----- ------------  ---------------      ----- ------------  ---------------
    36      1.885629   3 H  s               105      1.885629   9 H  s         
    45     -1.592553   4 H  s               114     -1.592553  10 H  s         
    13     -1.263396   1 C  py               73      1.263396   6 C  py        
    12      0.544193   1 C  px               72     -0.544193   6 C  px        
    35     -0.305120   3 H  s               104     -0.305120   9 H  s         

 Vector   29  Occ=0.000000D+00  E= 4.197063D-01  Symmetry=eu
              MO Center= -5.3D-14, -3.4D-14,  3.0D-14, r^2= 5.9D+00
   Bfn.  Coefficient  Atom+Function         Bfn.  Coefficient  Atom+Function  
  ----- ------------  ---------------      ----- ------------  ---------------
    54      1.823206   5 H  s                87     -1.823206   7 H  s         
    12     -1.386721   1 C  px               72     -1.386721   6 C  px        
    45     -1.012283   4 H  s               114      1.012283  10 H  s         
    36     -0.810923   3 H  s               105      0.810923   9 H  s         
    13     -0.467990   1 C  py               73     -0.467990   6 C  py        

 Vector   30  Occ=0.000000D+00  E= 4.197063D-01  Symmetry=eu
              MO Center=  8.3D-14,  7.6D-14, -2.6D-13, r^2= 5.9D+00
   Bfn.  Coefficient  Atom+Function         Bfn.  Coefficient  Atom+Function  
  ----- ------------  ---------------      ----- ------------  ---------------
    36      1.637071   3 H  s               105     -1.637071   9 H  s         
    45     -1.520816   4 H  s               114      1.520816  10 H  s         
    13     -1.386721   1 C  py               73     -1.386721   6 C  py        
    12      0.467990   1 C  px               72      0.467990   6 C  px        
    40      0.241820   3 H  px              109      0.241820   9 H  px        

 Vector   31  Occ=0.000000D+00  E= 4.247473D-01  Symmetry=a2u
              MO Center=  5.1D-15,  5.0D-14,  7.8D-13, r^2= 7.1D+00
   Bfn.  Coefficient  Atom+Function         Bfn.  Coefficient  Atom+Function  
  ----- ------------  ---------------      ----- ------------  ---------------
     5      6.096035   1 C  s                65     -6.096035   6 C  s         
    14     -2.934607   1 C  pz               74     -2.934607   6 C  pz        
    36     -2.375835   3 H  s                45     -2.375835   4 H  s         
    54     -2.375835   5 H  s                87      2.375835   7 H  s         
   105      2.375835   9 H  s               114      2.375835  10 H  s         

 Vector   32  Occ=0.000000D+00  E= 4.365738D-01  Symmetry=a1g
              MO Center=  1.3D-14,  7.7D-15, -8.1D-13, r^2= 7.7D+00
   Bfn.  Coefficient  Atom+Function         Bfn.  Coefficient  Atom+Function  
  ----- ------------  ---------------      ----- ------------  ---------------
    27      2.094202   2 H  s                96      2.094202   8 H  s         
    14     -1.466819   1 C  pz               74      1.466819   6 C  pz        
    36     -0.718605   3 H  s                45     -0.718605   4 H  s         
    54     -0.718605   5 H  s                87     -0.718605   7 H  s         
   105     -0.718605   9 H  s               114     -0.718605  10 H  s         

 Vector   33  Occ=0.000000D+00  E= 4.829155D-01  Symmetry=eu
              MO Center= -1.3D-14, -1.7D-14,  3.2D-15, r^2= 5.7D+00
   Bfn.  Coefficient  Atom+Function         Bfn.  Coefficient  Atom+Function  
  ----- ------------  ---------------      ----- ------------  ---------------
    45      1.380552   4 H  s               114     -1.380552  10 H  s         
    54     -0.943742   5 H  s                87      0.943742   7 H  s         
    13      0.934765   1 C  py               73      0.934765   6 C  py        
    12      0.475660   1 C  px               72      0.475660   6 C  px        
    36     -0.436810   3 H  s               105      0.436810   9 H  s         

 Vector   34  Occ=0.000000D+00  E= 4.829155D-01  Symmetry=eu
              MO Center= -8.1D-15,  1.5D-14,  4.0D-14, r^2= 5.7D+00
   Bfn.  Coefficient  Atom+Function         Bfn.  Coefficient  Atom+Function  
  ----- ------------  ---------------      ----- ------------  ---------------
    36      1.341932   3 H  s               105     -1.341932   9 H  s         
    54     -1.049254   5 H  s                87      1.049254   7 H  s         
    12      0.934765   1 C  px               72      0.934765   6 C  px        
    13     -0.475660   1 C  py               73     -0.475660   6 C  py        
    42      0.301262   3 H  pz              111      0.301262   9 H  pz        

 Vector   35  Occ=0.000000D+00  E= 4.908070D-01  Symmetry=a1g
              MO Center=  1.1D-15, -5.8D-16, -1.5D-14, r^2= 8.0D+00
   Bfn.  Coefficient  Atom+Function         Bfn.  Coefficient  Atom+Function  
  ----- ------------  ---------------      ----- ------------  ---------------
    27      1.074158   2 H  s                96      1.074158   8 H  s         
    26     -0.767960   2 H  s                95     -0.767960   8 H  s         
    14     -0.489849   1 C  pz               74      0.489849   6 C  pz        
     4     -0.393148   1 C  s                64     -0.393148   6 C  s         
     5      0.384808   1 C  s                65      0.384808   6 C  s         

 Vector   36  Occ=0.000000D+00  E= 5.215610D-01  Symmetry=eg
              MO Center=  1.1D-14, -5.0D-15,  2.9D-15, r^2= 5.5D+00
   Bfn.  Coefficient  Atom+Function         Bfn.  Coefficient  Atom+Function  
  ----- ------------  ---------------      ----- ------------  ---------------
    36      1.126268   3 H  s               105      1.126268   9 H  s         
    54     -0.811250   5 H  s                87     -0.811250   7 H  s         
    12      0.603687   1 C  px               72     -0.603687   6 C  px        
    13     -0.358840   1 C  py               73      0.358840   6 C  py        
    45     -0.315018   4 H  s               114     -0.315018  10 H  s         

 Vector   37  Occ=0.000000D+00  E= 5.215610D-01  Symmetry=eg
              MO Center=  2.1D-15,  8.1D-15,  2.0D-14, r^2= 5.5D+00
   Bfn.  Coefficient  Atom+Function         Bfn.  Coefficient  Atom+Function  
  ----- ------------  ---------------      ----- ------------  ---------------
    45      1.118627   4 H  s               114      1.118627  10 H  s         
    54     -0.832127   5 H  s                87     -0.832127   7 H  s         
    13      0.603687   1 C  py               73     -0.603687   6 C  py        
    12      0.358840   1 C  px               72     -0.358840   6 C  px        
    36     -0.286500   3 H  s               105     -0.286500   9 H  s         

 Vector   38  Occ=0.000000D+00  E= 5.764247D-01  Symmetry=a2u
              MO Center= -4.9D-15, -1.4D-15,  3.8D-15, r^2= 5.8D+00
   Bfn.  Coefficient  Atom+Function         Bfn.  Coefficient  Atom+Function  
  ----- ------------  ---------------      ----- ------------  ---------------
    14      3.007338   1 C  pz               74      3.007338   6 C  pz        
    27     -2.188810   2 H  s                96      2.188810   8 H  s         
     4      1.720498   1 C  s                64     -1.720498   6 C  s         
     5     -1.436562   1 C  s                65      1.436562   6 C  s         
    35      0.668178   3 H  s                44      0.668178   4 H  s         

 Vector   39  Occ=0.000000D+00  E= 8.263082D-01  Symmetry=eu
              MO Center=  1.2D-15, -2.2D-15,  6.5D-15, r^2= 6.0D+00
   Bfn.  Coefficient  Atom+Function         Bfn.  Coefficient  Atom+Function  
  ----- ------------  ---------------      ----- ------------  ---------------
    42      0.506233   3 H  pz              111      0.506233   9 H  pz        
    35      0.470455   3 H  s               104     -0.470455   9 H  s         
    32     -0.441642   2 H  py              101     -0.441642   8 H  py        
    51     -0.404667   4 H  pz              120     -0.404667  10 H  pz        
    44     -0.376068   4 H  s               113      0.376068  10 H  s         

 Vector   40  Occ=0.000000D+00  E= 8.263082D-01  Symmetry=eu
              MO Center=  4.1D-15, -9.1D-15,  2.7D-14, r^2= 6.0D+00
   Bfn.  Coefficient  Atom+Function         Bfn.  Coefficient  Atom+Function  
  ----- ------------  ---------------      ----- ------------  ---------------
    60      0.525908   5 H  pz               93      0.525908   7 H  pz        
    53      0.488740   5 H  s                86     -0.488740   7 H  s         
    31     -0.441642   2 H  px              100     -0.441642   8 H  px        
    51     -0.350913   4 H  pz              120     -0.350913  10 H  pz        
    44     -0.326112   4 H  s               113      0.326112  10 H  s         

 Vector   41  Occ=0.000000D+00  E= 8.380936D-01  Symmetry=a1u
              MO Center=  8.2D-16, -5.3D-16,  1.0D-16, r^2= 4.4D+00
   Bfn.  Coefficient  Atom+Function         Bfn.  Coefficient  Atom+Function  
  ----- ------------  ---------------      ----- ------------  ---------------
    49      0.513190   4 H  px               59      0.513190   5 H  py        
    92      0.513190   7 H  py              118      0.513190  10 H  px        
    40     -0.375681   3 H  px               41     -0.375681   3 H  py        
   109     -0.375681   9 H  px              110     -0.375681   9 H  py        
    50     -0.137509   4 H  py               58     -0.137509   5 H  px        

 Vector   42  Occ=0.000000D+00  E= 8.463839D-01  Symmetry=eg
              MO Center=  1.8D-15,  1.1D-14, -1.1D-13, r^2= 6.8D+00
   Bfn.  Coefficient  Atom+Function         Bfn.  Coefficient  Atom+Function  
  ----- ------------  ---------------      ----- ------------  ---------------
    44      0.773104   4 H  s               113      0.773104  10 H  s         
    32     -0.591862   2 H  py              101      0.591862   8 H  py        
    35     -0.558327   3 H  s               104     -0.558327   9 H  s         
    10      0.432538   1 C  py               70     -0.432538   6 C  py        
    51     -0.404897   4 H  pz              120      0.404897  10 H  pz        

 Vector   43  Occ=0.000000D+00  E= 8.463839D-01  Symmetry=eg
              MO Center= -7.9D-16, -3.8D-16, -4.1D-14, r^2= 6.8D+00
   Bfn.  Coefficient  Atom+Function         Bfn.  Coefficient  Atom+Function  
  ----- ------------  ---------------      ----- ------------  ---------------
    53      0.768702   5 H  s                86      0.768702   7 H  s         
    31      0.591862   2 H  px              100     -0.591862   8 H  px        
    35     -0.570353   3 H  s               104     -0.570353   9 H  s         
     9     -0.432538   1 C  px               69      0.432538   6 C  px        
    12     -0.401242   1 C  px               60     -0.402592   5 H  pz        

 Vector   44  Occ=0.000000D+00  E= 8.530407D-01  Symmetry=a2g
              MO Center= -2.0D-14,  5.4D-15, -2.5D-16, r^2= 4.4D+00
   Bfn.  Coefficient  Atom+Function         Bfn.  Coefficient  Atom+Function  
  ----- ------------  ---------------      ----- ------------  ---------------
    49      0.513693   4 H  px               59      0.513693   5 H  py        
    92     -0.513693   7 H  py              118     -0.513693  10 H  px        
    40     -0.376050   3 H  px               41     -0.376050   3 H  py        
   109      0.376050   9 H  px              110      0.376050   9 H  py        
    50     -0.137644   4 H  py               58     -0.137644   5 H  px        

 Vector   45  Occ=0.000000D+00  E= 8.620592D-01  Symmetry=a2u
              MO Center= -3.7D-15, -4.8D-15, -4.0D-14, r^2= 5.7D+00
   Bfn.  Coefficient  Atom+Function         Bfn.  Coefficient  Atom+Function  
  ----- ------------  ---------------      ----- ------------  ---------------
    14      1.950598   1 C  pz               74      1.950598   6 C  pz        
    26     -1.789192   2 H  s                95      1.789192   8 H  s         
    27     -1.061878   2 H  s                96      1.061878   8 H  s         
    22      0.902088   1 C  d  0             82     -0.902088   6 C  d  0      
    11      0.881449   1 C  pz               71      0.881449   6 C  pz        

 Vector   46  Occ=0.000000D+00  E= 9.158169D-01  Symmetry=eu
              MO Center=  7.4D-15, -2.1D-14, -6.5D-14, r^2= 6.7D+00
   Bfn.  Coefficient  Atom+Function         Bfn.  Coefficient  Atom+Function  
  ----- ------------  ---------------      ----- ------------  ---------------
    44      1.270398   4 H  s               113     -1.270398  10 H  s         
    53     -1.109759   5 H  s                86      1.109759   7 H  s         
    13      0.853377   1 C  py               73      0.853377   6 C  py        
    24      0.740997   1 C  d  2             84     -0.740997   6 C  d  2      
    12      0.674742   1 C  px               72      0.674742   6 C  px        

 Vector   47  Occ=0.000000D+00  E= 9.158169D-01  Symmetry=eu
              MO Center= -1.3D-14, -4.3D-14,  3.4D-13, r^2= 6.7D+00
   Bfn.  Coefficient  Atom+Function         Bfn.  Coefficient  Atom+Function  
  ----- ------------  ---------------      ----- ------------  ---------------
    35      1.374184   3 H  s               104     -1.374184   9 H  s         
    12      0.853377   1 C  px               72      0.853377   6 C  px        
    53     -0.826210   5 H  s                86      0.826210   7 H  s         
    20      0.740997   1 C  d -2             80     -0.740997   6 C  d -2      
    13     -0.674742   1 C  py               73     -0.674742   6 C  py        

 Vector   48  Occ=0.000000D+00  E= 9.297495D-01  Symmetry=eg
              MO Center= -8.1D-15,  3.1D-14, -3.4D-13, r^2= 5.8D+00
   Bfn.  Coefficient  Atom+Function         Bfn.  Coefficient  Atom+Function  
  ----- ------------  ---------------      ----- ------------  ---------------
    35      1.194644   3 H  s               104      1.194644   9 H  s         
    53     -0.881119   5 H  s                86     -0.881119   7 H  s         
    12      0.688947   1 C  px               72     -0.688947   6 C  px        
    20      0.475066   1 C  d -2             80      0.475066   6 C  d -2      
     9      0.462605   1 C  px               69     -0.462605   6 C  px        

 Vector   49  Occ=0.000000D+00  E= 9.297495D-01  Symmetry=eg
              MO Center=  1.9D-14,  2.9D-14,  1.8D-13, r^2= 5.8D+00
   Bfn.  Coefficient  Atom+Function         Bfn.  Coefficient  Atom+Function  
  ----- ------------  ---------------      ----- ------------  ---------------
    44      1.198442   4 H  s               113      1.198442  10 H  s         
    53     -0.870741   5 H  s                86     -0.870741   7 H  s         
    13      0.688947   1 C  py               73     -0.688947   6 C  py        
    24      0.475066   1 C  d  2             84      0.475066   6 C  d  2      
    10      0.462605   1 C  py               70     -0.462605   6 C  py        

 Vector   50  Occ=0.000000D+00  E= 9.622281D-01  Symmetry=a1g
              MO Center=  2.4D-15,  2.0D-15,  4.8D-14, r^2= 5.2D+00
   Bfn.  Coefficient  Atom+Function         Bfn.  Coefficient  Atom+Function  
  ----- ------------  ---------------      ----- ------------  ---------------
    26      1.986952   2 H  s                95      1.986952   8 H  s         
    22     -1.595343   1 C  d  0             82     -1.595343   6 C  d  0      
    11     -0.814008   1 C  pz               71      0.814008   6 C  pz        
     5      0.752341   1 C  s                65      0.752341   6 C  s         
    35     -0.664935   3 H  s                44     -0.664935   4 H  s         

 Vector   51  Occ=0.000000D+00  E= 1.068560D+00  Symmetry=eg
              MO Center= -2.1D-13, -5.0D-14,  1.5D-12, r^2= 6.3D+00
   Bfn.  Coefficient  Atom+Function         Bfn.  Coefficient  Atom+Function  
  ----- ------------  ---------------      ----- ------------  ---------------
    53      1.734844   5 H  s                86      1.734844   7 H  s         
    44     -1.487065   4 H  s               113     -1.487065  10 H  s         
    24     -1.254981   1 C  d  2             84     -1.254981   6 C  d  2      
     9     -0.912380   1 C  px               69      0.912380   6 C  px        
    23     -0.799165   1 C  d  1             83     -0.799165   6 C  d  1      

 Vector   52  Occ=0.000000D+00  E= 1.068560D+00  Symmetry=eg
              MO Center= -7.0D-15,  1.0D-13, -5.8D-13, r^2= 6.3D+00
   Bfn.  Coefficient  Atom+Function         Bfn.  Coefficient  Atom+Function  
  ----- ------------  ---------------      ----- ------------  ---------------
    35      1.860170   3 H  s               104      1.860170   9 H  s         
    20      1.254981   1 C  d -2             80      1.254981   6 C  d -2      
    44     -1.144668   4 H  s               113     -1.144668  10 H  s         
    10     -0.912380   1 C  py               70      0.912380   6 C  py        
    21      0.799165   1 C  d -1             81      0.799165   6 C  d -1      

 Vector   53  Occ=0.000000D+00  E= 1.075872D+00  Symmetry=eu
              MO Center= -7.2D-15,  2.2D-14,  1.0D-13, r^2= 6.0D+00
   Bfn.  Coefficient  Atom+Function         Bfn.  Coefficient  Atom+Function  
  ----- ------------  ---------------      ----- ------------  ---------------
    44      1.031186   4 H  s               113     -1.031186  10 H  s         
    20     -0.761935   1 C  d -2             35     -0.762619   3 H  s         
    80      0.761935   6 C  d -2            104      0.762619   9 H  s         
    24      0.749740   1 C  d  2             84     -0.749740   6 C  d  2      
    59      0.706995   5 H  py               92      0.706995   7 H  py        

 Vector   54  Occ=0.000000D+00  E= 1.075872D+00  Symmetry=eu
              MO Center=  2.4D-13, -8.1D-14, -9.9D-13, r^2= 6.0D+00
   Bfn.  Coefficient  Atom+Function         Bfn.  Coefficient  Atom+Function  
  ----- ------------  ---------------      ----- ------------  ---------------
    53      1.035653   5 H  s                86     -1.035653   7 H  s         
    24     -0.761935   1 C  d  2             84      0.761935   6 C  d  2      
    20     -0.749740   1 C  d -2             35     -0.750413   3 H  s         
    80      0.749740   6 C  d -2            104      0.750413   9 H  s         
    49     -0.704960   4 H  px              118     -0.704960  10 H  px        

 Vector   55  Occ=0.000000D+00  E= 1.130685D+00  Symmetry=a1g
              MO Center= -1.3D-14, -3.0D-15, -1.1D-13, r^2= 5.7D+00
   Bfn.  Coefficient  Atom+Function         Bfn.  Coefficient  Atom+Function  
  ----- ------------  ---------------      ----- ------------  ---------------
     4      3.368635   1 C  s                64      3.368635   6 C  s         
    26     -1.761946   2 H  s                95     -1.761946   8 H  s         
     5     -1.520403   1 C  s                65     -1.520403   6 C  s         
    33      1.172795   2 H  pz              102     -1.172795   8 H  pz        
    11      1.054245   1 C  pz               14     -1.058308   1 C  pz        

 Vector   56  Occ=0.000000D+00  E= 1.213161D+00  Symmetry=a2u
              MO Center= -4.1D-16,  2.0D-15,  4.3D-14, r^2= 6.0D+00
   Bfn.  Coefficient  Atom+Function         Bfn.  Coefficient  Atom+Function  
  ----- ------------  ---------------      ----- ------------  ---------------
    14      2.487271   1 C  pz               74      2.487271   6 C  pz        
    27     -1.914777   2 H  s                96      1.914777   8 H  s         
     4      1.806147   1 C  s                64     -1.806147   6 C  s         
     5     -1.757958   1 C  s                65      1.757958   6 C  s         
    22     -1.067575   1 C  d  0             82      1.067575   6 C  d  0      

 Vector   57  Occ=0.000000D+00  E= 1.359599D+00  Symmetry=eu
              MO Center=  2.0D-13, -5.5D-14, -1.0D-11, r^2= 5.7D+00
   Bfn.  Coefficient  Atom+Function         Bfn.  Coefficient  Atom+Function  
  ----- ------------  ---------------      ----- ------------  ---------------
    23      1.548066   1 C  d  1             83     -1.548066   6 C  d  1      
    31      0.775816   2 H  px              100      0.775816   8 H  px        
    53     -0.727118   5 H  s                86      0.727118   7 H  s         
    41     -0.695824   3 H  py              110     -0.695824   9 H  py        
    60      0.640215   5 H  pz               93      0.640215   7 H  pz        

 Vector   58  Occ=0.000000D+00  E= 1.359599D+00  Symmetry=eu
              MO Center= -1.6D-14,  1.9D-14, -1.2D-12, r^2= 5.7D+00
   Bfn.  Coefficient  Atom+Function         Bfn.  Coefficient  Atom+Function  
  ----- ------------  ---------------      ----- ------------  ---------------
    21      1.548066   1 C  d -1             81     -1.548066   6 C  d -1      
    59      0.787621   5 H  py               92      0.787621   7 H  py        
    32     -0.775816   2 H  py              101     -0.775816   8 H  py        
    35      0.670952   3 H  s               104     -0.670952   9 H  s         
    20     -0.635176   1 C  d -2             80      0.635176   6 C  d -2      

 Vector   59  Occ=0.000000D+00  E= 1.363132D+00  Symmetry=eg
              MO Center=  1.6D-13,  3.5D-13,  9.9D-12, r^2= 5.2D+00
   Bfn.  Coefficient  Atom+Function         Bfn.  Coefficient  Atom+Function  
  ----- ------------  ---------------      ----- ------------  ---------------
    53      2.321219   5 H  s                86      2.321219   7 H  s         
    44     -1.998879   4 H  s               113     -1.998879  10 H  s         
     9     -1.911559   1 C  px               69      1.911559   6 C  px        
    24     -1.748117   1 C  d  2             84     -1.748117   6 C  d  2      
    10     -1.474022   1 C  py               70      1.474022   6 C  py        

 Vector   60  Occ=0.000000D+00  E= 1.363132D+00  Symmetry=eg
              MO Center=  3.9D-14, -1.5D-15,  1.1D-12, r^2= 5.2D+00
   Bfn.  Coefficient  Atom+Function         Bfn.  Coefficient  Atom+Function  
  ----- ------------  ---------------      ----- ------------  ---------------
    35      2.494210   3 H  s               104      2.494210   9 H  s         
    10     -1.911559   1 C  py               70      1.911559   6 C  py        
    20      1.748117   1 C  d -2             80      1.748117   6 C  d -2      
    44     -1.526260   4 H  s               113     -1.526260  10 H  s         
     9      1.474022   1 C  px               69     -1.474022   6 C  px        

 Vector   61  Occ=0.000000D+00  E= 1.381627D+00  Symmetry=a2u
              MO Center= -4.2D-13, -3.1D-13,  6.5D-14, r^2= 5.5D+00
   Bfn.  Coefficient  Atom+Function         Bfn.  Coefficient  Atom+Function  
  ----- ------------  ---------------      ----- ------------  ---------------
     4     10.166047   1 C  s                64    -10.166047   6 C  s         
     5     -2.656557   1 C  s                65      2.656557   6 C  s         
    35     -2.304824   3 H  s                44     -2.304824   4 H  s         
    53     -2.304824   5 H  s                86      2.304824   7 H  s         
   104      2.304824   9 H  s               113      2.304824  10 H  s         

 Vector   62  Occ=0.000000D+00  E= 1.392382D+00  Symmetry=a1g
              MO Center=  6.1D-13, -8.1D-14, -1.5D-11, r^2= 6.0D+00
   Bfn.  Coefficient  Atom+Function         Bfn.  Coefficient  Atom+Function  
  ----- ------------  ---------------      ----- ------------  ---------------
     4      6.503982   1 C  s                64      6.503982   6 C  s         
    11     -3.167194   1 C  pz               71      3.167194   6 C  pz        
    35     -2.510529   3 H  s                44     -2.510529   4 H  s         
    53     -2.510529   5 H  s                86     -2.510529   7 H  s         
   104     -2.510529   9 H  s               113     -2.510529  10 H  s         

 Vector   63  Occ=0.000000D+00  E= 1.396867D+00  Symmetry=a2u
              MO Center=  5.4D-13, -8.2D-14,  1.6D-11, r^2= 7.8D+00
   Bfn.  Coefficient  Atom+Function         Bfn.  Coefficient  Atom+Function  
  ----- ------------  ---------------      ----- ------------  ---------------
    26      4.724522   2 H  s                95     -4.724522   8 H  s         
    11     -3.799728   1 C  pz               71     -3.799728   6 C  pz        
     4     -3.072239   1 C  s                64      3.072239   6 C  s         
    33     -2.783499   2 H  pz              102     -2.783499   8 H  pz        
    22     -1.967317   1 C  d  0             82      1.967317   6 C  d  0      

 Vector   64  Occ=0.000000D+00  E= 1.406203D+00  Symmetry=eg
              MO Center=  2.6D-13, -5.3D-14,  4.2D-13, r^2= 5.3D+00
   Bfn.  Coefficient  Atom+Function         Bfn.  Coefficient  Atom+Function  
  ----- ------------  ---------------      ----- ------------  ---------------
    44      2.583883   4 H  s               113      2.583883  10 H  s         
    10      2.313571   1 C  py               70     -2.313571   6 C  py        
    53     -2.171142   5 H  s                86     -2.171142   7 H  s         
    50      1.787960   4 H  py              119     -1.787960  10 H  py        
     9      1.708828   1 C  px               69     -1.708828   6 C  px        

 Vector   65  Occ=0.000000D+00  E= 1.406203D+00  Symmetry=eg
              MO Center= -2.4D-13,  3.0D-14, -4.4D-13, r^2= 5.3D+00
   Bfn.  Coefficient  Atom+Function         Bfn.  Coefficient  Atom+Function  
  ----- ------------  ---------------      ----- ------------  ---------------
    35      2.745315   3 H  s               104      2.745315   9 H  s         
     9      2.313571   1 C  px               69     -2.313571   6 C  px        
    53     -1.730102   5 H  s                86     -1.730102   7 H  s         
    10     -1.708828   1 C  py               70      1.708828   6 C  py        
    41     -1.412239   3 H  py              110      1.412239   9 H  py        

 Vector   66  Occ=0.000000D+00  E= 1.421286D+00  Symmetry=eu
              MO Center= -9.6D-14, -3.7D-14, -1.5D-13, r^2= 5.1D+00
   Bfn.  Coefficient  Atom+Function         Bfn.  Coefficient  Atom+Function  
  ----- ------------  ---------------      ----- ------------  ---------------
    44      3.642861   4 H  s               113     -3.642861  10 H  s         
    53     -3.217079   5 H  s                86      3.217079   7 H  s         
    10      2.957015   1 C  py               70      2.957015   6 C  py        
     9      2.382945   1 C  px               69      2.382945   6 C  px        
    50      1.949197   4 H  py              119      1.949197  10 H  py        

 Vector   67  Occ=0.000000D+00  E= 1.421286D+00  Symmetry=eu
              MO Center= -1.0D-12,  3.4D-13,  5.0D-13, r^2= 5.1D+00
   Bfn.  Coefficient  Atom+Function         Bfn.  Coefficient  Atom+Function  
  ----- ------------  ---------------      ----- ------------  ---------------
    35      3.960588   3 H  s               104     -3.960588   9 H  s         
     9      2.957015   1 C  px               69      2.957015   6 C  px        
    10     -2.382945   1 C  py               70     -2.382945   6 C  py        
    53     -2.349031   5 H  s                86      2.349031   7 H  s         
    20      1.788759   1 C  d -2             80     -1.788759   6 C  d -2      

 Vector   68  Occ=0.000000D+00  E= 1.443833D+00  Symmetry=a1g
              MO Center=  2.1D-14, -3.1D-13, -6.0D-13, r^2= 8.4D+00
   Bfn.  Coefficient  Atom+Function         Bfn.  Coefficient  Atom+Function  
  ----- ------------  ---------------      ----- ------------  ---------------
     4      4.278564   1 C  s                64      4.278564   6 C  s         
    26     -2.901605   2 H  s                95     -2.901605   8 H  s         
    33      2.047796   2 H  pz              102     -2.047796   8 H  pz        
     5      1.729107   1 C  s                65      1.729107   6 C  s         
    27     -1.664827   2 H  s                96     -1.664827   8 H  s         

 Vector   69  Occ=0.000000D+00  E= 1.509284D+00  Symmetry=a2u
              MO Center=  2.2D-15,  1.2D-13,  2.9D-13, r^2= 6.2D+00
   Bfn.  Coefficient  Atom+Function         Bfn.  Coefficient  Atom+Function  
  ----- ------------  ---------------      ----- ------------  ---------------
     5      7.229197   1 C  s                65     -7.229197   6 C  s         
     4     -2.963186   1 C  s                64      2.963186   6 C  s         
     3      2.298096   1 C  s                63     -2.298096   6 C  s         
    36     -1.775952   3 H  s                45     -1.775952   4 H  s         
    54     -1.775952   5 H  s                87      1.775952   7 H  s         

 Vector   70  Occ=0.000000D+00  E= 1.555812D+00  Symmetry=a1g
              MO Center= -2.0D-14,  8.1D-14, -2.0D-13, r^2= 4.1D+00
   Bfn.  Coefficient  Atom+Function         Bfn.  Coefficient  Atom+Function  
  ----- ------------  ---------------      ----- ------------  ---------------
     4      8.132739   1 C  s                64      8.132739   6 C  s         
     5     -6.582890   1 C  s                65     -6.582890   6 C  s         
     3     -2.614057   1 C  s                63     -2.614057   6 C  s         
    26     -1.741103   2 H  s                95     -1.741103   8 H  s         
    36      1.620868   3 H  s                45      1.620868   4 H  s         

 Vector   71  Occ=0.000000D+00  E= 1.882160D+00  Symmetry=eu
              MO Center=  3.5D-15, -1.9D-15, -1.8D-14, r^2= 4.9D+00
   Bfn.  Coefficient  Atom+Function         Bfn.  Coefficient  Atom+Function  
  ----- ------------  ---------------      ----- ------------  ---------------
    10      5.008949   1 C  py               70      5.008949   6 C  py        
    44      4.629705   4 H  s               113     -4.629705  10 H  s         
    53     -3.990714   5 H  s                86      3.990714   7 H  s         
     9      3.869106   1 C  px               69      3.869106   6 C  px        
    24      1.762410   1 C  d  2             84     -1.762410   6 C  d  2      

 Vector   72  Occ=0.000000D+00  E= 1.882160D+00  Symmetry=eu
              MO Center= -1.1D-13, -3.1D-14, -2.9D-12, r^2= 4.9D+00
   Bfn.  Coefficient  Atom+Function         Bfn.  Coefficient  Atom+Function  
  ----- ------------  ---------------      ----- ------------  ---------------
     9      5.008949   1 C  px               69      5.008949   6 C  px        
    35      4.977002   3 H  s               104     -4.977002   9 H  s         
    10     -3.869106   1 C  py               70     -3.869106   6 C  py        
    53     -3.041883   5 H  s                86      3.041883   7 H  s         
    44     -1.935118   4 H  s               113      1.935118  10 H  s         

 Vector   73  Occ=0.000000D+00  E= 1.892169D+00  Symmetry=a1g
              MO Center= -2.2D-14,  1.5D-14, -4.2D-14, r^2= 5.2D+00
   Bfn.  Coefficient  Atom+Function         Bfn.  Coefficient  Atom+Function  
  ----- ------------  ---------------      ----- ------------  ---------------
    11      6.360650   1 C  pz               71     -6.360650   6 C  pz        
    26     -5.777505   2 H  s                95     -5.777505   8 H  s         
    33      2.316247   2 H  pz              102     -2.316247   8 H  pz        
    22      2.258417   1 C  d  0             82      2.258417   6 C  d  0      
     4      1.998023   1 C  s                64      1.998023   6 C  s         

 Vector   74  Occ=0.000000D+00  E= 1.893203D+00  Symmetry=eg
              MO Center=  1.1D-13,  3.5D-14,  1.0D-12, r^2= 4.9D+00
   Bfn.  Coefficient  Atom+Function         Bfn.  Coefficient  Atom+Function  
  ----- ------------  ---------------      ----- ------------  ---------------
    10      5.686228   1 C  py               70     -5.686228   6 C  py        
    44      4.910790   4 H  s               113      4.910790  10 H  s         
    53     -3.284395   5 H  s                86     -3.284395   7 H  s         
     9      2.777068   1 C  px               69     -2.777068   6 C  px        
    50      1.694722   4 H  py              119     -1.694722  10 H  py        

 Vector   75  Occ=0.000000D+00  E= 1.893203D+00  Symmetry=eg
              MO Center=  2.1D-14, -3.5D-14,  1.8D-12, r^2= 4.9D+00
   Bfn.  Coefficient  Atom+Function         Bfn.  Coefficient  Atom+Function  
  ----- ------------  ---------------      ----- ------------  ---------------
     9      5.686228   1 C  px               69     -5.686228   6 C  px        
    35      4.731493   3 H  s               104      4.731493   9 H  s         
    53     -3.774246   5 H  s                86     -3.774246   7 H  s         
    10     -2.777068   1 C  py               70      2.777068   6 C  py        
    20      1.644594   1 C  d -2             80      1.644594   6 C  d -2      

 Vector   76  Occ=0.000000D+00  E= 2.014074D+00  Symmetry=a2u
              MO Center=  2.2D-15,  2.6D-16,  2.2D-14, r^2= 4.3D+00
   Bfn.  Coefficient  Atom+Function         Bfn.  Coefficient  Atom+Function  
  ----- ------------  ---------------      ----- ------------  ---------------
    11      7.015634   1 C  pz               71      7.015634   6 C  pz        
    26     -5.338782   2 H  s                95      5.338782   8 H  s         
     4     -2.871401   1 C  s                64      2.871401   6 C  s         
    35      2.389234   3 H  s                44      2.389234   4 H  s         
    53      2.389234   5 H  s                86     -2.389234   7 H  s         

 Vector   77  Occ=0.000000D+00  E= 2.586976D+00  Symmetry=eg
              MO Center=  6.5D-15,  1.5D-15,  1.5D-14, r^2= 4.2D+00
   Bfn.  Coefficient  Atom+Function         Bfn.  Coefficient  Atom+Function  
  ----- ------------  ---------------      ----- ------------  ---------------
    53      5.608231   5 H  s                86      5.608231   7 H  s         
     9     -4.664622   1 C  px               69      4.664622   6 C  px        
    44     -4.042894   4 H  s               113     -4.042894  10 H  s         
    10     -2.618586   1 C  py               70      2.618586   6 C  py        
    58     -2.005629   5 H  px               91      2.005629   7 H  px        

 Vector   78  Occ=0.000000D+00  E= 2.586976D+00  Symmetry=eg
              MO Center=  1.4D-15, -1.6D-14, -2.3D-14, r^2= 4.2D+00
   Bfn.  Coefficient  Atom+Function         Bfn.  Coefficient  Atom+Function  
  ----- ------------  ---------------      ----- ------------  ---------------
    35      5.572079   3 H  s               104      5.572079   9 H  s         
    10     -4.664622   1 C  py               70      4.664622   6 C  py        
    44     -4.141661   4 H  s               113     -4.141661  10 H  s         
     9      2.618586   1 C  px               69     -2.618586   6 C  px        
    40      1.508684   3 H  px              109     -1.508684   9 H  px        

 Vector   79  Occ=0.000000D+00  E= 2.606955D+00  Symmetry=eu
              MO Center=  4.5D-15,  3.5D-15, -8.9D-15, r^2= 4.2D+00
   Bfn.  Coefficient  Atom+Function         Bfn.  Coefficient  Atom+Function  
  ----- ------------  ---------------      ----- ------------  ---------------
    44      5.842225   4 H  s               113     -5.842225  10 H  s         
    10      4.933373   1 C  py               70      4.933373   6 C  py        
    53     -4.133444   5 H  s                86      4.133444   7 H  s         
     9      2.675797   1 C  px               69      2.675797   6 C  px        
    50      2.115097   4 H  py              119      2.115097  10 H  py        

 Vector   80  Occ=0.000000D+00  E= 2.606955D+00  Symmetry=eu
              MO Center= -1.1D-14, -1.3D-15, -5.9D-15, r^2= 4.2D+00
   Bfn.  Coefficient  Atom+Function         Bfn.  Coefficient  Atom+Function  
  ----- ------------  ---------------      ----- ------------  ---------------
    35      5.759455   3 H  s               104     -5.759455   9 H  s         
     9      4.933373   1 C  px               69      4.933373   6 C  px        
    53     -4.359575   5 H  s                86      4.359575   7 H  s         
    10     -2.675797   1 C  py               70     -2.675797   6 C  py        
    41     -1.588059   3 H  py              110     -1.588059   9 H  py        

 Vector   81  Occ=0.000000D+00  E= 2.626540D+00  Symmetry=a1g
              MO Center=  7.2D-16, -1.5D-15, -1.4D-14, r^2= 7.4D+00
   Bfn.  Coefficient  Atom+Function         Bfn.  Coefficient  Atom+Function  
  ----- ------------  ---------------      ----- ------------  ---------------
    26      6.966616   2 H  s                95      6.966616   8 H  s         
    11     -6.071570   1 C  pz               71      6.071570   6 C  pz        
    33     -2.916607   2 H  pz              102      2.916607   8 H  pz        
    35     -2.070042   3 H  s                44     -2.070042   4 H  s         
    53     -2.070042   5 H  s                86     -2.070042   7 H  s         

 Vector   82  Occ=0.000000D+00  E= 2.654231D+00  Symmetry=a2u
              MO Center=  6.3D-16, -1.4D-15,  1.0D-13, r^2= 8.3D+00
   Bfn.  Coefficient  Atom+Function         Bfn.  Coefficient  Atom+Function  
  ----- ------------  ---------------      ----- ------------  ---------------
    26      6.095871   2 H  s                95     -6.095871   8 H  s         
    11     -4.317980   1 C  pz               71     -4.317980   6 C  pz        
     4     -2.773255   1 C  s                64      2.773255   6 C  s         
    33     -2.423535   2 H  pz              102     -2.423535   8 H  pz        
    22     -1.178769   1 C  d  0             82      1.178769   6 C  d  0      

 Vector   83  Occ=0.000000D+00  E= 2.826210D+00  Symmetry=a1g
              MO Center=  8.5D-16,  1.9D-15, -4.3D-14, r^2= 5.7D+00
   Bfn.  Coefficient  Atom+Function         Bfn.  Coefficient  Atom+Function  
  ----- ------------  ---------------      ----- ------------  ---------------
     4      8.943761   1 C  s                64      8.943761   6 C  s         
    26     -3.033871   2 H  s                95     -3.033871   8 H  s         
    35     -2.834979   3 H  s                44     -2.834979   4 H  s         
    53     -2.834979   5 H  s                86     -2.834979   7 H  s         
   104     -2.834979   9 H  s               113     -2.834979  10 H  s         

 Vector   84  Occ=0.000000D+00  E= 2.890930D+00  Symmetry=a2u
              MO Center= -3.1D-14, -3.0D-14,  7.0D-14, r^2= 5.2D+00
   Bfn.  Coefficient  Atom+Function         Bfn.  Coefficient  Atom+Function  
  ----- ------------  ---------------      ----- ------------  ---------------
     4      4.020423   1 C  s                64     -4.020423   6 C  s         
    26     -2.207207   2 H  s                95      2.207207   8 H  s         
    11      1.533246   1 C  pz               71      1.533246   6 C  pz        
    33      1.434337   2 H  pz              102      1.434337   8 H  pz        
    35     -1.034465   3 H  s                44     -1.034465   4 H  s         

 Vector   85  Occ=0.000000D+00  E= 2.898966D+00  Symmetry=eu
              MO Center=  1.8D-13, -2.9D-15,  4.6D-13, r^2= 4.2D+00
   Bfn.  Coefficient  Atom+Function         Bfn.  Coefficient  Atom+Function  
  ----- ------------  ---------------      ----- ------------  ---------------
    10      0.849453   1 C  py               70      0.849453   6 C  py        
    50      0.567451   4 H  py              119      0.567451  10 H  py        
     9      0.508693   1 C  px               69      0.508693   6 C  px        
    16     -0.472400   1 C  d -1             76      0.472400   6 C  d -1      
    44      0.423013   4 H  s               113     -0.423013  10 H  s         

 Vector   86  Occ=0.000000D+00  E= 2.898966D+00  Symmetry=eu
              MO Center=  4.1D-13, -3.4D-13, -3.6D-12, r^2= 4.2D+00
   Bfn.  Coefficient  Atom+Function         Bfn.  Coefficient  Atom+Function  
  ----- ------------  ---------------      ----- ------------  ---------------
     9      0.849453   1 C  px               69      0.849453   6 C  px        
    10     -0.508693   1 C  py               70     -0.508693   6 C  py        
[...]
              MO Center= -7.2D-15,  4.4D-15, -6.8D-14, r^2= 6.0D+00
   Bfn.  Coefficient  Atom+Function         Bfn.  Coefficient  Atom+Function  
  ----- ------------  ---------------      ----- ------------  ---------------
    29      0.447422   2 H  py               98     -0.447422   8 H  py        
    48      0.438898   4 H  pz              117     -0.438898  10 H  pz        
    28      0.424539   2 H  px               57     -0.425796   5 H  pz        
    90      0.425796   7 H  pz               97     -0.424539   8 H  px        
    32     -0.351916   2 H  py              101      0.351916   8 H  py        

 Vector  100  Occ=0.000000D+00  E= 3.634501D+00  Symmetry=eg
              MO Center= -1.4D-15, -7.8D-15, -2.2D-14, r^2= 6.0D+00
   Bfn.  Coefficient  Atom+Function         Bfn.  Coefficient  Atom+Function  
  ----- ------------  ---------------      ----- ------------  ---------------
    39      0.499231   3 H  pz              108     -0.499231   9 H  pz        
    28      0.447422   2 H  px               97     -0.447422   8 H  px        
    29     -0.424539   2 H  py               98      0.424539   8 H  py        
    42     -0.383805   3 H  pz              111      0.383805   9 H  pz        
    31     -0.351916   2 H  px              100      0.351916   8 H  px        

 Vector  101  Occ=0.000000D+00  E= 3.786327D+00  Symmetry=eu
              MO Center= -4.9D-15, -4.1D-15,  6.4D-15, r^2= 5.5D+00
   Bfn.  Coefficient  Atom+Function         Bfn.  Coefficient  Atom+Function  
  ----- ------------  ---------------      ----- ------------  ---------------
    36      0.543658   3 H  s               105     -0.543658   9 H  s         
    46      0.513514   4 H  px              115      0.513514  10 H  px        
    12      0.502325   1 C  px               72      0.502325   6 C  px        
    56     -0.464739   5 H  py               89     -0.464739   7 H  py        
    28      0.441770   2 H  px               97      0.441770   8 H  px        

 Vector  102  Occ=0.000000D+00  E= 3.786327D+00  Symmetry=eu
              MO Center=  8.3D-15,  3.3D-14,  1.6D-13, r^2= 5.5D+00
   Bfn.  Coefficient  Atom+Function         Bfn.  Coefficient  Atom+Function  
  ----- ------------  ---------------      ----- ------------  ---------------
    13      0.502325   1 C  py               73      0.502325   6 C  py        
    45      0.497117   4 H  s               114     -0.497117  10 H  s         
    54     -0.444526   5 H  s                87      0.444526   7 H  s         
    29      0.441770   2 H  py               98      0.441770   8 H  py        
    12      0.413711   1 C  px               72      0.413711   6 C  px        

 Vector  103  Occ=0.000000D+00  E= 3.792999D+00  Symmetry=eg
              MO Center= -2.1D-14, -5.5D-15,  6.4D-14, r^2= 5.5D+00
   Bfn.  Coefficient  Atom+Function         Bfn.  Coefficient  Atom+Function  
  ----- ------------  ---------------      ----- ------------  ---------------
    12      0.613923   1 C  px               72     -0.613923   6 C  px        
    46      0.538647   4 H  px              115     -0.538647  10 H  px        
    28      0.528201   2 H  px               97     -0.528201   8 H  px        
    36      0.523875   3 H  s               105      0.523875   9 H  s         
    49     -0.482010   4 H  px              118      0.482010  10 H  px        

 Vector  104  Occ=0.000000D+00  E= 3.792999D+00  Symmetry=eg
              MO Center=  8.5D-15, -2.5D-14, -2.2D-13, r^2= 5.5D+00
   Bfn.  Coefficient  Atom+Function         Bfn.  Coefficient  Atom+Function  
  ----- ------------  ---------------      ----- ------------  ---------------
    13      0.613923   1 C  py               73     -0.613923   6 C  py        
    45      0.570540   4 H  s               114      0.570540  10 H  s         
    29      0.528201   2 H  py               98     -0.528201   8 H  py        
    32     -0.469475   2 H  py              101      0.469475   8 H  py        
    56      0.425524   5 H  py               89     -0.425524   7 H  py        

 Vector  105  Occ=0.000000D+00  E= 3.802393D+00  Symmetry=a2u
              MO Center=  5.0D-15,  5.1D-15, -3.4D-14, r^2= 4.2D+00
   Bfn.  Coefficient  Atom+Function         Bfn.  Coefficient  Atom+Function  
  ----- ------------  ---------------      ----- ------------  ---------------
    14      1.291612   1 C  pz               74      1.291612   6 C  pz        
    27     -1.014277   2 H  s                96      1.014277   8 H  s         
    39      0.477948   3 H  pz               48      0.477948   4 H  pz        
    57      0.477948   5 H  pz               90      0.477948   7 H  pz        
   108      0.477948   9 H  pz              117      0.477948  10 H  pz        

 Vector  106  Occ=0.000000D+00  E= 3.856982D+00  Symmetry=eu
              MO Center= -5.8D-17,  1.7D-15, -1.7D-13, r^2= 4.8D+00
   Bfn.  Coefficient  Atom+Function         Bfn.  Coefficient  Atom+Function  
  ----- ------------  ---------------      ----- ------------  ---------------
    21      0.528882   1 C  d -1             81     -0.528882   6 C  d -1      
    29      0.447422   2 H  py               98      0.447422   8 H  py        
    32     -0.445113   2 H  py              101     -0.445113   8 H  py        
    16     -0.435491   1 C  d -1             76      0.435491   6 C  d -1      
    59      0.374404   5 H  py               92      0.374404   7 H  py        

 Vector  107  Occ=0.000000D+00  E= 3.856982D+00  Symmetry=eu
              MO Center= -3.0D-16, -4.3D-16, -6.1D-14, r^2= 4.8D+00
   Bfn.  Coefficient  Atom+Function         Bfn.  Coefficient  Atom+Function  
  ----- ------------  ---------------      ----- ------------  ---------------
    23      0.528882   1 C  d  1             83     -0.528882   6 C  d  1      
    28     -0.447422   2 H  px               97     -0.447422   8 H  px        
    31      0.445113   2 H  px              100      0.445113   8 H  px        
    18     -0.435491   1 C  d  1             78      0.435491   6 C  d  1      
    60      0.361021   5 H  pz               93      0.361021   7 H  pz        

 Vector  108  Occ=0.000000D+00  E= 3.894470D+00  Symmetry=eg
              MO Center= -5.6D-15, -1.7D-15,  6.1D-14, r^2= 4.3D+00
   Bfn.  Coefficient  Atom+Function         Bfn.  Coefficient  Atom+Function  
  ----- ------------  ---------------      ----- ------------  ---------------
    23      0.474436   1 C  d  1             83      0.474436   6 C  d  1      
    57     -0.438465   5 H  pz               90      0.438465   7 H  pz        
    60      0.432469   5 H  pz               93     -0.432469   7 H  pz        
    18     -0.368584   1 C  d  1             78     -0.368584   6 C  d  1      
    49     -0.351693   4 H  px              118      0.351693  10 H  px        

 Vector  109  Occ=0.000000D+00  E= 3.894470D+00  Symmetry=eg
              MO Center= -6.0D-16, -1.8D-15,  1.7D-13, r^2= 4.3D+00
   Bfn.  Coefficient  Atom+Function         Bfn.  Coefficient  Atom+Function  
  ----- ------------  ---------------      ----- ------------  ---------------
    21      0.474436   1 C  d -1             81      0.474436   6 C  d -1      
    48     -0.402185   4 H  pz              117      0.402185  10 H  pz        
    59      0.398923   5 H  py               92     -0.398923   7 H  py        
    51      0.396686   4 H  pz              120     -0.396686  10 H  pz        
    56     -0.393397   5 H  py               89      0.393397   7 H  py        

 Vector  110  Occ=0.000000D+00  E= 3.913783D+00  Symmetry=a1g
              MO Center= -2.0D-15, -2.7D-15,  8.3D-15, r^2= 4.2D+00
   Bfn.  Coefficient  Atom+Function         Bfn.  Coefficient  Atom+Function  
  ----- ------------  ---------------      ----- ------------  ---------------
     4      1.738934   1 C  s                64      1.738934   6 C  s         
     5      0.639385   1 C  s                65      0.639385   6 C  s         
    35     -0.626863   3 H  s                44     -0.626863   4 H  s         
    53     -0.626863   5 H  s                86     -0.626863   7 H  s         
   104     -0.626863   9 H  s               113     -0.626863  10 H  s         

 Vector  111  Occ=0.000000D+00  E= 3.960300D+00  Symmetry=a2u
              MO Center=  8.3D-16, -6.3D-16,  1.0D-14, r^2= 4.9D+00
   Bfn.  Coefficient  Atom+Function         Bfn.  Coefficient  Atom+Function  
  ----- ------------  ---------------      ----- ------------  ---------------
     4      2.808906   1 C  s                64     -2.808906   6 C  s         
     5      1.017756   1 C  s                65     -1.017756   6 C  s         
    35     -0.667383   3 H  s                44     -0.667383   4 H  s         
    53     -0.667383   5 H  s                86      0.667383   7 H  s         
   104      0.667383   9 H  s               113      0.667383  10 H  s         

 Vector  112  Occ=0.000000D+00  E= 4.031289D+00  Symmetry=a1g
              MO Center=  7.2D-16,  2.9D-15,  3.0D-14, r^2= 4.5D+00
   Bfn.  Coefficient  Atom+Function         Bfn.  Coefficient  Atom+Function  
  ----- ------------  ---------------      ----- ------------  ---------------
     4      2.054937   1 C  s                64      2.054937   6 C  s         
    26     -1.466303   2 H  s                95     -1.466303   8 H  s         
    11      1.099553   1 C  pz               71     -1.099553   6 C  pz        
    14      0.952881   1 C  pz               74     -0.952881   6 C  pz        
    33      0.841170   2 H  pz              102     -0.841170   8 H  pz        

 Vector  113  Occ=0.000000D+00  E= 4.582121D+00  Symmetry=a1g
              MO Center=  2.7D-14, -3.2D-14, -7.1D-13, r^2= 6.4D+00
   Bfn.  Coefficient  Atom+Function         Bfn.  Coefficient  Atom+Function  
  ----- ------------  ---------------      ----- ------------  ---------------
    26      1.032677   2 H  s                95      1.032677   8 H  s         
    33     -0.960348   2 H  pz              102      0.960348   8 H  pz        
    11     -0.858511   1 C  pz               71      0.858511   6 C  pz        
    30      0.842645   2 H  pz               99     -0.842645   8 H  pz        
    17      0.649734   1 C  d  0             77      0.649734   6 C  d  0      

 Vector  114  Occ=0.000000D+00  E= 4.583003D+00  Symmetry=eg
              MO Center=  1.2D-13,  2.4D-14, -3.7D-13, r^2= 3.8D+00
   Bfn.  Coefficient  Atom+Function         Bfn.  Coefficient  Atom+Function  
  ----- ------------  ---------------      ----- ------------  ---------------
    44      0.863559   4 H  s               113      0.863559  10 H  s         
    50      0.822122   4 H  py              119     -0.822122  10 H  py        
    47     -0.743194   4 H  py              116      0.743194  10 H  py        
    10      0.693054   1 C  py               70     -0.693054   6 C  py        
    45      0.514579   4 H  s               114      0.514579  10 H  s         

 Vector  115  Occ=0.000000D+00  E= 4.583003D+00  Symmetry=eg
              MO Center=  4.7D-14, -1.4D-13, -5.1D-13, r^2= 3.8D+00
   Bfn.  Coefficient  Atom+Function         Bfn.  Coefficient  Atom+Function  
  ----- ------------  ---------------      ----- ------------  ---------------
    53      0.779766   5 H  s                86      0.779766   7 H  s         
    58     -0.751071   5 H  px               91      0.751071   7 H  px        
    35     -0.715962   3 H  s               104     -0.715962   9 H  s         
     9     -0.693054   1 C  px               69      0.693054   6 C  px        
    55      0.678340   5 H  px               88     -0.678340   7 H  px        

 Vector  116  Occ=0.000000D+00  E= 4.596156D+00  Symmetry=a2u
              MO Center= -1.4D-14,  1.6D-14,  7.0D-13, r^2= 6.4D+00
   Bfn.  Coefficient  Atom+Function         Bfn.  Coefficient  Atom+Function  
  ----- ------------  ---------------      ----- ------------  ---------------
    26      1.050389   2 H  s                95     -1.050389   8 H  s         
    33     -0.966919   2 H  pz              102     -0.966919   8 H  pz        
    30      0.844864   2 H  pz               99      0.844864   8 H  pz        
    11     -0.662479   1 C  pz               17      0.665262   1 C  d  0      
    71     -0.662479   6 C  pz               77     -0.665262   6 C  d  0      

 Vector  117  Occ=0.000000D+00  E= 4.605031D+00  Symmetry=eu
              MO Center= -2.7D-14,  1.1D-13,  2.9D-13, r^2= 3.8D+00
   Bfn.  Coefficient  Atom+Function         Bfn.  Coefficient  Atom+Function  
  ----- ------------  ---------------      ----- ------------  ---------------
    53      0.994757   5 H  s                86     -0.994757   7 H  s         
    58     -0.847939   5 H  px               91     -0.847939   7 H  px        
     9     -0.809672   1 C  px               69     -0.809672   6 C  px        
    55      0.724241   5 H  px               88      0.724241   7 H  px        
    35     -0.650093   3 H  s               104      0.650093   9 H  s         

 Vector  118  Occ=0.000000D+00  E= 4.605031D+00  Symmetry=eu
              MO Center= -1.6D-13,  1.9D-14,  6.0D-13, r^2= 3.8D+00
   Bfn.  Coefficient  Atom+Function         Bfn.  Coefficient  Atom+Function  
  ----- ------------  ---------------      ----- ------------  ---------------
    44      0.949655   4 H  s               113     -0.949655  10 H  s         
    50      0.816120   4 H  py              119      0.816120  10 H  py        
    10      0.809672   1 C  py               70      0.809672   6 C  py        
    35     -0.773314   3 H  s               104      0.773314   9 H  s         
    47     -0.696590   4 H  py              116     -0.696590  10 H  py        

 Vector  119  Occ=0.000000D+00  E= 2.168956D+01  Symmetry=a2u
              MO Center= -2.9D-16, -1.5D-16,  1.6D-13, r^2= 3.4D+00
   Bfn.  Coefficient  Atom+Function         Bfn.  Coefficient  Atom+Function  
  ----- ------------  ---------------      ----- ------------  ---------------
     5     -1.796644   1 C  s                65      1.796644   6 C  s         
     4      1.700140   1 C  s                64     -1.700140   6 C  s         
     2      1.224743   1 C  s                62     -1.224743   6 C  s         
     3     -1.199052   1 C  s                63      1.199052   6 C  s         
     1     -0.980847   1 C  s                61      0.980847   6 C  s         

 Vector  120  Occ=0.000000D+00  E= 2.173559D+01  Symmetry=a1g
              MO Center= -1.2D-16, -9.9D-17, -1.6D-13, r^2= 3.4D+00
   Bfn.  Coefficient  Atom+Function         Bfn.  Coefficient  Atom+Function  
  ----- ------------  ---------------      ----- ------------  ---------------
     4      1.793536   1 C  s                64      1.793536   6 C  s         
     5     -1.662420   1 C  s                65     -1.662420   6 C  s         
     2      1.227758   1 C  s                 3     -1.224206   1 C  s         
    62      1.227758   6 C  s                63     -1.224206   6 C  s         
     1     -0.981272   1 C  s                61     -0.981272   6 C  s         


 center of mass
 --------------
 x =   0.00000000 y =   0.00000000 z =   0.00000000

 moments of inertia (a.u.)
 ------------------
         389.795541354036           0.000000000000           0.000000000000
           0.000000000000         389.795541354036          -0.000000000000
           0.000000000000          -0.000000000000          22.954314902042

     Multipole analysis of the density
     ---------------------------------

     L   x y z        total         alpha         beta         nuclear
     -   - - -        -----         -----         ----         -------
     0   0 0 0     -0.000000    -10.000000    -10.000000     20.000000

     1   1 0 0      0.000000      0.000000      0.000000      0.000000
     1   0 1 0      0.000000      0.000000      0.000000      0.000000
     1   0 0 1      0.000000      0.000000      0.000000      0.000000

     2   2 0 0    -12.782554    -12.085300    -12.085300     11.388046
     2   1 1 0     -0.000000     -0.000000     -0.000000     -0.000000
     2   1 0 1     -0.000000     -0.000000     -0.000000     -0.000000
     2   0 2 0    -12.782554    -12.085300    -12.085300     11.388046
     2   0 1 1      0.000000      0.000000      0.000000      0.000000
     2   0 0 2    -12.909508   -126.533305   -126.533305    240.157101


 Task  times  cpu:        0.4s     wall:        0.4s


                                NWChem Input Module
                                -------------------


 Summary of allocated global arrays
-----------------------------------
  No active global arrays



                         GA Statistics for process    0
                         ------------------------------

       create   destroy   get      put      acc     scatter   gather  read&inc
calls:  480      480     2.47e+04 1.18e+04 1.56e+04    0        0     1947     
number of processes/call 1.40e+00 1.34e+00 1.05e+00 0.00e+00 0.00e+00
bytes total:             8.06e+07 1.95e+07 4.50e+07 0.00e+00 0.00e+00 1.56e+04
bytes remote:            5.14e+07 9.55e+06 2.80e+07 0.00e+00 0.00e+00 0.00e+00
Max memory consumed for GA by this process: 1152000 bytes

MA_summarize_allocated_blocks: starting scan ...
MA_summarize_allocated_blocks: scan completed: 0 heap blocks, 0 stack blocks
MA usage statistics:

	allocation statistics:
					      heap	     stack
					      ----	     -----
	current number of blocks	         0	         0
	maximum number of blocks	        28	        60
	current total bytes		         0	         0
	maximum total bytes		   1077088	  29573016
	maximum total K-bytes		      1078	     29574
	maximum total M-bytes		         2	        30


                                     CITATION
                                     --------
                Please cite the following reference when publishing
                           results obtained with NWChem:

                 M. Valiev, E.J. Bylaska, N. Govind, K. Kowalski,
              T.P. Straatsma, H.J.J. van Dam, D. Wang, J. Nieplocha,
                        E. Apra, T.L. Windus, W.A. de Jong
                 "NWChem: a comprehensive and scalable open-source
                  solution for large scale molecular simulations"
                      Comput. Phys. Commun. 181, 1477 (2010)
                           doi:10.1016/j.cpc.2010.04.018

                                      AUTHORS
                                      -------
          E. Apra, E. J. Bylaska, W. A. de Jong, N. Govind, K. Kowalski,
       T. P. Straatsma, M. Valiev, H. J. J. van Dam, D. Wang, T. L. Windus,
        J. Hammond, J. Autschbach, K. Bhaskaran-Nair, J. Brabec, K. Lopata,
    S. A. Fischer, S. Krishnamoorthy, M. Jacquelin, W. Ma, M. Klemm, O. Villa,
      Y. Chen, V. Anisimov, F. Aquino, S. Hirata, M. T. Hackler, V. Konjkov,
            D. Mejia-Rodriguez, T. Risthaus, M. Malagoli, A. Marenich,
   A. Otero-de-la-Roza, J. Mullin, P. Nichols, R. Peverati, J. Pittner, Y. Zhao,
        P.-D. Fan, A. Fonari, M. J. Williamson, R. J. Harrison, J. R. Rehr,
      M. Dupuis, D. Silverstein, D. M. A. Smith, J. Nieplocha, V. Tipparaju,
    M. Krishnan, B. E. Van Kuiken, A. Vazquez-Mayagoitia, L. Jensen, M. Swart,
      Q. Wu, T. Van Voorhis, A. A. Auer, M. Nooijen, L. D. Crosby, E. Brown,
      G. Cisneros, G. I. Fann, H. Fruchtl, J. Garza, K. Hirao, R. A. Kendall,
      J. A. Nichols, K. Tsemekhman, K. Wolinski, J. Anchell, D. E. Bernholdt,
      P. Borowski, T. Clark, D. Clerc, H. Dachsel, M. J. O. Deegan, K. Dyall,
    D. Elwood, E. Glendening, M. Gutowski, A. C. Hess, J. Jaffe, B. G. Johnson,
     J. Ju, R. Kobayashi, R. Kutteh, Z. Lin, R. Littlefield, X. Long, B. Meng,
      T. Nakajima, S. Niu, L. Pollack, M. Rosing, K. Glaesemann, G. Sandrone,
      M. Stave, H. Taylor, G. Thomas, J. H. van Lenthe, A. T. Wong, Z. Zhang.

 Total times  cpu:        2.0s     wall:        2.1s
[0] ARMCI Warning: Freed 1 leaked allocations
