 argument  1 = /home/list1234/source/nwchem-6.8.1-release/QA/tests/disp_dimer_ch4_cgmin/disp_dimer_ch4_cgmin.nw



============================== echo of input deck ==============================
echo
# calculation for methane dimer Grimme JCC 2004
# with BLYP/TZVP2P

title "ch4_2"


start ch4_2

geometry units angstroms noautoz
 C 0.00000000 0.00000000 1.78977169
 H 0.00000000 0.00000000 2.88489619
 H -0.72912121 0.72912121 1.42221856
 H -0.26687689 -0.99599810 1.42221856
 H 0.99599810 0.26687689 1.42221856
 C 0.00000000 0.00000000 -1.78977169
 H -0.99599810 -0.26687689 -1.42221856
 H 0.00000000 0.00000000 -2.88489619
 H 0.72912121 -0.72912121 -1.42221856
 H 0.26687689 0.99599810 -1.42221856
end


basis "ao basis" spherical noprint
  * library cc-pvdz
end

dft
 cgmin
 xc  becke88 1. lyp 1.
 vectors output ch4_2.movecs
 direct
 disp vdw 1
end
task dft optimize

dft
 cgmin
 disp vdw 3
end
task dft energy
================================================================================


                                         
                                         


              Northwest Computational Chemistry Package (NWChem) 6.8
              ------------------------------------------------------


                    Environmental Molecular Sciences Laboratory
                       Pacific Northwest National Laboratory
                                Richland, WA 99352

                              Copyright (c) 1994-2018
                       Pacific Northwest National Laboratory
                            Battelle Memorial Institute

             NWChem is an open-source computational chemistry package
                        distributed under the terms of the
                      Educational Community License (ECL) 2.0
             A copy of the license is included with this distribution
                              in the LICENSE.TXT file

                                  ACKNOWLEDGMENT
                                  --------------

            This software and its documentation were developed at the
            EMSL at Pacific Northwest National Laboratory, a multiprogram
            national laboratory, operated for the U.S. Department of Energy
            by Battelle under Contract Number DE-AC05-76RL01830. Support
            for this work was provided by the Department of Energy Office
            of Biological and Environmental Research, Office of Basic
            Energy Sciences, and the Office of Advanced Scientific Computing.


           Job information
           ---------------

    hostname        = list1234-B360M-H
    program         = /home/list1234/source/nwchem-6.8.1-release/bin/LINUX64/nwchem
    date            = Sun Jun 30 12:41:34 2019

    compiled        = Sun_Jun_30_11:55:59_2019
    source          = /home/list1234/source/nwchem-6.8.1-release
    nwchem branch   = Development
    nwchem revision = N/A
    ga revision     = 5.6.5
    use scalapack   = T
    input           = /home/list1234/source/nwchem-6.8.1-release/QA/tests/disp_dimer_ch4_cgmin/disp_dimer_ch4_cgmin.nw
    prefix          = ch4_2.
    data base       = ./ch4_2.db
    status          = startup
    nproc           =        4
    time left       =     -1s



           Memory information
           ------------------

    heap     =   86247168 doubles =    658.0 Mbytes
    stack    =   86247165 doubles =    658.0 Mbytes
    global   =  172494336 doubles =   1316.0 Mbytes (distinct from heap & stack)
    total    =  344988669 doubles =   2632.1 Mbytes
    verify   = yes
    hardfail = no 


           Directory information
           ---------------------

  0 permanent = .
  0 scratch   = .




                                NWChem Input Module
                                -------------------


                                       ch4_2
                                       -----

 Scaling coordinates for geometry "geometry" by  1.889725989
 (inverse scale =  0.529177249)

 D3D symmetry detected


                             Geometry "geometry" -> ""
                             -------------------------

 Output coordinates in angstroms (scale by  1.889725989 to convert to a.u.)

  No.       Tag          Charge          X              Y              Z
 ---- ---------------- ---------- -------------- -------------- --------------
    1 C                    6.0000    -0.00000000     0.00000000     1.78977169
    2 H                    1.0000     0.00000000    -0.00000000     2.88489619
    3 H                    1.0000    -0.72912121     0.72912121     1.42221856
    4 H                    1.0000    -0.26687689    -0.99599810     1.42221856
    5 H                    1.0000     0.99599810     0.26687689     1.42221856
    6 C                    6.0000     0.00000000     0.00000000    -1.78977169
    7 H                    1.0000    -0.99599810    -0.26687689    -1.42221856
    8 H                    1.0000    -0.00000000     0.00000000    -2.88489619
    9 H                    1.0000     0.72912121    -0.72912121    -1.42221856
   10 H                    1.0000     0.26687689     0.99599810    -1.42221856

      Atomic Mass 
      ----------- 

      C                 12.000000
      H                  1.007825


 Effective nuclear repulsion energy (a.u.)      41.3906222755

            Nuclear Dipole moment (a.u.) 
            ----------------------------
        X                 Y               Z
 ---------------- ---------------- ----------------
    -0.0000000000    -0.0000000000    -0.0000000000

      Symmetry information
      --------------------

 Group name             D3d       
 Group number             33
 Group order              12
 No. of unique centers     3

      Symmetry unique atoms

     1    2    3


            XYZ format geometry
            -------------------
    10
 geometry
 C                    -0.00000000     0.00000000     1.78977169
 H                     0.00000000    -0.00000000     2.88489619
 H                    -0.72912121     0.72912121     1.42221856
 H                    -0.26687689    -0.99599810     1.42221856
 H                     0.99599810     0.26687689     1.42221856
 C                     0.00000000     0.00000000    -1.78977169
 H                    -0.99599810    -0.26687689    -1.42221856
 H                    -0.00000000     0.00000000    -2.88489619
 H                     0.72912121    -0.72912121    -1.42221856
 H                     0.26687689     0.99599810    -1.42221856

 ==============================================================================
                                internuclear distances
 ------------------------------------------------------------------------------
       center one      |      center two      | atomic units |  angstroms
 ------------------------------------------------------------------------------
    2 H                |   1 C                |     2.06949  |     1.09512
    3 H                |   1 C                |     2.06865  |     1.09468
    4 H                |   1 C                |     2.06865  |     1.09468
    5 H                |   1 C                |     2.06865  |     1.09468
    7 H                |   6 C                |     2.06865  |     1.09468
    8 H                |   6 C                |     2.06949  |     1.09512
    9 H                |   6 C                |     2.06865  |     1.09468
   10 H                |   6 C                |     2.06865  |     1.09468
 ------------------------------------------------------------------------------
                         number of included internuclear distances:          8
 ==============================================================================



 ==============================================================================
                                 internuclear angles
 ------------------------------------------------------------------------------
        center 1       |       center 2       |       center 3       |  degrees
 ------------------------------------------------------------------------------
    2 H                |   1 C                |   3 H                |   109.62
    2 H                |   1 C                |   4 H                |   109.62
    2 H                |   1 C                |   5 H                |   109.62
    3 H                |   1 C                |   4 H                |   109.32
    3 H                |   1 C                |   5 H                |   109.32
    4 H                |   1 C                |   5 H                |   109.32
    7 H                |   6 C                |   8 H                |   109.62
    7 H                |   6 C                |   9 H                |   109.32
    7 H                |   6 C                |  10 H                |   109.32
    8 H                |   6 C                |   9 H                |   109.62
    8 H                |   6 C                |  10 H                |   109.62
    9 H                |   6 C                |  10 H                |   109.32
 ------------------------------------------------------------------------------
                            number of included internuclear angles:         12
 ==============================================================================





                           NWChem Geometry Optimization
                           ----------------------------




                                       ch4_2


 maximum gradient threshold         (gmax) =   0.000450
 rms gradient threshold             (grms) =   0.000300
 maximum cartesian step threshold   (xmax) =   0.001800
 rms cartesian step threshold       (xrms) =   0.001200
 fixed trust radius                (trust) =   0.300000
 maximum step size to saddle      (sadstp) =   0.100000
 energy precision                  (eprec) =   5.0D-06
 maximum number of steps          (nptopt) =   20
 initial hessian option           (inhess) =    0
 line search option               (linopt) =    1
 hessian update option            (modupd) =    1
 saddle point option              (modsad) =    0
 initial eigen-mode to follow     (moddir) =    0
 initial variable to follow       (vardir) =    0
 follow first negative mode     (firstneg) =    T
 apply conjugacy                    (opcg) =    F
 source of zmatrix                         =           


          -------------------
          Energy Minimization
          -------------------


 Using diagonal initial Hessian 

          --------
          Step   0
          --------


                         Geometry "geometry" -> "geometry"
                         ---------------------------------

 Output coordinates in angstroms (scale by  1.889725989 to convert to a.u.)

  No.       Tag          Charge          X              Y              Z
 ---- ---------------- ---------- -------------- -------------- --------------
    1 C                    6.0000    -0.00000000     0.00000000     1.78977169
    2 H                    1.0000     0.00000000    -0.00000000     2.88489619
    3 H                    1.0000    -0.72912121     0.72912121     1.42221856
    4 H                    1.0000    -0.26687689    -0.99599810     1.42221856
    5 H                    1.0000     0.99599810     0.26687689     1.42221856
    6 C                    6.0000     0.00000000     0.00000000    -1.78977169
    7 H                    1.0000    -0.99599810    -0.26687689    -1.42221856
    8 H                    1.0000    -0.00000000     0.00000000    -2.88489619
    9 H                    1.0000     0.72912121    -0.72912121    -1.42221856
   10 H                    1.0000     0.26687689     0.99599810    -1.42221856

      Atomic Mass 
      ----------- 

      C                 12.000000
      H                  1.007825


 Effective nuclear repulsion energy (a.u.)      41.3906222755

            Nuclear Dipole moment (a.u.) 
            ----------------------------
        X                 Y               Z
 ---------------- ---------------- ----------------
    -0.0000000000    -0.0000000000    -0.0000000000

      Symmetry information
      --------------------

 Group name             D3d       
 Group number             33
 Group order              12
 No. of unique centers     3

      Symmetry unique atoms

     1    2    3


                                 NWChem DFT Module
                                 -----------------


                                       ch4_2




 Summary of "ao basis" -> "ao basis" (spherical)
 ------------------------------------------------------------------------------
       Tag                 Description            Shells   Functions and Types
 ---------------- ------------------------------  ------  ---------------------
 C                          cc-pvdz                  6       14   3s2p1d
 H                          cc-pvdz                  3        5   2s1p


      Symmetry analysis of basis
      --------------------------

        a1g        13
        a1u         1
        a2g         1
        a2u        13
        eg         20
        eu         20

  Caching 1-el integrals 
  Rotation of axis 

            General Information
            -------------------
          SCF calculation type: DFT
          Wavefunction type:  closed shell.
          No. of atoms     :    10
          No. of electrons :    20
           Alpha electrons :    10
            Beta electrons :    10
          Charge           :     0
          Spin multiplicity:     1
          Use of symmetry is: on ; symmetry adaption is: on 
          Maximum number of iterations:  30
          This is a Direct SCF calculation.
          AO basis - number of functions:    68
                     number of shells:    36
          Convergence on energy requested:  1.00D-06
          Convergence on density requested:  1.00D-05
          Convergence on gradient requested:  5.00D-04

              XC Information
              --------------
                    Becke 1988 Exchange Functional  1.000          
              Lee-Yang-Parr Correlation Functional  1.000          

             Grid Information
             ----------------
          Grid used for XC integration:  medium    
          Radial quadrature: Mura-Knowles        
          Angular quadrature: Lebedev. 
          Tag              B.-S. Rad. Rad. Pts. Rad. Cut. Ang. Pts.
          ---              ---------- --------- --------- ---------
          C                   0.70       49          12.0       434
          H                   0.35       45          13.0       434
          Grid pruning is: on 
          Number of quadrature shells:   139
          Spatial weights used:  Erf1

          Convergence Information
          -----------------------
          Convergence aids based upon iterative change in 
          total energy or number of iterations. 
          Levelshifting, if invoked, occurs when the 
          HOMO/LUMO gap drops below (HL_TOL):  1.00D-02
          DIIS, if invoked, will attempt to extrapolate 
          using up to (NFOCK): 10 stored Fock matrices.

                    Damping( 0%)  Levelshifting(0.5)       DIIS
                  --------------- ------------------- ---------------
          dE  on:    start            ASAP                start   
          dE off:    2 iters         30 iters            30 iters 


      Screening Tolerance Information
      -------------------------------
          Density screening/tol_rho:  1.00D-10
          AO Gaussian exp screening on grid/accAOfunc:  14
          CD Gaussian exp screening on grid/accCDfunc:  20
          XC Gaussian exp screening on grid/accXCfunc:  20
          Schwarz screening/accCoul:  1.00D-08

      Dispersion Parameters
      ---------------------

          s6 scale factor :        1.400000000000
              vdW contrib :       -0.002536153039


      Superposition of Atomic Density Guess
      -------------------------------------

 Sum of atomic energies:         -79.32652423

      Non-variational initial energy
      ------------------------------

 Total energy =     -80.473601
 1-e energy   =    -185.628888
 2-e energy   =      63.764664
 HOMO         =      -0.501503
 LUMO         =       0.085311


      Symmetry analysis of molecular orbitals - initial
      -------------------------------------------------

  Numbering of irreducible representations: 

     1 a1g         2 a1u         3 a2g         4 a2u         5 eg      
     6 eu      

  Orbital symmetries:

     1 a1g         2 a2u         3 a1g         4 a2u         5 a1g     
     6 eu          7 eu          8 eg          9 eg         10 a2u     
    11 a1g        12 a2u        13 eu         14 eu         15 a1g     
    16 a2u        17 eg         18 eg         19 a1g        20 eu      



 ----------------------------------------------
         Quadratically convergent ROKS

 Convergence threshold     :          5.000E-04
 Maximum no. of iterations :           30
 Final Fock-matrix accuracy:          1.000E-08
 ----------------------------------------------


 Grid_pts file          = ./ch4_2.gridpts.0
 Record size in doubles =  12289        No. of grid_pts per rec  =   3070
 Max. records in memory =      7        Max. recs in file   =    862398


              iter       energy          gnorm     gmax       time
             ----- ------------------- --------- --------- --------
                 1      -80.9310296786  6.39D-01  1.96D-01      0.2
                 2      -80.9507547606  1.84D-01  4.09D-02      0.3
                 3      -80.9527197344  1.91D-03  5.76D-04      0.5
                 4      -80.9527200784  3.66D-05  9.15D-06      0.7


         Total DFT energy =      -80.952720078388
      One electron energy =     -188.690718723745
           Coulomb energy =       80.063339608066
    Exchange-Corr. energy =      -13.715963238184
 Nuclear repulsion energy =       41.390622275475

    Dispersion correction =       -0.002536153039

 Numeric. integr. density =       19.999991144183

     Total iterative time =      0.5s



                       DFT Final Molecular Orbital Analysis
                       ------------------------------------

 Vector    1  Occ=2.000000D+00  E=-9.908087D+00  Symmetry=a2u
              MO Center= -2.8D-18, -5.2D-18,  6.5D-16, r^2= 3.2D+00
   Bfn.  Coefficient  Atom+Function         Bfn.  Coefficient  Atom+Function  
  ----- ------------  ---------------      ----- ------------  ---------------
     1      0.712683   1 C  s                35     -0.712683   6 C  s         

 Vector    2  Occ=2.000000D+00  E=-9.908081D+00  Symmetry=a1g
              MO Center=  2.3D-21,  6.4D-21, -3.5D-16, r^2= 3.2D+00
   Bfn.  Coefficient  Atom+Function         Bfn.  Coefficient  Atom+Function  
  ----- ------------  ---------------      ----- ------------  ---------------
     1      0.712570   1 C  s                35      0.712570   6 C  s         

 Vector    3  Occ=2.000000D+00  E=-6.172524D-01  Symmetry=a1g
              MO Center=  1.5D-17,  2.1D-18,  1.2D-16, r^2= 4.1D+00
   Bfn.  Coefficient  Atom+Function         Bfn.  Coefficient  Atom+Function  
  ----- ------------  ---------------      ----- ------------  ---------------
     2      0.268604   1 C  s                36      0.268604   6 C  s         

 Vector    4  Occ=2.000000D+00  E=-6.120463D-01  Symmetry=a2u
              MO Center= -1.3D-17, -1.5D-17, -2.6D-16, r^2= 4.3D+00
   Bfn.  Coefficient  Atom+Function         Bfn.  Coefficient  Atom+Function  
  ----- ------------  ---------------      ----- ------------  ---------------
     2      0.272718   1 C  s                36     -0.272718   6 C  s         
     3      0.153443   1 C  s                37     -0.153443   6 C  s         

 Vector    5  Occ=2.000000D+00  E=-3.433536D-01  Symmetry=a1g
              MO Center= -4.2D-16, -9.0D-16,  1.2D-15, r^2= 5.8D+00
   Bfn.  Coefficient  Atom+Function         Bfn.  Coefficient  Atom+Function  
  ----- ------------  ---------------      ----- ------------  ---------------
     6      0.307692   1 C  pz               40     -0.307692   6 C  pz        
    15      0.269169   2 H  s                54      0.269169   8 H  s         

 Vector    6  Occ=2.000000D+00  E=-3.394601D-01  Symmetry=eu
              MO Center= -1.1D-16, -3.8D-18, -2.5D-16, r^2= 3.9D+00
   Bfn.  Coefficient  Atom+Function         Bfn.  Coefficient  Atom+Function  
  ----- ------------  ---------------      ----- ------------  ---------------
     5      0.308699   1 C  py               39      0.308699   6 C  py        
    25     -0.250376   4 H  s                64      0.250376  10 H  s         
    20      0.168921   3 H  s                59     -0.168921   9 H  s         

 Vector    7  Occ=2.000000D+00  E=-3.394601D-01  Symmetry=eu
              MO Center=  2.5D-16,  5.0D-16,  1.5D-16, r^2= 3.9D+00
   Bfn.  Coefficient  Atom+Function         Bfn.  Coefficient  Atom+Function  
  ----- ------------  ---------------      ----- ------------  ---------------
     4      0.308699   1 C  px               38      0.308699   6 C  px        
    30      0.242081   5 H  s                49     -0.242081   7 H  s         
    20     -0.191583   3 H  s                59      0.191583   9 H  s         

 Vector    8  Occ=2.000000D+00  E=-3.330039D-01  Symmetry=eg
              MO Center= -1.5D-16, -1.1D-16, -1.9D-16, r^2= 3.9D+00
   Bfn.  Coefficient  Atom+Function         Bfn.  Coefficient  Atom+Function  
  ----- ------------  ---------------      ----- ------------  ---------------
     4      0.278627   1 C  px               38     -0.278627   6 C  px        
    30      0.252187   5 H  s                49      0.252187   7 H  s         
    25     -0.178780   4 H  s                64     -0.178780  10 H  s         
     5      0.151678   1 C  py               39     -0.151678   6 C  py        

 Vector    9  Occ=2.000000D+00  E=-3.330039D-01  Symmetry=eg
              MO Center= -1.0D-17, -9.9D-17, -3.7D-16, r^2= 3.9D+00
   Bfn.  Coefficient  Atom+Function         Bfn.  Coefficient  Atom+Function  
  ----- ------------  ---------------      ----- ------------  ---------------
     5      0.278627   1 C  py               39     -0.278627   6 C  py        
    20      0.248819   3 H  s                59      0.248819   9 H  s         
    25     -0.187982   4 H  s                64     -0.187982  10 H  s         
     4     -0.151678   1 C  px               38      0.151678   6 C  px        

 Vector   10  Occ=2.000000D+00  E=-3.301221D-01  Symmetry=a2u
              MO Center=  6.8D-17,  6.5D-17, -5.8D-16, r^2= 5.9D+00
   Bfn.  Coefficient  Atom+Function         Bfn.  Coefficient  Atom+Function  
  ----- ------------  ---------------      ----- ------------  ---------------
     6      0.319443   1 C  pz               40      0.319443   6 C  pz        
    15      0.279385   2 H  s                54     -0.279385   8 H  s         

 Vector   11  Occ=0.000000D+00  E= 3.612202D-02  Symmetry=a1g
              MO Center=  4.3D-17, -1.2D-16,  1.9D-15, r^2= 6.7D+00
   Bfn.  Coefficient  Atom+Function         Bfn.  Coefficient  Atom+Function  
  ----- ------------  ---------------      ----- ------------  ---------------
     3      1.390362   1 C  s                37      1.390362   6 C  s         
    21     -0.526909   3 H  s                26     -0.526909   4 H  s         
    31     -0.526909   5 H  s                50     -0.526909   7 H  s         
    60     -0.526909   9 H  s                65     -0.526909  10 H  s         
    16     -0.442329   2 H  s                55     -0.442329   8 H  s         

 Vector   12  Occ=0.000000D+00  E= 8.481621D-02  Symmetry=a2u
              MO Center=  5.3D-17,  5.9D-17,  2.3D-16, r^2= 9.7D+00
   Bfn.  Coefficient  Atom+Function         Bfn.  Coefficient  Atom+Function  
  ----- ------------  ---------------      ----- ------------  ---------------
     3      1.577831   1 C  s                37     -1.577831   6 C  s         
    16     -0.847769   2 H  s                55      0.847769   8 H  s         
    21     -0.512363   3 H  s                26     -0.512363   4 H  s         
    31     -0.512363   5 H  s                50      0.512363   7 H  s         
    60      0.512363   9 H  s                65      0.512363  10 H  s         

 Vector   13  Occ=0.000000D+00  E= 1.082201D-01  Symmetry=eu
              MO Center=  2.3D-16,  3.0D-16,  2.2D-16, r^2= 5.5D+00
   Bfn.  Coefficient  Atom+Function         Bfn.  Coefficient  Atom+Function  
  ----- ------------  ---------------      ----- ------------  ---------------
    26      1.084996   4 H  s                31     -1.086901   5 H  s         
    50      1.086901   7 H  s                65     -1.084996  10 H  s         
     7      0.566791   1 C  px                8      0.565071   1 C  py        
    41      0.566791   6 C  px               42      0.565071   6 C  py        
     4      0.209633   1 C  px                5      0.208997   1 C  py        

 Vector   14  Occ=0.000000D+00  E= 1.082201D-01  Symmetry=eu
              MO Center= -1.3D-14,  9.2D-15, -3.2D-14, r^2= 5.5D+00
   Bfn.  Coefficient  Atom+Function         Bfn.  Coefficient  Atom+Function  
  ----- ------------  ---------------      ----- ------------  ---------------
    21      1.253945   3 H  s                60     -1.253945   9 H  s         
    26     -0.628623   4 H  s                65      0.628623  10 H  s         
    31     -0.625322   5 H  s                50      0.625322   7 H  s         
     7      0.565071   1 C  px                8     -0.566791   1 C  py        
    41      0.565071   6 C  px               42     -0.566791   6 C  py        

 Vector   15  Occ=0.000000D+00  E= 1.134841D-01  Symmetry=a1g
              MO Center=  2.1D-14, -2.1D-14, -2.3D-15, r^2= 1.0D+01
   Bfn.  Coefficient  Atom+Function         Bfn.  Coefficient  Atom+Function  
  ----- ------------  ---------------      ----- ------------  ---------------
    16      1.429230   2 H  s                55      1.429230   8 H  s         
     9     -0.892300   1 C  pz               43      0.892300   6 C  pz        
    21     -0.432612   3 H  s                26     -0.432612   4 H  s         
    31     -0.432612   5 H  s                50     -0.432612   7 H  s         
    60     -0.432612   9 H  s                65     -0.432612  10 H  s         

 Vector   16  Occ=0.000000D+00  E= 1.324350D-01  Symmetry=a2u
              MO Center=  4.0D-18, -2.6D-16, -1.1D-15, r^2= 9.3D+00
   Bfn.  Coefficient  Atom+Function         Bfn.  Coefficient  Atom+Function  
  ----- ------------  ---------------      ----- ------------  ---------------
    16      1.283359   2 H  s                55     -1.283359   8 H  s         
     9     -0.858925   1 C  pz               43     -0.858925   6 C  pz        
    21     -0.602925   3 H  s                26     -0.602925   4 H  s         
    31     -0.602925   5 H  s                50      0.602925   7 H  s         
    60      0.602925   9 H  s                65      0.602925  10 H  s         

 Vector   17  Occ=0.000000D+00  E= 1.387954D-01  Symmetry=eg
              MO Center= -3.9D-15, -2.5D-15,  5.7D-15, r^2= 5.9D+00
   Bfn.  Coefficient  Atom+Function         Bfn.  Coefficient  Atom+Function  
  ----- ------------  ---------------      ----- ------------  ---------------
    26      1.413604   4 H  s                65      1.413604  10 H  s         
     8      0.897969   1 C  py               42     -0.897969   6 C  py        
    31     -0.801261   5 H  s                50     -0.801261   7 H  s         
    21     -0.612344   3 H  s                60     -0.612344   9 H  s         
     7      0.316438   1 C  px               41     -0.316438   6 C  px        

 Vector   18  Occ=0.000000D+00  E= 1.387954D-01  Symmetry=eg
              MO Center= -3.4D-15,  1.2D-14,  2.6D-14, r^2= 5.9D+00
   Bfn.  Coefficient  Atom+Function         Bfn.  Coefficient  Atom+Function  
  ----- ------------  ---------------      ----- ------------  ---------------
    21      1.278753   3 H  s                60      1.278753   9 H  s         
    31     -1.169682   5 H  s                50     -1.169682   7 H  s         
     7      0.897969   1 C  px               41     -0.897969   6 C  px        
     8     -0.316438   1 C  py               42      0.316438   6 C  py        
     4      0.254128   1 C  px               38     -0.254128   6 C  px        

 Vector   19  Occ=0.000000D+00  E= 3.139242D-01  Symmetry=a1g
              MO Center=  6.1D-16, -1.3D-16, -4.5D-15, r^2= 5.2D+00
   Bfn.  Coefficient  Atom+Function         Bfn.  Coefficient  Atom+Function  
  ----- ------------  ---------------      ----- ------------  ---------------
     9      0.735658   1 C  pz               43     -0.735658   6 C  pz        
    15     -0.493700   2 H  s                54     -0.493700   8 H  s         
     3     -0.306131   1 C  s                37     -0.306131   6 C  s         
     6     -0.263680   1 C  pz               40      0.263680   6 C  pz        
    20      0.207179   3 H  s                25      0.207179   4 H  s         

 Vector   20  Occ=0.000000D+00  E= 3.760551D-01  Symmetry=eu
              MO Center= -3.7D-15, -4.6D-15, -2.2D-14, r^2= 5.6D+00
   Bfn.  Coefficient  Atom+Function         Bfn.  Coefficient  Atom+Function  
  ----- ------------  ---------------      ----- ------------  ---------------
     8      0.639202   1 C  py               42      0.639202   6 C  py        
    20     -0.562225   3 H  s                59      0.562225   9 H  s         
     7     -0.460911   1 C  px               41     -0.460911   6 C  px        
    25      0.360023   4 H  s                64     -0.360023  10 H  s         
    30      0.202202   5 H  s                49     -0.202202   7 H  s         

 Vector   21  Occ=0.000000D+00  E= 3.760551D-01  Symmetry=eu
              MO Center=  5.6D-16, -6.2D-15, -1.3D-13, r^2= 5.6D+00
   Bfn.  Coefficient  Atom+Function         Bfn.  Coefficient  Atom+Function  
  ----- ------------  ---------------      ----- ------------  ---------------
     7      0.639202   1 C  px               41      0.639202   6 C  px        
    30     -0.532460   5 H  s                49      0.532460   7 H  s         
     8      0.460911   1 C  py               42      0.460911   6 C  py        
    25      0.441342   4 H  s                64     -0.441342  10 H  s         

 Vector   22  Occ=0.000000D+00  E= 3.956518D-01  Symmetry=eg
              MO Center= -4.8D-16,  9.7D-15,  2.1D-13, r^2= 6.2D+00
   Bfn.  Coefficient  Atom+Function         Bfn.  Coefficient  Atom+Function  
  ----- ------------  ---------------      ----- ------------  ---------------
     8      0.682585   1 C  py               42     -0.682585   6 C  py        
    25      0.511513   4 H  s                64      0.511513  10 H  s         
    30     -0.347707   5 H  s                49     -0.347707   7 H  s         
     7      0.343699   1 C  px               41     -0.343699   6 C  px        
     5     -0.249720   1 C  py               39      0.249720   6 C  py        

 Vector   23  Occ=0.000000D+00  E= 3.956518D-01  Symmetry=eg
              MO Center=  1.4D-15,  1.2D-15, -5.6D-14, r^2= 6.2D+00
   Bfn.  Coefficient  Atom+Function         Bfn.  Coefficient  Atom+Function  
  ----- ------------  ---------------      ----- ------------  ---------------
     7      0.682585   1 C  px               41     -0.682585   6 C  px        
    20      0.496071   3 H  s                59      0.496071   9 H  s         
    30     -0.389896   5 H  s                49     -0.389896   7 H  s         
     8     -0.343699   1 C  py               42      0.343699   6 C  py        
     4     -0.249720   1 C  px               38      0.249720   6 C  px        

 Vector   24  Occ=0.000000D+00  E= 5.110091D-01  Symmetry=a2u
              MO Center=  3.2D-17,  4.2D-16, -8.2D-15, r^2= 7.7D+00
   Bfn.  Coefficient  Atom+Function         Bfn.  Coefficient  Atom+Function  
  ----- ------------  ---------------      ----- ------------  ---------------
    15      0.759483   2 H  s                54     -0.759483   8 H  s         
    16     -0.669611   2 H  s                55      0.669611   8 H  s         
    21      0.224727   3 H  s                26      0.224727   4 H  s         
    31      0.224727   5 H  s                50     -0.224727   7 H  s         
    60     -0.224727   9 H  s                65     -0.224727  10 H  s         

 Vector   25  Occ=0.000000D+00  E= 5.915400D-01  Symmetry=a1g
              MO Center=  1.5D-14, -7.3D-15,  1.1D-15, r^2= 7.4D+00
   Bfn.  Coefficient  Atom+Function         Bfn.  Coefficient  Atom+Function  
  ----- ------------  ---------------      ----- ------------  ---------------
    16      1.296367   2 H  s                55      1.296367   8 H  s         
     9     -1.101887   1 C  pz               43      1.101887   6 C  pz        
     6      0.583978   1 C  pz               40     -0.583978   6 C  pz        
    21     -0.472302   3 H  s                26     -0.472302   4 H  s         
    31     -0.472302   5 H  s                50     -0.472302   7 H  s         

 Vector   26  Occ=0.000000D+00  E= 6.078494D-01  Symmetry=eg
              MO Center=  9.2D-15,  1.0D-14,  4.1D-14, r^2= 5.3D+00
   Bfn.  Coefficient  Atom+Function         Bfn.  Coefficient  Atom+Function  
  ----- ------------  ---------------      ----- ------------  ---------------
    31      1.453280   5 H  s                50      1.453280   7 H  s         
     7     -1.206988   1 C  px               41      1.206988   6 C  px        
    26     -0.740302   4 H  s                65     -0.740302  10 H  s         
    21     -0.712978   3 H  s                60     -0.712978   9 H  s         
     4      0.561730   1 C  px               38     -0.561730   6 C  px        

 Vector   27  Occ=0.000000D+00  E= 6.078494D-01  Symmetry=eg
              MO Center= -1.4D-14,  1.3D-14,  4.7D-14, r^2= 5.3D+00
   Bfn.  Coefficient  Atom+Function         Bfn.  Coefficient  Atom+Function  
  ----- ------------  ---------------      ----- ------------  ---------------
    21     -1.266465   3 H  s                60     -1.266465   9 H  s         
    26      1.250690   4 H  s                65      1.250690  10 H  s         
     8      1.206988   1 C  py               42     -1.206988   6 C  py        
     5     -0.561730   1 C  py               39      0.561730   6 C  py        
     7     -0.337495   1 C  px               41      0.337495   6 C  px        

 Vector   28  Occ=0.000000D+00  E= 6.131225D-01  Symmetry=eu
              MO Center= -1.2D-15,  1.7D-15,  4.4D-15, r^2= 5.4D+00
   Bfn.  Coefficient  Atom+Function         Bfn.  Coefficient  Atom+Function  
  ----- ------------  ---------------      ----- ------------  ---------------
    26      1.245790   4 H  s                65     -1.245790  10 H  s         
     8      1.205073   1 C  py               42      1.205073   6 C  py        
    31     -0.800445   5 H  s                50      0.800445   7 H  s         
     5     -0.573634   1 C  py               39     -0.573634   6 C  py        
     7      0.545259   1 C  px               41      0.545259   6 C  px        

 Vector   29  Occ=0.000000D+00  E= 6.131225D-01  Symmetry=eu
              MO Center= -1.1D-14, -1.1D-14, -9.7D-14, r^2= 5.4D+00
   Bfn.  Coefficient  Atom+Function         Bfn.  Coefficient  Atom+Function  
  ----- ------------  ---------------      ----- ------------  ---------------
     7      1.205073   1 C  px               41      1.205073   6 C  px        
    21      1.181395   3 H  s                60     -1.181395   9 H  s         
    31     -0.976377   5 H  s                50      0.976377   7 H  s         
     4     -0.573634   1 C  px               38     -0.573634   6 C  px        
     8     -0.545259   1 C  py               42     -0.545259   6 C  py        

 Vector   30  Occ=0.000000D+00  E= 6.312090D-01  Symmetry=a2u
              MO Center=  5.1D-16, -6.9D-16,  8.5D-15, r^2= 5.6D+00
   Bfn.  Coefficient  Atom+Function         Bfn.  Coefficient  Atom+Function  
  ----- ------------  ---------------      ----- ------------  ---------------
     9      1.122718   1 C  pz               43      1.122718   6 C  pz        
    16     -0.995922   2 H  s                55      0.995922   8 H  s         
    21      0.600608   3 H  s                26      0.600608   4 H  s         
    31      0.600608   5 H  s                50     -0.600608   7 H  s         
    60     -0.600608   9 H  s                65     -0.600608  10 H  s         

 Vector   31  Occ=0.000000D+00  E= 6.379260D-01  Symmetry=a1g
              MO Center=  1.7D-15, -1.7D-17,  4.8D-15, r^2= 5.7D+00
   Bfn.  Coefficient  Atom+Function         Bfn.  Coefficient  Atom+Function  
  ----- ------------  ---------------      ----- ------------  ---------------
     3      0.574407   1 C  s                37      0.574407   6 C  s         
     2     -0.486478   1 C  s                36     -0.486478   6 C  s         
    15      0.479335   2 H  s                54      0.479335   8 H  s         
    20      0.418445   3 H  s                25      0.418445   4 H  s         
    30      0.418445   5 H  s                49      0.418445   7 H  s         

 Vector   32  Occ=0.000000D+00  E= 7.432965D-01  Symmetry=a2u
              MO Center=  8.2D-16, -7.4D-16, -9.9D-16, r^2= 6.6D+00
   Bfn.  Coefficient  Atom+Function         Bfn.  Coefficient  Atom+Function  
  ----- ------------  ---------------      ----- ------------  ---------------
     3      1.305594   1 C  s                37     -1.305594   6 C  s         
     9      1.218064   1 C  pz               43      1.218064   6 C  pz        
    16     -1.114846   2 H  s                55      1.114846   8 H  s         
     2     -0.515949   1 C  s                36      0.515949   6 C  s         
     6     -0.455031   1 C  pz               40     -0.455031   6 C  pz        

 Vector   33  Occ=0.000000D+00  E= 8.640066D-01  Symmetry=eu
              MO Center=  1.4D-14, -1.6D-14, -1.8D-12, r^2= 4.4D+00
   Bfn.  Coefficient  Atom+Function         Bfn.  Coefficient  Atom+Function  
  ----- ------------  ---------------      ----- ------------  ---------------
    11      0.240291   1 C  d -1             45     -0.240291   6 C  d -1      
    13     -0.217089   1 C  d  1             47      0.217089   6 C  d  1      
    14      0.203834   1 C  d  2             48     -0.203834   6 C  d  2      
    26     -0.162967   4 H  s                65      0.162967  10 H  s         
    29     -0.157644   4 H  pz               68     -0.157644  10 H  pz        

 Vector   34  Occ=0.000000D+00  E= 8.640066D-01  Symmetry=eu
              MO Center= -6.2D-15,  8.8D-15, -8.8D-13, r^2= 4.4D+00
   Bfn.  Coefficient  Atom+Function         Bfn.  Coefficient  Atom+Function  
  ----- ------------  ---------------      ----- ------------  ---------------
    13      0.240291   1 C  d  1             47     -0.240291   6 C  d  1      
    11      0.217089   1 C  d -1             45     -0.217089   6 C  d -1      
    10     -0.203834   1 C  d -2             44      0.203834   6 C  d -2      
    21      0.182824   3 H  s                60     -0.182824   9 H  s         
    24      0.176853   3 H  pz               63      0.176853   9 H  pz        

 Vector   35  Occ=0.000000D+00  E= 8.676797D-01  Symmetry=eg
              MO Center= -1.1D-14,  1.4D-14,  1.8D-12, r^2= 4.5D+00
   Bfn.  Coefficient  Atom+Function         Bfn.  Coefficient  Atom+Function  
  ----- ------------  ---------------      ----- ------------  ---------------
    14      0.250718   1 C  d  2             48      0.250718   6 C  d  2      
    26      0.235343   4 H  s                65      0.235343  10 H  s         
    31     -0.227043   5 H  s                50     -0.227043   7 H  s         
    11      0.212018   1 C  d -1             45      0.212018   6 C  d -1      
    13     -0.199231   1 C  d  1             47     -0.199231   6 C  d  1      

 Vector   36  Occ=0.000000D+00  E= 8.676797D-01  Symmetry=eg
              MO Center=  6.2D-15, -5.8D-15,  8.9D-13, r^2= 4.5D+00
   Bfn.  Coefficient  Atom+Function         Bfn.  Coefficient  Atom+Function  
  ----- ------------  ---------------      ----- ------------  ---------------
    21      0.266959   3 H  s                60      0.266959   9 H  s         
    10      0.250718   1 C  d -2             44      0.250718   6 C  d -2      
    13     -0.212018   1 C  d  1             47     -0.212018   6 C  d  1      
    11     -0.199231   1 C  d -1             45     -0.199231   6 C  d -1      
    27     -0.171697   4 H  px               66      0.171697  10 H  px        

 Vector   37  Occ=0.000000D+00  E= 9.671704D-01  Symmetry=a1g
              MO Center= -9.0D-17,  1.0D-15,  8.0D-14, r^2= 6.2D+00
   Bfn.  Coefficient  Atom+Function         Bfn.  Coefficient  Atom+Function  
  ----- ------------  ---------------      ----- ------------  ---------------
     3      3.497214   1 C  s                37      3.497214   6 C  s         
     2     -1.316990   1 C  s                36     -1.316990   6 C  s         
    16     -0.699698   2 H  s                55     -0.699698   8 H  s         
     1     -0.640332   1 C  s                35     -0.640332   6 C  s         
    21     -0.458873   3 H  s                26     -0.458873   4 H  s         

 Vector   38  Occ=0.000000D+00  E= 1.056341D+00  Symmetry=a2u
              MO Center= -2.6D-16,  8.5D-17, -8.0D-14, r^2= 5.2D+00
   Bfn.  Coefficient  Atom+Function         Bfn.  Coefficient  Atom+Function  
  ----- ------------  ---------------      ----- ------------  ---------------
     3      3.626703   1 C  s                37     -3.626703   6 C  s         
     2     -1.336139   1 C  s                36      1.336139   6 C  s         
     1     -0.655022   1 C  s                35      0.655022   6 C  s         
    21     -0.631974   3 H  s                26     -0.631974   4 H  s         
    31     -0.631974   5 H  s                50      0.631974   7 H  s         

 Vector   39  Occ=0.000000D+00  E= 1.367513D+00  Symmetry=eu
              MO Center= -8.2D-17, -3.3D-16, -1.8D-16, r^2= 5.5D+00
   Bfn.  Coefficient  Atom+Function         Bfn.  Coefficient  Atom+Function  
  ----- ------------  ---------------      ----- ------------  ---------------
    18      0.438531   2 H  py               57      0.438531   8 H  py        
    29      0.415919   4 H  pz               68      0.415919  10 H  pz        
    24     -0.284889   3 H  pz               63     -0.284889   9 H  pz        
    23     -0.162194   3 H  py               28     -0.162968   4 H  py        
    67     -0.162968  10 H  py               33     -0.161547   5 H  py        

 Vector   40  Occ=0.000000D+00  E= 1.367513D+00  Symmetry=eu
              MO Center= -4.1D-16, -3.2D-16,  2.9D-16, r^2= 5.5D+00
   Bfn.  Coefficient  Atom+Function         Bfn.  Coefficient  Atom+Function  
  ----- ------------  ---------------      ----- ------------  ---------------
    17      0.438531   2 H  px               56      0.438531   8 H  px        
    34     -0.404612   5 H  pz               53     -0.404612   7 H  pz        
    24      0.315781   3 H  pz               63      0.315781   9 H  pz        
    22     -0.162279   3 H  px               32     -0.162926   5 H  px        
    51     -0.162926   7 H  px               27     -0.161504   4 H  px        

 Vector   41  Occ=0.000000D+00  E= 1.368120D+00  Symmetry=eg
              MO Center= -8.1D-17, -2.8D-16, -2.4D-16, r^2= 5.7D+00
   Bfn.  Coefficient  Atom+Function         Bfn.  Coefficient  Atom+Function  
  ----- ------------  ---------------      ----- ------------  ---------------
    18      0.434526   2 H  py               57     -0.434526   8 H  py        
    24     -0.389470   3 H  pz               63      0.389470   9 H  pz        
    29      0.342910   4 H  pz               68     -0.342910  10 H  pz        
    17     -0.169272   2 H  px               56      0.169272   8 H  px        

 Vector   42  Occ=0.000000D+00  E= 1.368120D+00  Symmetry=eg
              MO Center= -2.1D-15,  2.0D-15,  2.5D-15, r^2= 5.7D+00
   Bfn.  Coefficient  Atom+Function         Bfn.  Coefficient  Atom+Function  
  ----- ------------  ---------------      ----- ------------  ---------------
    17      0.434526   2 H  px               56     -0.434526   8 H  px        
    34     -0.422840   5 H  pz               53      0.422840   7 H  pz        
    29      0.251742   4 H  pz               68     -0.251742  10 H  pz        
    24      0.171097   3 H  pz               63     -0.171097   9 H  pz        
    18      0.169272   2 H  py               57     -0.169272   8 H  py        

 Vector   43  Occ=0.000000D+00  E= 1.369045D+00  Symmetry=a1u
              MO Center=  4.1D-16, -3.5D-15,  1.8D-16, r^2= 3.6D+00
   Bfn.  Coefficient  Atom+Function         Bfn.  Coefficient  Atom+Function  
  ----- ------------  ---------------      ----- ------------  ---------------
    27      0.411526   4 H  px               33      0.411526   5 H  py        
    52      0.411526   7 H  py               66      0.411526  10 H  px        
    22     -0.301258   3 H  px               23     -0.301258   3 H  py        
    61     -0.301258   9 H  px               62     -0.301258   9 H  py        

 Vector   44  Occ=0.000000D+00  E= 1.369396D+00  Symmetry=a2g
              MO Center= -3.7D-16, -8.8D-16, -1.0D-16, r^2= 3.6D+00
   Bfn.  Coefficient  Atom+Function         Bfn.  Coefficient  Atom+Function  
  ----- ------------  ---------------      ----- ------------  ---------------
    27      0.411535   4 H  px               33      0.411535   5 H  py        
    52     -0.411535   7 H  py               66     -0.411535  10 H  px        
    22     -0.301265   3 H  px               23     -0.301265   3 H  py        
    61      0.301265   9 H  px               62      0.301265   9 H  py        

 Vector   45  Occ=0.000000D+00  E= 1.557492D+00  Symmetry=eu
              MO Center= -4.6D-15, -1.6D-14, -3.6D-13, r^2= 4.7D+00
   Bfn.  Coefficient  Atom+Function         Bfn.  Coefficient  Atom+Function  
  ----- ------------  ---------------      ----- ------------  ---------------
     7      0.726566   1 C  px               41      0.726566   6 C  px        
    20      0.457476   3 H  s                30     -0.455504   5 H  s         
    49      0.455504   7 H  s                59     -0.457476   9 H  s         
    10      0.365102   1 C  d -2             44     -0.365102   6 C  d -2      
    13      0.270609   1 C  d  1             47     -0.270609   6 C  d  1      

 Vector   46  Occ=0.000000D+00  E= 1.557492D+00  Symmetry=eu
              MO Center=  4.5D-15, -3.7D-15, -1.5D-13, r^2= 4.7D+00
   Bfn.  Coefficient  Atom+Function         Bfn.  Coefficient  Atom+Function  
  ----- ------------  ---------------      ----- ------------  ---------------
     8      0.726566   1 C  py               42      0.726566   6 C  py        
    25      0.527109   4 H  s                64     -0.527109  10 H  s         
    14      0.365102   1 C  d  2             48     -0.365102   6 C  d  2      
    11     -0.270609   1 C  d -1             45      0.270609   6 C  d -1      
    30     -0.265263   5 H  s                49      0.265263   7 H  s         

 Vector   47  Occ=0.000000D+00  E= 1.572074D+00  Symmetry=a1g
              MO Center=  2.9D-15,  1.4D-14, -7.3D-14, r^2= 5.3D+00
   Bfn.  Coefficient  Atom+Function         Bfn.  Coefficient  Atom+Function  
  ----- ------------  ---------------      ----- ------------  ---------------
     9      0.597484   1 C  pz               43     -0.597484   6 C  pz        
    15     -0.553010   2 H  s                54     -0.553010   8 H  s         
    12      0.489773   1 C  d  0             46      0.489773   6 C  d  0      
    19     -0.282267   2 H  pz               58      0.282267   8 H  pz        
    24     -0.234013   3 H  pz               29     -0.234013   4 H  pz        

 Vector   48  Occ=0.000000D+00  E= 1.574891D+00  Symmetry=eg
              MO Center=  4.2D-15,  2.0D-14,  3.5D-13, r^2= 4.6D+00
   Bfn.  Coefficient  Atom+Function         Bfn.  Coefficient  Atom+Function  
  ----- ------------  ---------------      ----- ------------  ---------------
     7      0.674895   1 C  px               41     -0.674895   6 C  px        
    30     -0.529831   5 H  s                49     -0.529831   7 H  s         
    20      0.454705   3 H  s                59      0.454705   9 H  s         
    10      0.315359   1 C  d -2             44      0.315359   6 C  d -2      
    13      0.307753   1 C  d  1             47      0.307753   6 C  d  1      

 Vector   49  Occ=0.000000D+00  E= 1.574891D+00  Symmetry=eg
              MO Center= -1.3D-15, -6.5D-15,  1.6D-13, r^2= 4.6D+00
   Bfn.  Coefficient  Atom+Function         Bfn.  Coefficient  Atom+Function  
  ----- ------------  ---------------      ----- ------------  ---------------
     8      0.674895   1 C  py               42     -0.674895   6 C  py        
    25      0.568423   4 H  s                64      0.568423  10 H  s         
    20     -0.349272   3 H  s                59     -0.349272   9 H  s         
    14      0.315359   1 C  d  2             48      0.315359   6 C  d  2      
    11     -0.307753   1 C  d -1             45     -0.307753   6 C  d -1      

 Vector   50  Occ=0.000000D+00  E= 1.656900D+00  Symmetry=a2u
              MO Center=  9.7D-16,  3.5D-15,  6.8D-14, r^2= 5.8D+00
   Bfn.  Coefficient  Atom+Function         Bfn.  Coefficient  Atom+Function  
  ----- ------------  ---------------      ----- ------------  ---------------
     9      0.953573   1 C  pz               43      0.953573   6 C  pz        
    12      0.580152   1 C  d  0             15     -0.579107   2 H  s         
    46     -0.580152   6 C  d  0             54      0.579107   8 H  s         
    19     -0.337187   2 H  pz               58     -0.337187   8 H  pz        
    20      0.301132   3 H  s                25      0.301132   4 H  s         

 Vector   51  Occ=0.000000D+00  E= 1.856876D+00  Symmetry=a1g
              MO Center= -2.8D-14, -4.5D-14, -1.4D-14, r^2= 4.0D+00
   Bfn.  Coefficient  Atom+Function         Bfn.  Coefficient  Atom+Function  
  ----- ------------  ---------------      ----- ------------  ---------------
    12      0.533302   1 C  d  0             46      0.533302   6 C  d  0      
     9     -0.463064   1 C  pz               43      0.463064   6 C  pz        
    24      0.431091   3 H  pz               29      0.431091   4 H  pz        
    34      0.431091   5 H  pz               53     -0.431091   7 H  pz        
    63     -0.431091   9 H  pz               68     -0.431091  10 H  pz        

 Vector   52  Occ=0.000000D+00  E= 1.861024D+00  Symmetry=eu
              MO Center=  3.4D-14,  4.3D-15, -3.7D-13, r^2= 5.4D+00
   Bfn.  Coefficient  Atom+Function         Bfn.  Coefficient  Atom+Function  
  ----- ------------  ---------------      ----- ------------  ---------------
     8      0.477211   1 C  py               42      0.477211   6 C  py        
    18     -0.435648   2 H  py               57     -0.435648   8 H  py        
    14     -0.428061   1 C  d  2             48      0.428061   6 C  d  2      
    26      0.376786   4 H  s                65     -0.376786  10 H  s         
    22     -0.368737   3 H  px               61     -0.368737   9 H  px        

 Vector   53  Occ=0.000000D+00  E= 1.861024D+00  Symmetry=eu
              MO Center= -3.2D-15, -4.9D-15,  6.6D-14, r^2= 5.4D+00
   Bfn.  Coefficient  Atom+Function         Bfn.  Coefficient  Atom+Function  
  ----- ------------  ---------------      ----- ------------  ---------------
    27     -0.486278   4 H  px               66     -0.486278  10 H  px        
     7      0.477211   1 C  px               41      0.477211   6 C  px        
    17     -0.435648   2 H  px               56     -0.435648   8 H  px        
    10     -0.428061   1 C  d -2             44      0.428061   6 C  d -2      
    21      0.382569   3 H  s                60     -0.382569   9 H  s         

 Vector   54  Occ=0.000000D+00  E= 1.879082D+00  Symmetry=eg
              MO Center= -5.1D-15,  2.5D-14,  3.9D-13, r^2= 5.4D+00
   Bfn.  Coefficient  Atom+Function         Bfn.  Coefficient  Atom+Function  
  ----- ------------  ---------------      ----- ------------  ---------------
     8      0.475987   1 C  py               42     -0.475987   6 C  py        
    26      0.450675   4 H  s                65      0.450675  10 H  s         
    18     -0.437228   2 H  py               57      0.437228   8 H  py        
    14     -0.426211   1 C  d  2             48     -0.426211   6 C  d  2      
    22     -0.358775   3 H  px               61      0.358775   9 H  px        

 Vector   55  Occ=0.000000D+00  E= 1.879082D+00  Symmetry=eg
              MO Center=  1.7D-15,  1.0D-14, -6.4D-14, r^2= 5.4D+00
   Bfn.  Coefficient  Atom+Function         Bfn.  Coefficient  Atom+Function  
  ----- ------------  ---------------      ----- ------------  ---------------
     7      0.475987   1 C  px               41     -0.475987   6 C  px        
    27     -0.468862   4 H  px               66      0.468862  10 H  px        
    21      0.463599   3 H  s                60      0.463599   9 H  s         
    17     -0.437228   2 H  px               56      0.437228   8 H  px        
    10     -0.426211   1 C  d -2             44     -0.426211   6 C  d -2      

 Vector   56  Occ=0.000000D+00  E= 1.947395D+00  Symmetry=a2u
              MO Center= -4.0D-16, -3.0D-15,  2.0D-14, r^2= 3.9D+00
   Bfn.  Coefficient  Atom+Function         Bfn.  Coefficient  Atom+Function  
  ----- ------------  ---------------      ----- ------------  ---------------
     9      1.007321   1 C  pz               43      1.007321   6 C  pz        
    16     -0.591121   2 H  s                55      0.591121   8 H  s         
    24     -0.508754   3 H  pz               29     -0.508754   4 H  pz        
    34     -0.508754   5 H  pz               53     -0.508754   7 H  pz        
    63     -0.508754   9 H  pz               68     -0.508754  10 H  pz        

 Vector   57  Occ=0.000000D+00  E= 2.184303D+00  Symmetry=eu
              MO Center=  4.8D-16, -1.6D-15, -2.6D-11, r^2= 4.8D+00
   Bfn.  Coefficient  Atom+Function         Bfn.  Coefficient  Atom+Function  
  ----- ------------  ---------------      ----- ------------  ---------------
    11      0.750993   1 C  d -1             45     -0.750993   6 C  d -1      
    14      0.441821   1 C  d  2             18     -0.441185   2 H  py        
    48     -0.441821   6 C  d  2             57     -0.441185   8 H  py        
    29      0.422563   4 H  pz               68      0.422563  10 H  pz        
    33      0.343785   5 H  py               52      0.343785   7 H  py        

 Vector   58  Occ=0.000000D+00  E= 2.184303D+00  Symmetry=eu
              MO Center=  4.7D-15,  3.1D-15, -1.3D-11, r^2= 4.8D+00
   Bfn.  Coefficient  Atom+Function         Bfn.  Coefficient  Atom+Function  
  ----- ------------  ---------------      ----- ------------  ---------------
    13      0.750993   1 C  d  1             47     -0.750993   6 C  d  1      
    10     -0.441821   1 C  d -2             17      0.441185   2 H  px        
    44      0.441821   6 C  d -2             56      0.441185   8 H  px        
    27     -0.433605   4 H  px               66     -0.433605  10 H  px        
    24     -0.372625   3 H  pz               63     -0.372625   9 H  pz        

 Vector   59  Occ=0.000000D+00  E= 2.184563D+00  Symmetry=eg
              MO Center= -1.1D-14,  2.7D-14,  2.9D-11, r^2= 4.7D+00
   Bfn.  Coefficient  Atom+Function         Bfn.  Coefficient  Atom+Function  
  ----- ------------  ---------------      ----- ------------  ---------------
    14      0.592140   1 C  d  2             48      0.592140   6 C  d  2      
    11      0.574457   1 C  d -1             45      0.574457   6 C  d -1      
    13     -0.421624   1 C  d  1             47     -0.421624   6 C  d  1      
    29      0.410565   4 H  pz               68     -0.410565  10 H  pz        
    18     -0.356434   2 H  py               57      0.356434   8 H  py        

 Vector   60  Occ=0.000000D+00  E= 2.184563D+00  Symmetry=eg
              MO Center=  4.8D-15, -3.1D-15,  9.1D-12, r^2= 4.7D+00
   Bfn.  Coefficient  Atom+Function         Bfn.  Coefficient  Atom+Function  
  ----- ------------  ---------------      ----- ------------  ---------------
    10      0.592140   1 C  d -2             44      0.592140   6 C  d -2      
    13     -0.574457   1 C  d  1             47     -0.574457   6 C  d  1      
    24      0.435501   3 H  pz               63     -0.435501   9 H  pz        
    27      0.428049   4 H  px               66     -0.428049  10 H  px        
    11     -0.421624   1 C  d -1             45     -0.421624   6 C  d -1      

 Vector   61  Occ=0.000000D+00  E= 2.335497D+00  Symmetry=a1g
              MO Center= -1.6D-15, -3.8D-15,  3.9D-16, r^2= 4.7D+00
   Bfn.  Coefficient  Atom+Function         Bfn.  Coefficient  Atom+Function  
  ----- ------------  ---------------      ----- ------------  ---------------
     3      1.119796   1 C  s                37      1.119796   6 C  s         
     2      1.042800   1 C  s                36      1.042800   6 C  s         
    28     -0.535062   4 H  py               32      0.535062   5 H  px        
    51     -0.535062   7 H  px               67      0.535062  10 H  py        
    19      0.495549   2 H  pz               58     -0.495549   8 H  pz        

 Vector   62  Occ=0.000000D+00  E= 2.351231D+00  Symmetry=a2u
              MO Center=  2.9D-15,  5.2D-15,  2.2D-16, r^2= 4.1D+00
   Bfn.  Coefficient  Atom+Function         Bfn.  Coefficient  Atom+Function  
  ----- ------------  ---------------      ----- ------------  ---------------
     3      1.302708   1 C  s                37     -1.302708   6 C  s         
     2      0.951797   1 C  s                36     -0.951797   6 C  s         
    28     -0.599159   4 H  py               32      0.599159   5 H  px        
    51      0.599159   7 H  px               67     -0.599159  10 H  py        
    20     -0.510158   3 H  s                25     -0.510158   4 H  s         

 Vector   63  Occ=0.000000D+00  E= 2.359306D+00  Symmetry=eg
              MO Center= -2.2D-14, -1.4D-13, -4.3D-13, r^2= 4.2D+00
   Bfn.  Coefficient  Atom+Function         Bfn.  Coefficient  Atom+Function  
  ----- ------------  ---------------      ----- ------------  ---------------
    30     -0.991382   5 H  s                49     -0.991382   7 H  s         
     4      0.932533   1 C  px               38     -0.932533   6 C  px        
    32      0.894918   5 H  px               51     -0.894918   7 H  px        
     7      0.671199   1 C  px               41     -0.671199   6 C  px        
    14      0.632130   1 C  d  2             48      0.632130   6 C  d  2      

 Vector   64  Occ=0.000000D+00  E= 2.359306D+00  Symmetry=eg
              MO Center= -6.5D-14, -1.9D-13,  8.8D-13, r^2= 4.2D+00
   Bfn.  Coefficient  Atom+Function         Bfn.  Coefficient  Atom+Function  
  ----- ------------  ---------------      ----- ------------  ---------------
     5      0.932533   1 C  py               39     -0.932533   6 C  py        
    25      0.903567   4 H  s                64      0.903567  10 H  s         
    20     -0.813557   3 H  s                28      0.815945   4 H  py        
    59     -0.813557   9 H  s                67     -0.815945  10 H  py        
     8      0.671199   1 C  py               42     -0.671199   6 C  py        

 Vector   65  Occ=0.000000D+00  E= 2.375240D+00  Symmetry=a1g
              MO Center= -1.4D-13, -2.0D-13,  3.8D-13, r^2= 6.1D+00
   Bfn.  Coefficient  Atom+Function         Bfn.  Coefficient  Atom+Function  
  ----- ------------  ---------------      ----- ------------  ---------------
    15      1.113316   2 H  s                54      1.113316   8 H  s         
    19     -1.060951   2 H  pz               58      1.060951   8 H  pz        
    12     -1.015355   1 C  d  0             46     -1.015355   6 C  d  0      
     6     -0.942967   1 C  pz               40      0.942967   6 C  pz        
     9     -0.637024   1 C  pz               43      0.637024   6 C  pz        

 Vector   66  Occ=0.000000D+00  E= 2.377536D+00  Symmetry=eu
              MO Center=  1.8D-13,  1.6D-13,  5.1D-13, r^2= 4.2D+00
   Bfn.  Coefficient  Atom+Function         Bfn.  Coefficient  Atom+Function  
  ----- ------------  ---------------      ----- ------------  ---------------
    30      1.026966   5 H  s                49     -1.026966   7 H  s         
     4     -0.925791   1 C  px               38     -0.925791   6 C  px        
    32     -0.870501   5 H  px               51     -0.870501   7 H  px        
     7     -0.724942   1 C  px               41     -0.724942   6 C  px        
    14     -0.674170   1 C  d  2             48      0.674170   6 C  d  2      

 Vector   67  Occ=0.000000D+00  E= 2.377536D+00  Symmetry=eu
              MO Center=  4.1D-14,  3.4D-13, -9.2D-13, r^2= 4.2D+00
   Bfn.  Coefficient  Atom+Function         Bfn.  Coefficient  Atom+Function  
  ----- ------------  ---------------      ----- ------------  ---------------
    25      0.953897   4 H  s                64     -0.953897  10 H  s         
     5      0.925791   1 C  py               39      0.925791   6 C  py        
    20     -0.824862   3 H  s                59      0.824862   9 H  s         
    28      0.812244   4 H  py               67      0.812244  10 H  py        
     8      0.724942   1 C  py               42      0.724942   6 C  py        

 Vector   68  Occ=0.000000D+00  E= 2.395731D+00  Symmetry=a2u
              MO Center=  2.2D-15,  4.1D-15, -3.9D-13, r^2= 7.1D+00
   Bfn.  Coefficient  Atom+Function         Bfn.  Coefficient  Atom+Function  
  ----- ------------  ---------------      ----- ------------  ---------------
    15      1.242118   2 H  s                54     -1.242118   8 H  s         
    19     -1.146605   2 H  pz               58     -1.146605   8 H  pz        
     9     -1.052717   1 C  pz               43     -1.052717   6 C  pz        
    12     -0.965270   1 C  d  0             46      0.965270   6 C  d  0      
     6     -0.861902   1 C  pz               40     -0.861902   6 C  pz        


            General Information
            -------------------
          SCF calculation type: DFT
          Wavefunction type:  closed shell.
          No. of atoms     :    10
          No. of electrons :    20
           Alpha electrons :    10
            Beta electrons :    10
          Charge           :     0
          Spin multiplicity:     1
          Use of symmetry is: on ; symmetry adaption is: on 
          Maximum number of iterations:  30
          This is a Direct SCF calculation.
          AO basis - number of functions:    68
                     number of shells:    36
          Convergence on energy requested:  1.00D-06
          Convergence on density requested:  1.00D-05
          Convergence on gradient requested:  5.00D-04

              XC Information
              --------------
                    Becke 1988 Exchange Functional  1.000          
              Lee-Yang-Parr Correlation Functional  1.000          

             Grid Information
             ----------------
          Grid used for XC integration:  medium    
          Radial quadrature: Mura-Knowles        
          Angular quadrature: Lebedev. 
          Tag              B.-S. Rad. Rad. Pts. Rad. Cut. Ang. Pts.
          ---              ---------- --------- --------- ---------
          C                   0.70       49          12.0       434
          H                   0.35       45          13.0       434
          Grid pruning is: on 
          Number of quadrature shells:   139
          Spatial weights used:  Erf1

          Convergence Information
          -----------------------
          Convergence aids based upon iterative change in 
          total energy or number of iterations. 
          Levelshifting, if invoked, occurs when the 
          HOMO/LUMO gap drops below (HL_TOL):  1.00D-02
          DIIS, if invoked, will attempt to extrapolate 
          using up to (NFOCK): 10 stored Fock matrices.

                    Damping( 0%)  Levelshifting(0.5)       DIIS
                  --------------- ------------------- ---------------
          dE  on:    start            ASAP                start   
          dE off:    2 iters         30 iters            30 iters 


      Screening Tolerance Information
      -------------------------------
          Density screening/tol_rho:  1.00D-10
          AO Gaussian exp screening on grid/accAOfunc:  14
          CD Gaussian exp screening on grid/accCDfunc:  20
          XC Gaussian exp screening on grid/accXCfunc:  20
          Schwarz screening/accCoul:  1.00D-08



                            NWChem DFT Gradient Module
                            --------------------------


                                       ch4_2



  charge          =   0.00
  wavefunction    = closed shell

  Rotation of axis 
  Using symmetry


                         DFT ENERGY GRADIENTS

    atom               coordinates                        gradient
                 x          y          z           x          y          z
   1 C      -0.000000   0.000000   3.382178    0.000000   0.000000  -0.000155
   2 H       0.000000  -0.000000   5.451663    0.000000   0.000000  -0.008036
   3 H      -1.377839   1.377839   2.687603    0.005375  -0.005375   0.002878
   4 H      -0.504324  -1.882163   2.687603    0.001968   0.007343   0.002878
   5 H       1.882163   0.504324   2.687603   -0.007343  -0.001968   0.002878
   6 C       0.000000   0.000000  -3.382178    0.000000   0.000000   0.000155
   7 H      -1.882163  -0.504324  -2.687603    0.007343   0.001968  -0.002878
   8 H      -0.000000   0.000000  -5.451663    0.000000   0.000000   0.008036
   9 H       1.377839  -1.377839  -2.687603   -0.005375   0.005375  -0.002878
  10 H       0.504324   1.882163  -2.687603   -0.001968  -0.007343  -0.002878

                 ----------------------------------------
                 |  Time  |  1-e(secs)   |  2-e(secs)   |
                 ----------------------------------------
                 |  CPU   |       0.00   |       0.05   |
                 ----------------------------------------
                 |  WALL  |       0.00   |       0.05   |
                 ----------------------------------------

@ Step       Energy      Delta E   Gmax     Grms     Xrms     Xmax   Walltime
@ ---- ---------------- -------- -------- -------- -------- -------- --------
@    0     -80.95272008  0.0D+00  0.00804  0.00419  0.00000  0.00000      0.8
                                                                    


                                 NWChem DFT Module
                                 -----------------


                                       ch4_2




 Summary of "ao basis" -> "ao basis" (spherical)
 ------------------------------------------------------------------------------
       Tag                 Description            Shells   Functions and Types
 ---------------- ------------------------------  ------  ---------------------
 C                          cc-pvdz                  6       14   3s2p1d
 H                          cc-pvdz                  3        5   2s1p


      Symmetry analysis of basis
      --------------------------

        a1g        13
        a1u         1
        a2g         1
        a2u        13
        eg         20
        eu         20

  Caching 1-el integrals 
  Rotation of axis 

            General Information
            -------------------
          SCF calculation type: DFT
          Wavefunction type:  closed shell.
          No. of atoms     :    10
          No. of electrons :    20
           Alpha electrons :    10
            Beta electrons :    10
          Charge           :     0
          Spin multiplicity:     1
          Use of symmetry is: on ; symmetry adaption is: on 
          Maximum number of iterations:  30
          This is a Direct SCF calculation.
          AO basis - number of functions:    68
                     number of shells:    36
          Convergence on energy requested:  1.00D-06
          Convergence on density requested:  1.00D-05
          Convergence on gradient requested:  5.00D-04

              XC Information
              --------------
                    Becke 1988 Exchange Functional  1.000          
              Lee-Yang-Parr Correlation Functional  1.000          

             Grid Information
             ----------------
          Grid used for XC integration:  medium    
          Radial quadrature: Mura-Knowles        
          Angular quadrature: Lebedev. 
          Tag              B.-S. Rad. Rad. Pts. Rad. Cut. Ang. Pts.
          ---              ---------- --------- --------- ---------
          C                   0.70       49          12.0       434
          H                   0.35       45          13.0       434
          Grid pruning is: on 
          Number of quadrature shells:   139
          Spatial weights used:  Erf1

          Convergence Information
          -----------------------
          Convergence aids based upon iterative change in 
          total energy or number of iterations. 
          Levelshifting, if invoked, occurs when the 
          HOMO/LUMO gap drops below (HL_TOL):  1.00D-02
          DIIS, if invoked, will attempt to extrapolate 
          using up to (NFOCK): 10 stored Fock matrices.

                    Damping( 0%)  Levelshifting(0.5)       DIIS
                  --------------- ------------------- ---------------
          dE  on:    start            ASAP                start   
          dE off:    2 iters         30 iters            30 iters 


      Screening Tolerance Information
      -------------------------------
          Density screening/tol_rho:  1.00D-10
          AO Gaussian exp screening on grid/accAOfunc:  14
          CD Gaussian exp screening on grid/accCDfunc:  20
          XC Gaussian exp screening on grid/accXCfunc:  20
          Schwarz screening/accCoul:  1.00D-08

      Dispersion Parameters
      ---------------------

          s6 scale factor :        1.400000000000
              vdW contrib :       -0.002579109194


 Loading old vectors from job with title :

ch4_2


      Symmetry analysis of molecular orbitals - initial
      -------------------------------------------------

  Numbering of irreducible representations: 

     1 a1g         2 a1u         3 a2g         4 a2u         5 eg      
     6 eu      

  Orbital symmetries:

     1 a2u         2 a1g         3 a1g         4 a2u         5 a1g     
     6 eu          7 eu          8 eg          9 eg         10 a2u     
    11 a1g        12 a2u        13 eu         14 eu         15 a1g     
    16 a2u        17 eg         18 eg         19 a1g        20 eu      



 ----------------------------------------------
         Quadratically convergent ROKS

 Convergence threshold     :          5.000E-04
 Maximum no. of iterations :           30
 Final Fock-matrix accuracy:          1.000E-08
 ----------------------------------------------


 Grid_pts file          = ./ch4_2.gridpts.0
 Record size in doubles =  12289        No. of grid_pts per rec  =   3070
 Max. records in memory =      7        Max. recs in file   =    862398


              iter       energy          gnorm     gmax       time
             ----- ------------------- --------- --------- --------
                 1      -80.9533348686  3.11D-02  9.50D-03      0.9
                 2      -80.9534079233  4.82D-05  1.37D-05      1.1


         Total DFT energy =      -80.953407923317
      One electron energy =     -188.266452851845
           Coulomb energy =       79.841452591392
    Exchange-Corr. energy =      -13.692147419563
 Nuclear repulsion energy =       41.163739756698

    Dispersion correction =       -0.002579109194

 Numeric. integr. density =       19.999990509150

     Total iterative time =      0.3s



                       DFT Final Molecular Orbital Analysis
                       ------------------------------------

 Vector    1  Occ=2.000000D+00  E=-9.911397D+00  Symmetry=a2u
              MO Center= -6.9D-20,  7.7D-20, -2.5D-16, r^2= 3.2D+00
   Bfn.  Coefficient  Atom+Function         Bfn.  Coefficient  Atom+Function  
  ----- ------------  ---------------      ----- ------------  ---------------
     1      0.712571   1 C  s                35     -0.712571   6 C  s         

 Vector    2  Occ=2.000000D+00  E=-9.911390D+00  Symmetry=a1g
              MO Center= -3.8D-20, -2.7D-20,  4.3D-16, r^2= 3.2D+00
   Bfn.  Coefficient  Atom+Function         Bfn.  Coefficient  Atom+Function  
  ----- ------------  ---------------      ----- ------------  ---------------
     1      0.712457   1 C  s                35      0.712457   6 C  s         

 Vector    3  Occ=2.000000D+00  E=-6.147847D-01  Symmetry=a1g
              MO Center=  6.3D-18,  1.4D-17, -1.8D-16, r^2= 4.2D+00
   Bfn.  Coefficient  Atom+Function         Bfn.  Coefficient  Atom+Function  
  ----- ------------  ---------------      ----- ------------  ---------------
     2      0.269862   1 C  s                36      0.269862   6 C  s         
     3      0.150723   1 C  s                37      0.150723   6 C  s         

 Vector    4  Occ=2.000000D+00  E=-6.095382D-01  Symmetry=a2u
              MO Center= -1.1D-17, -4.7D-18,  4.7D-16, r^2= 4.3D+00
   Bfn.  Coefficient  Atom+Function         Bfn.  Coefficient  Atom+Function  
  ----- ------------  ---------------      ----- ------------  ---------------
     2      0.273998   1 C  s                36     -0.273998   6 C  s         
     3      0.158482   1 C  s                37     -0.158482   6 C  s         

 Vector    5  Occ=2.000000D+00  E=-3.420164D-01  Symmetry=a1g
              MO Center= -3.8D-16, -8.5D-16,  5.3D-16, r^2= 5.8D+00
   Bfn.  Coefficient  Atom+Function         Bfn.  Coefficient  Atom+Function  
  ----- ------------  ---------------      ----- ------------  ---------------
     6      0.306923   1 C  pz               40     -0.306923   6 C  pz        
    15      0.268891   2 H  s                54      0.268891   8 H  s         

 Vector    6  Occ=2.000000D+00  E=-3.383070D-01  Symmetry=eu
              MO Center= -2.0D-17, -2.0D-16,  1.0D-16, r^2= 3.9D+00
   Bfn.  Coefficient  Atom+Function         Bfn.  Coefficient  Atom+Function  
  ----- ------------  ---------------      ----- ------------  ---------------
     5      0.305476   1 C  py               39      0.305476   6 C  py        
    25     -0.234901   4 H  s                64      0.234901  10 H  s         
    20      0.203790   3 H  s                59     -0.203790   9 H  s         

 Vector    7  Occ=2.000000D+00  E=-3.383070D-01  Symmetry=eu
              MO Center=  1.2D-16, -1.0D-17,  4.5D-16, r^2= 3.9D+00
   Bfn.  Coefficient  Atom+Function         Bfn.  Coefficient  Atom+Function  
  ----- ------------  ---------------      ----- ------------  ---------------
     4      0.305476   1 C  px               38      0.305476   6 C  px        
    30      0.253278   5 H  s                49     -0.253278   7 H  s         
    20     -0.153582   3 H  s                59      0.153582   9 H  s         

 Vector    8  Occ=2.000000D+00  E=-3.317711D-01  Symmetry=eg
              MO Center= -1.0D-17,  1.0D-16, -1.9D-16, r^2= 3.9D+00
   Bfn.  Coefficient  Atom+Function         Bfn.  Coefficient  Atom+Function  
  ----- ------------  ---------------      ----- ------------  ---------------
    20      0.258985   3 H  s                59      0.258985   9 H  s         
     4     -0.233452   1 C  px               38      0.233452   6 C  px        
     5      0.213722   1 C  py               39     -0.213722   6 C  py        

 Vector    9  Occ=2.000000D+00  E=-3.317711D-01  Symmetry=eg
              MO Center=  2.9D-17,  8.9D-17, -2.1D-16, r^2= 3.9D+00
   Bfn.  Coefficient  Atom+Function         Bfn.  Coefficient  Atom+Function  
  ----- ------------  ---------------      ----- ------------  ---------------
     5      0.233452   1 C  py               39     -0.233452   6 C  py        
    25     -0.230002   4 H  s                64     -0.230002  10 H  s         
    30      0.218574   5 H  s                49      0.218574   7 H  s         
     4      0.213722   1 C  px               38     -0.213722   6 C  px        

 Vector   10  Occ=2.000000D+00  E=-3.287183D-01  Symmetry=a2u
              MO Center=  5.7D-18, -2.7D-17,  2.7D-16, r^2= 5.9D+00
   Bfn.  Coefficient  Atom+Function         Bfn.  Coefficient  Atom+Function  
  ----- ------------  ---------------      ----- ------------  ---------------
     6      0.318672   1 C  pz               40      0.318672   6 C  pz        
    15      0.279132   2 H  s                54     -0.279132   8 H  s         

 Vector   11  Occ=0.000000D+00  E= 3.459132D-02  Symmetry=a1g
              MO Center= -6.3D-17,  4.4D-17,  1.0D-15, r^2= 6.7D+00
   Bfn.  Coefficient  Atom+Function         Bfn.  Coefficient  Atom+Function  
  ----- ------------  ---------------      ----- ------------  ---------------
     3      1.377270   1 C  s                37      1.377270   6 C  s         
    21     -0.522552   3 H  s                26     -0.522552   4 H  s         
    31     -0.522552   5 H  s                50     -0.522552   7 H  s         
    60     -0.522552   9 H  s                65     -0.522552  10 H  s         
    16     -0.441384   2 H  s                55     -0.441384   8 H  s         

 Vector   12  Occ=0.000000D+00  E= 8.308224D-02  Symmetry=a2u
              MO Center= -2.7D-16,  1.0D-16, -1.6D-15, r^2= 9.7D+00
   Bfn.  Coefficient  Atom+Function         Bfn.  Coefficient  Atom+Function  
  ----- ------------  ---------------      ----- ------------  ---------------
     3      1.561729   1 C  s                37     -1.561729   6 C  s         
    16     -0.833679   2 H  s                55      0.833679   8 H  s         
    21     -0.511277   3 H  s                26     -0.511277   4 H  s         
    31     -0.511277   5 H  s                50      0.511277   7 H  s         
    60      0.511277   9 H  s                65      0.511277  10 H  s         

 Vector   13  Occ=0.000000D+00  E= 1.064846D-01  Symmetry=eu
              MO Center= -4.3D-17,  7.8D-16, -1.8D-16, r^2= 5.5D+00
   Bfn.  Coefficient  Atom+Function         Bfn.  Coefficient  Atom+Function  
  ----- ------------  ---------------      ----- ------------  ---------------
    26      1.233969   4 H  s                65     -1.233969  10 H  s         
     8      0.777325   1 C  py               42      0.777325   6 C  py        
    21     -0.669989   3 H  s                60      0.669989   9 H  s         
    31     -0.563980   5 H  s                50      0.563980   7 H  s         
     5      0.291461   1 C  py               39      0.291461   6 C  py        

 Vector   14  Occ=0.000000D+00  E= 1.064846D-01  Symmetry=eu
              MO Center=  3.4D-16, -2.4D-16, -3.8D-16, r^2= 5.5D+00
   Bfn.  Coefficient  Atom+Function         Bfn.  Coefficient  Atom+Function  
  ----- ------------  ---------------      ----- ------------  ---------------
    31     -1.099251   5 H  s                50      1.099251   7 H  s         
    21      1.038047   3 H  s                60     -1.038047   9 H  s         
     7      0.777325   1 C  px               41      0.777325   6 C  px        
     4      0.291461   1 C  px               38      0.291461   6 C  px        
     8     -0.167502   1 C  py               42     -0.167502   6 C  py        

 Vector   15  Occ=0.000000D+00  E= 1.113908D-01  Symmetry=a1g
[...]
   Bfn.  Coefficient  Atom+Function         Bfn.  Coefficient  Atom+Function  
  ----- ------------  ---------------      ----- ------------  ---------------
     7      0.726790   1 C  px               41      0.726790   6 C  px        
    30     -0.466850   5 H  s                49      0.466850   7 H  s         
    20      0.427386   3 H  s                59     -0.427386   9 H  s         
    10      0.344715   1 C  d -2             44     -0.344715   6 C  d -2      
    13      0.273317   1 C  d  1             47     -0.273317   6 C  d  1      

 Vector   46  Occ=0.000000D+00  E= 1.545685D+00  Symmetry=eu
              MO Center=  8.0D-15, -3.1D-15, -1.5D-13, r^2= 4.7D+00
   Bfn.  Coefficient  Atom+Function         Bfn.  Coefficient  Atom+Function  
  ----- ------------  ---------------      ----- ------------  ---------------
     8      0.726790   1 C  py               42      0.726790   6 C  py        
    25      0.516288   4 H  s                64     -0.516288  10 H  s         
    14      0.344715   1 C  d  2             48     -0.344715   6 C  d  2      
    20     -0.292321   3 H  s                59      0.292321   9 H  s         
    11     -0.273317   1 C  d -1             45      0.273317   6 C  d -1      

 Vector   47  Occ=0.000000D+00  E= 1.560155D+00  Symmetry=a1g
              MO Center=  2.6D-15,  1.3D-14, -7.3D-14, r^2= 5.4D+00
   Bfn.  Coefficient  Atom+Function         Bfn.  Coefficient  Atom+Function  
  ----- ------------  ---------------      ----- ------------  ---------------
     9      0.588188   1 C  pz               43     -0.588188   6 C  pz        
    15     -0.544089   2 H  s                54     -0.544089   8 H  s         
    12      0.487140   1 C  d  0             46      0.487140   6 C  d  0      
    19     -0.282241   2 H  pz               58      0.282241   8 H  pz        
    24     -0.231336   3 H  pz               29     -0.231336   4 H  pz        

 Vector   48  Occ=0.000000D+00  E= 1.563652D+00  Symmetry=eg
              MO Center=  1.2D-14,  1.4D-14,  2.9D-13, r^2= 4.6D+00
   Bfn.  Coefficient  Atom+Function         Bfn.  Coefficient  Atom+Function  
  ----- ------------  ---------------      ----- ------------  ---------------
     7      0.648261   1 C  px               41     -0.648261   6 C  px        
    30     -0.564342   5 H  s                49     -0.564342   7 H  s         
    14      0.339674   1 C  d  2             48      0.339674   6 C  d  2      
    13      0.298994   1 C  d  1             47      0.298994   6 C  d  1      
    20      0.287193   3 H  s                59      0.287193   9 H  s         

 Vector   49  Occ=0.000000D+00  E= 1.563652D+00  Symmetry=eg
              MO Center= -1.1D-14, -1.8D-15,  2.2D-13, r^2= 4.6D+00
   Bfn.  Coefficient  Atom+Function         Bfn.  Coefficient  Atom+Function  
  ----- ------------  ---------------      ----- ------------  ---------------
     8      0.648261   1 C  py               42     -0.648261   6 C  py        
    25      0.491634   4 H  s                64      0.491634  10 H  s         
    20     -0.485835   3 H  s                59     -0.485835   9 H  s         
    10     -0.339674   1 C  d -2             44     -0.339674   6 C  d -2      
    11     -0.298994   1 C  d -1             45     -0.298994   6 C  d -1      

 Vector   50  Occ=0.000000D+00  E= 1.641529D+00  Symmetry=a2u
              MO Center=  9.4D-16,  3.6D-15,  6.8D-14, r^2= 5.9D+00
   Bfn.  Coefficient  Atom+Function         Bfn.  Coefficient  Atom+Function  
  ----- ------------  ---------------      ----- ------------  ---------------
     9      0.941407   1 C  pz               43      0.941407   6 C  pz        
    12      0.567228   1 C  d  0             15     -0.567402   2 H  s         
    46     -0.567228   6 C  d  0             54      0.567402   8 H  s         
    19     -0.336823   2 H  pz               58     -0.336823   8 H  pz        
    20      0.296471   3 H  s                25      0.296471   4 H  s         

 Vector   51  Occ=0.000000D+00  E= 1.846927D+00  Symmetry=a1g
              MO Center= -2.9D-14, -4.6D-14, -1.4D-14, r^2= 4.0D+00
   Bfn.  Coefficient  Atom+Function         Bfn.  Coefficient  Atom+Function  
  ----- ------------  ---------------      ----- ------------  ---------------
    12     -0.515641   1 C  d  0             46     -0.515641   6 C  d  0      
     9      0.469727   1 C  pz               43     -0.469727   6 C  pz        
    24     -0.427112   3 H  pz               29     -0.427112   4 H  pz        
    34     -0.427112   5 H  pz               53      0.427112   7 H  pz        
    63      0.427112   9 H  pz               68      0.427112  10 H  pz        

 Vector   52  Occ=0.000000D+00  E= 1.849566D+00  Symmetry=eu
              MO Center=  1.7D-15, -4.6D-15,  7.1D-14, r^2= 5.4D+00
   Bfn.  Coefficient  Atom+Function         Bfn.  Coefficient  Atom+Function  
  ----- ------------  ---------------      ----- ------------  ---------------
     7      0.495800   1 C  px               41      0.495800   6 C  px        
    27     -0.488505   4 H  px               66     -0.488505  10 H  px        
    17     -0.445545   2 H  px               56     -0.445545   8 H  px        
    10     -0.409477   1 C  d -2             44      0.409477   6 C  d -2      
    21      0.374113   3 H  s                60     -0.374113   9 H  s         

 Vector   53  Occ=0.000000D+00  E= 1.849566D+00  Symmetry=eu
              MO Center=  3.2D-14,  3.9D-15, -3.8D-13, r^2= 5.4D+00
   Bfn.  Coefficient  Atom+Function         Bfn.  Coefficient  Atom+Function  
  ----- ------------  ---------------      ----- ------------  ---------------
     8      0.495800   1 C  py               42      0.495800   6 C  py        
    18     -0.445545   2 H  py               57     -0.445545   8 H  py        
    14     -0.409477   1 C  d  2             48      0.409477   6 C  d  2      
    26      0.378981   4 H  s                65     -0.378981  10 H  s         
    22     -0.363801   3 H  px               61     -0.363801   9 H  px        

 Vector   54  Occ=0.000000D+00  E= 1.867645D+00  Symmetry=eg
              MO Center=  3.7D-15,  2.4D-14,  3.6D-13, r^2= 5.5D+00
   Bfn.  Coefficient  Atom+Function         Bfn.  Coefficient  Atom+Function  
  ----- ------------  ---------------      ----- ------------  ---------------
     8      0.565535   1 C  py               42     -0.565535   6 C  py        
    18     -0.512276   2 H  py               57      0.512276   8 H  py        
    26      0.465573   4 H  s                65      0.465573  10 H  s         
    33     -0.438351   5 H  py               52      0.438351   7 H  py        
    14     -0.337177   1 C  d  2             48     -0.337177   6 C  d  2      

 Vector   55  Occ=0.000000D+00  E= 1.867645D+00  Symmetry=eg
              MO Center= -6.6D-15,  1.1D-14, -3.3D-14, r^2= 5.5D+00
   Bfn.  Coefficient  Atom+Function         Bfn.  Coefficient  Atom+Function  
  ----- ------------  ---------------      ----- ------------  ---------------
     7      0.565535   1 C  px               41     -0.565535   6 C  px        
    17     -0.512276   2 H  px               56      0.512276   8 H  px        
    27     -0.477746   4 H  px               66      0.477746  10 H  px        
    31     -0.431913   5 H  s                50     -0.431913   7 H  s         
    21      0.374483   3 H  s                60      0.374483   9 H  s         

 Vector   56  Occ=0.000000D+00  E= 1.935757D+00  Symmetry=a2u
              MO Center= -3.8D-16, -3.1D-15,  2.2D-14, r^2= 3.9D+00
   Bfn.  Coefficient  Atom+Function         Bfn.  Coefficient  Atom+Function  
  ----- ------------  ---------------      ----- ------------  ---------------
     9      0.991629   1 C  pz               43      0.991629   6 C  pz        
    16     -0.576288   2 H  s                55      0.576288   8 H  s         
    24     -0.502779   3 H  pz               29     -0.502779   4 H  pz        
    34     -0.502779   5 H  pz               53     -0.502779   7 H  pz        
    63     -0.502779   9 H  pz               68     -0.502779  10 H  pz        

 Vector   57  Occ=0.000000D+00  E= 2.164744D+00  Symmetry=eu
              MO Center=  4.3D-15, -9.5D-16, -2.9D-11, r^2= 4.8D+00
   Bfn.  Coefficient  Atom+Function         Bfn.  Coefficient  Atom+Function  
  ----- ------------  ---------------      ----- ------------  ---------------
    11      0.609467   1 C  d -1             45     -0.609467   6 C  d -1      
    14      0.485668   1 C  d  2             48     -0.485668   6 C  d  2      
    13     -0.466066   1 C  d  1             47      0.466066   6 C  d  1      
    29      0.383579   4 H  pz               68      0.383579  10 H  pz        
    18     -0.359460   2 H  py               57     -0.359460   8 H  py        

 Vector   58  Occ=0.000000D+00  E= 2.164744D+00  Symmetry=eu
              MO Center=  6.0D-17,  3.7D-15, -9.0D-12, r^2= 4.8D+00
   Bfn.  Coefficient  Atom+Function         Bfn.  Coefficient  Atom+Function  
  ----- ------------  ---------------      ----- ------------  ---------------
    13      0.609467   1 C  d  1             47     -0.609467   6 C  d  1      
    10     -0.485668   1 C  d -2             44      0.485668   6 C  d -2      
    11      0.466066   1 C  d -1             45     -0.466066   6 C  d -1      
    24     -0.411260   3 H  pz               63     -0.411260   9 H  pz        
    27     -0.408883   4 H  px               66     -0.408883  10 H  px        

 Vector   59  Occ=0.000000D+00  E= 2.164887D+00  Symmetry=eg
              MO Center= -1.1D-14,  2.8D-14,  2.9D-11, r^2= 4.7D+00
   Bfn.  Coefficient  Atom+Function         Bfn.  Coefficient  Atom+Function  
  ----- ------------  ---------------      ----- ------------  ---------------
    14      0.580569   1 C  d  2             48      0.580569   6 C  d  2      
    11      0.568851   1 C  d -1             45      0.568851   6 C  d -1      
    29      0.407455   4 H  pz               68     -0.407455  10 H  pz        
    13     -0.396717   1 C  d  1             47     -0.396717   6 C  d  1      
    18     -0.355670   2 H  py               57      0.355670   8 H  py        

 Vector   60  Occ=0.000000D+00  E= 2.164887D+00  Symmetry=eg
              MO Center=  4.6D-15, -4.0D-15,  9.2D-12, r^2= 4.7D+00
   Bfn.  Coefficient  Atom+Function         Bfn.  Coefficient  Atom+Function  
  ----- ------------  ---------------      ----- ------------  ---------------
    10      0.580569   1 C  d -2             44      0.580569   6 C  d -2      
    13     -0.568851   1 C  d  1             47     -0.568851   6 C  d  1      
    24      0.426582   3 H  pz               63     -0.426582   9 H  pz        
    27      0.422818   4 H  px               66     -0.422818  10 H  px        
    11     -0.396717   1 C  d -1             45     -0.396717   6 C  d -1      

 Vector   61  Occ=0.000000D+00  E= 2.302841D+00  Symmetry=a1g
              MO Center= -1.0D-16, -2.0D-15, -5.7D-16, r^2= 4.8D+00
   Bfn.  Coefficient  Atom+Function         Bfn.  Coefficient  Atom+Function  
  ----- ------------  ---------------      ----- ------------  ---------------
     3      1.135244   1 C  s                37      1.135244   6 C  s         
     2      0.968049   1 C  s                36      0.968049   6 C  s         
    28     -0.526070   4 H  py               32      0.526070   5 H  px        
    51     -0.526070   7 H  px               67      0.526070  10 H  py        
    19      0.491656   2 H  pz               58     -0.491656   8 H  pz        

 Vector   62  Occ=0.000000D+00  E= 2.319847D+00  Symmetry=a2u
              MO Center= -9.6D-16, -3.9D-15, -9.3D-16, r^2= 4.3D+00
   Bfn.  Coefficient  Atom+Function         Bfn.  Coefficient  Atom+Function  
  ----- ------------  ---------------      ----- ------------  ---------------
     3      1.338560   1 C  s                37     -1.338560   6 C  s         
     2      0.894345   1 C  s                36     -0.894345   6 C  s         
    28     -0.582056   4 H  py               32      0.582056   5 H  px        
    51      0.582056   7 H  px               67     -0.582056  10 H  py        
    20     -0.470027   3 H  s                25     -0.470027   4 H  s         

 Vector   63  Occ=0.000000D+00  E= 2.337046D+00  Symmetry=eg
              MO Center= -5.0D-14,  1.6D-15, -1.3D-13, r^2= 4.2D+00
   Bfn.  Coefficient  Atom+Function         Bfn.  Coefficient  Atom+Function  
  ----- ------------  ---------------      ----- ------------  ---------------
     4      0.910045   1 C  px               30     -0.908098   5 H  s         
    38     -0.910045   6 C  px               49     -0.908098   7 H  s         
    32      0.839299   5 H  px               51     -0.839299   7 H  px        
    20      0.730379   3 H  s                59      0.730379   9 H  s         
     7      0.683499   1 C  px               41     -0.683499   6 C  px        

 Vector   64  Occ=0.000000D+00  E= 2.337046D+00  Symmetry=eg
              MO Center= -2.3D-14, -1.9D-13,  1.0D-12, r^2= 4.2D+00
   Bfn.  Coefficient  Atom+Function         Bfn.  Coefficient  Atom+Function  
  ----- ------------  ---------------      ----- ------------  ---------------
    25      0.945975   4 H  s                64      0.945975  10 H  s         
     5      0.910045   1 C  py               39     -0.910045   6 C  py        
    28      0.874370   4 H  py               67     -0.874370  10 H  py        
     8      0.683499   1 C  py               42     -0.683499   6 C  py        
    20     -0.626897   3 H  s                59     -0.626897   9 H  s         

 Vector   65  Occ=0.000000D+00  E= 2.352530D+00  Symmetry=a1g
              MO Center= -1.5D-13, -2.1D-13,  3.9D-13, r^2= 6.2D+00
   Bfn.  Coefficient  Atom+Function         Bfn.  Coefficient  Atom+Function  
  ----- ------------  ---------------      ----- ------------  ---------------
    15     -1.075632   2 H  s                54     -1.075632   8 H  s         
    19      1.048803   2 H  pz               58     -1.048803   8 H  pz        
    12      1.010523   1 C  d  0             46      1.010523   6 C  d  0      
     6      0.910107   1 C  pz               40     -0.910107   6 C  pz        
     9      0.639688   1 C  pz               43     -0.639688   6 C  pz        

 Vector   66  Occ=0.000000D+00  E= 2.355584D+00  Symmetry=eu
              MO Center=  1.2D-13,  1.3D-13,  6.5D-14, r^2= 4.2D+00
   Bfn.  Coefficient  Atom+Function         Bfn.  Coefficient  Atom+Function  
  ----- ------------  ---------------      ----- ------------  ---------------
    30      0.991714   5 H  s                49     -0.991714   7 H  s         
     4     -0.894050   1 C  px               38     -0.894050   6 C  px        
    32     -0.859836   5 H  px               51     -0.859836   7 H  px        
     7     -0.730937   1 C  px               41     -0.730937   6 C  px        
    14     -0.660555   1 C  d  2             48      0.660555   6 C  d  2      

 Vector   67  Occ=0.000000D+00  E= 2.355584D+00  Symmetry=eu
              MO Center=  1.0D-13,  2.5D-13, -9.1D-13, r^2= 4.2D+00
   Bfn.  Coefficient  Atom+Function         Bfn.  Coefficient  Atom+Function  
  ----- ------------  ---------------      ----- ------------  ---------------
    25      0.930401   4 H  s                64     -0.930401  10 H  s         
     5      0.894050   1 C  py               39      0.894050   6 C  py        
    28      0.809635   4 H  py               67      0.809635  10 H  py        
    20     -0.787299   3 H  s                59      0.787299   9 H  s         
     8      0.730937   1 C  py               42      0.730937   6 C  py        

 Vector   68  Occ=0.000000D+00  E= 2.373986D+00  Symmetry=a2u
              MO Center= -1.6D-15,  7.7D-15, -3.9D-13, r^2= 7.1D+00
   Bfn.  Coefficient  Atom+Function         Bfn.  Coefficient  Atom+Function  
  ----- ------------  ---------------      ----- ------------  ---------------
    15      1.193738   2 H  s                54     -1.193738   8 H  s         
    19     -1.119202   2 H  pz               58     -1.119202   8 H  pz        
     9     -1.069433   1 C  pz               43     -1.069433   6 C  pz        
    12     -0.974410   1 C  d  0             46      0.974410   6 C  d  0      
     6     -0.841303   1 C  pz               40     -0.841303   6 C  pz        


 Task  times  cpu:        0.1s     wall:        0.1s


                                NWChem Input Module
                                -------------------


 Summary of allocated global arrays
-----------------------------------
  No active global arrays



                         GA Statistics for process    0
                         ------------------------------

       create   destroy   get      put      acc     scatter   gather  read&inc
calls: 1238     1238     4.75e+04 8335     3.53e+04   42        0     3651     
number of processes/call 1.19e+00 1.41e+00 1.07e+00 0.00e+00 0.00e+00
bytes total:             4.92e+07 8.86e+06 2.65e+07 4.62e+03 0.00e+00 2.92e+04
bytes remote:            2.62e+07 3.10e+06 1.41e+07 -4.62e+03 0.00e+00 0.00e+00
Max memory consumed for GA by this process: 283320 bytes

MA_summarize_allocated_blocks: starting scan ...
MA_summarize_allocated_blocks: scan completed: 0 heap blocks, 0 stack blocks
MA usage statistics:

	allocation statistics:
					      heap	     stack
					      ----	     -----
	current number of blocks	         0	         0
	maximum number of blocks	        24	        57
	current total bytes		         0	         0
	maximum total bytes		    723040	  26171464
	maximum total K-bytes		       724	     26172
	maximum total M-bytes		         1	        27


                                     CITATION
                                     --------
                Please cite the following reference when publishing
                           results obtained with NWChem:

                 M. Valiev, E.J. Bylaska, N. Govind, K. Kowalski,
              T.P. Straatsma, H.J.J. van Dam, D. Wang, J. Nieplocha,
                        E. Apra, T.L. Windus, W.A. de Jong
                 "NWChem: a comprehensive and scalable open-source
                  solution for large scale molecular simulations"
                      Comput. Phys. Commun. 181, 1477 (2010)
                           doi:10.1016/j.cpc.2010.04.018

                                      AUTHORS
                                      -------
          E. Apra, E. J. Bylaska, W. A. de Jong, N. Govind, K. Kowalski,
       T. P. Straatsma, M. Valiev, H. J. J. van Dam, D. Wang, T. L. Windus,
        J. Hammond, J. Autschbach, K. Bhaskaran-Nair, J. Brabec, K. Lopata,
    S. A. Fischer, S. Krishnamoorthy, M. Jacquelin, W. Ma, M. Klemm, O. Villa,
      Y. Chen, V. Anisimov, F. Aquino, S. Hirata, M. T. Hackler, V. Konjkov,
            D. Mejia-Rodriguez, T. Risthaus, M. Malagoli, A. Marenich,
   A. Otero-de-la-Roza, J. Mullin, P. Nichols, R. Peverati, J. Pittner, Y. Zhao,
        P.-D. Fan, A. Fonari, M. J. Williamson, R. J. Harrison, J. R. Rehr,
      M. Dupuis, D. Silverstein, D. M. A. Smith, J. Nieplocha, V. Tipparaju,
    M. Krishnan, B. E. Van Kuiken, A. Vazquez-Mayagoitia, L. Jensen, M. Swart,
      Q. Wu, T. Van Voorhis, A. A. Auer, M. Nooijen, L. D. Crosby, E. Brown,
      G. Cisneros, G. I. Fann, H. Fruchtl, J. Garza, K. Hirao, R. A. Kendall,
      J. A. Nichols, K. Tsemekhman, K. Wolinski, J. Anchell, D. E. Bernholdt,
      P. Borowski, T. Clark, D. Clerc, H. Dachsel, M. J. O. Deegan, K. Dyall,
    D. Elwood, E. Glendening, M. Gutowski, A. C. Hess, J. Jaffe, B. G. Johnson,
     J. Ju, R. Kobayashi, R. Kutteh, Z. Lin, R. Littlefield, X. Long, B. Meng,
      T. Nakajima, S. Niu, L. Pollack, M. Rosing, K. Glaesemann, G. Sandrone,
      M. Stave, H. Taylor, G. Thomas, J. H. van Lenthe, A. T. Wong, Z. Zhang.

 Total times  cpu:        2.3s     wall:        2.5s
[0] ARMCI Warning: Freed 1 leaked allocations
