 argument  1 = /home/list1234/source/nwchem-6.8.1-release/QA/tests/h2o-noscf/h2o-noscf.nw



============================== echo of input deck ==============================
echo
start h2o

geometry units angstrom
O      0.00000000     0.00000000     0.11726921
H      0.75698224     0.00000000    -0.46907685
H     -0.75698224     0.00000000    -0.46907685
end

basis spherical
  * library aug-cc-pvdz
end

dft
  xc hfexch
end
task dft energy

dft
  xc b3lyp
  noscf
end
task dft energy
================================================================================


                                         
                                         


              Northwest Computational Chemistry Package (NWChem) 6.8
              ------------------------------------------------------


                    Environmental Molecular Sciences Laboratory
                       Pacific Northwest National Laboratory
                                Richland, WA 99352

                              Copyright (c) 1994-2018
                       Pacific Northwest National Laboratory
                            Battelle Memorial Institute

             NWChem is an open-source computational chemistry package
                        distributed under the terms of the
                      Educational Community License (ECL) 2.0
             A copy of the license is included with this distribution
                              in the LICENSE.TXT file

                                  ACKNOWLEDGMENT
                                  --------------

            This software and its documentation were developed at the
            EMSL at Pacific Northwest National Laboratory, a multiprogram
            national laboratory, operated for the U.S. Department of Energy
            by Battelle under Contract Number DE-AC05-76RL01830. Support
            for this work was provided by the Department of Energy Office
            of Biological and Environmental Research, Office of Basic
            Energy Sciences, and the Office of Advanced Scientific Computing.


           Job information
           ---------------

    hostname        = list1234-B360M-H
    program         = /home/list1234/source/nwchem-6.8.1-release/bin/LINUX64/nwchem
    date            = Sun Jun 30 13:59:47 2019

    compiled        = Sun_Jun_30_11:55:59_2019
    source          = /home/list1234/source/nwchem-6.8.1-release
    nwchem branch   = Development
    nwchem revision = N/A
    ga revision     = 5.6.5
    use scalapack   = T
    input           = /home/list1234/source/nwchem-6.8.1-release/QA/tests/h2o-noscf/h2o-noscf.nw
    prefix          = h2o.
    data base       = ./h2o.db
    status          = startup
    nproc           =        4
    time left       =     -1s



           Memory information
           ------------------

    heap     =   86247162 doubles =    658.0 Mbytes
    stack    =   86247167 doubles =    658.0 Mbytes
    global   =  172494336 doubles =   1316.0 Mbytes (distinct from heap & stack)
    total    =  344988665 doubles =   2632.1 Mbytes
    verify   = yes
    hardfail = no 


           Directory information
           ---------------------

  0 permanent = .
  0 scratch   = .




                                NWChem Input Module
                                -------------------



 Scaling coordinates for geometry "geometry" by  1.889725989
 (inverse scale =  0.529177249)

 C2V symmetry detected

          ------
          auto-z
          ------
  no constraints, skipping    0.0000000000000000     
  no constraints, skipping    0.0000000000000000     


                             Geometry "geometry" -> ""
                             -------------------------

 Output coordinates in angstroms (scale by  1.889725989 to convert to a.u.)

  No.       Tag          Charge          X              Y              Z
 ---- ---------------- ---------- -------------- -------------- --------------
    1 O                    8.0000     0.00000000     0.00000000     0.11726921
    2 H                    1.0000     0.75698224     0.00000000    -0.46907685
    3 H                    1.0000    -0.75698224     0.00000000    -0.46907685

      Atomic Mass 
      ----------- 

      O                 15.994910
      H                  1.007825


 Effective nuclear repulsion energy (a.u.)       9.1920946687

            Nuclear Dipole moment (a.u.) 
            ----------------------------
        X                 Y               Z
 ---------------- ---------------- ----------------
     0.0000000000     0.0000000000     0.0000000000

      Symmetry information
      --------------------

 Group name             C2v       
 Group number             16
 Group order               4
 No. of unique centers     2

      Symmetry unique atoms

     1    2



                                Z-matrix (autoz)
                                -------- 

 Units are Angstrom for bonds and degrees for angles

      Type          Name      I     J     K     L     M      Value
      ----------- --------  ----- ----- ----- ----- ----- ----------
    1 Stretch                  1     2                       0.95751
    2 Stretch                  1     3                       0.95751
    3 Bend                     2     1     3               104.47845


            XYZ format geometry
            -------------------
     3
 geometry
 O                     0.00000000     0.00000000     0.11726921
 H                     0.75698224     0.00000000    -0.46907685
 H                    -0.75698224     0.00000000    -0.46907685

 ==============================================================================
                                internuclear distances
 ------------------------------------------------------------------------------
       center one      |      center two      | atomic units |  angstroms
 ------------------------------------------------------------------------------
    2 H                |   1 O                |     1.80943  |     0.95751
    3 H                |   1 O                |     1.80943  |     0.95751
 ------------------------------------------------------------------------------
                         number of included internuclear distances:          2
 ==============================================================================



 ==============================================================================
                                 internuclear angles
 ------------------------------------------------------------------------------
        center 1       |       center 2       |       center 3       |  degrees
 ------------------------------------------------------------------------------
    2 H                |   1 O                |   3 H                |   104.48
 ------------------------------------------------------------------------------
                            number of included internuclear angles:          1
 ==============================================================================





 Summary of "ao basis" -> "" (spherical)
 ------------------------------------------------------------------------------
       Tag                 Description            Shells   Functions and Types
 ---------------- ------------------------------  ------  ---------------------
 *                        aug-cc-pvdz                 on all atoms 


  xc_inp: hfexch multiplicative factor not found.

                                 NWChem DFT Module
                                 -----------------


                      Basis "ao basis" -> "ao basis" (spherical)
                      -----
  O (Oxygen)
  ----------
            Exponent  Coefficients 
       -------------- ---------------------------------------------------------
  1 S  1.17200000E+04  0.000710
  1 S  1.75900000E+03  0.005470
  1 S  4.00800000E+02  0.027837
  1 S  1.13700000E+02  0.104800
  1 S  3.70300000E+01  0.283062
  1 S  1.32700000E+01  0.448719
  1 S  5.02500000E+00  0.270952
  1 S  1.01300000E+00  0.015458

  2 S  1.17200000E+04 -0.000160
  2 S  1.75900000E+03 -0.001263
  2 S  4.00800000E+02 -0.006267
  2 S  1.13700000E+02 -0.025716
  2 S  3.70300000E+01 -0.070924
  2 S  1.32700000E+01 -0.165411
  2 S  5.02500000E+00 -0.116955
  2 S  1.01300000E+00  0.557368

  3 S  3.02300000E-01  1.000000

  4 S  7.89600000E-02  1.000000

  5 P  1.77000000E+01  0.043018
  5 P  3.85400000E+00  0.228913
  5 P  1.04600000E+00  0.508728

  6 P  2.75300000E-01  1.000000

  7 P  6.85600000E-02  1.000000

  8 D  1.18500000E+00  1.000000

  9 D  3.32000000E-01  1.000000

  H (Hydrogen)
  ------------
            Exponent  Coefficients 
       -------------- ---------------------------------------------------------
  1 S  1.30100000E+01  0.019685
  1 S  1.96200000E+00  0.137977
  1 S  4.44600000E-01  0.478148

  2 S  1.22000000E-01  1.000000

  3 S  2.97400000E-02  1.000000

  4 P  7.27000000E-01  1.000000

  5 P  1.41000000E-01  1.000000



 Summary of "ao basis" -> "ao basis" (spherical)
 ------------------------------------------------------------------------------
       Tag                 Description            Shells   Functions and Types
 ---------------- ------------------------------  ------  ---------------------
 O                        aug-cc-pvdz                9       23   4s3p2d
 H                        aug-cc-pvdz                5        9   3s2p




 Summary of "ao basis" -> "ao basis" (spherical)
 ------------------------------------------------------------------------------
       Tag                 Description            Shells   Functions and Types
 ---------------- ------------------------------  ------  ---------------------
 O                        aug-cc-pvdz                9       23   4s3p2d
 H                        aug-cc-pvdz                5        9   3s2p


      Symmetry analysis of basis
      --------------------------

        a1         18
        a2          4
        b1         12
        b2          7

  Caching 1-el integrals 

            General Information
            -------------------
          SCF calculation type: DFT
          Wavefunction type:  closed shell.
          No. of atoms     :     3
          No. of electrons :    10
           Alpha electrons :     5
            Beta electrons :     5
          Charge           :     0
          Spin multiplicity:     1
          Use of symmetry is: on ; symmetry adaption is: on 
          Maximum number of iterations:  30
          AO basis - number of functions:    41
                     number of shells:    19
          Convergence on energy requested:  1.00D-06
          Convergence on density requested:  1.00D-05
          Convergence on gradient requested:  5.00D-04

              XC Information
              --------------
                     Hartree-Fock (Exact) Exchange  1.000          

          Convergence Information
          -----------------------
          Convergence aids based upon iterative change in 
          total energy or number of iterations. 
          Levelshifting, if invoked, occurs when the 
          HOMO/LUMO gap drops below (HL_TOL):  1.00D-02
          DIIS, if invoked, will attempt to extrapolate 
          using up to (NFOCK): 10 stored Fock matrices.

                    Damping( 0%)  Levelshifting(0.5)       DIIS
                  --------------- ------------------- ---------------
          dE  on:    start            ASAP                start   
          dE off:    2 iters         30 iters            30 iters 


      Screening Tolerance Information
      -------------------------------
          Density screening/tol_rho:  1.00D-10
          AO Gaussian exp screening on grid/accAOfunc:  14
          CD Gaussian exp screening on grid/accCDfunc:  20
          XC Gaussian exp screening on grid/accXCfunc:  20
          Schwarz screening/accCoul:  1.00D-08


      Superposition of Atomic Density Guess
      -------------------------------------

 Sum of atomic energies:         -75.76548395

      Non-variational initial energy
      ------------------------------

 Total energy =     -75.929554
 1-e energy   =    -121.647436
 2-e energy   =      36.525787
 HOMO         =      -0.482989
 LUMO         =       0.012026


      Symmetry analysis of molecular orbitals - initial
      -------------------------------------------------

  Numbering of irreducible representations: 

     1 a1          2 a2          3 b1          4 b2      

  Orbital symmetries:

     1 a1          2 a1          3 b1          4 a1          5 b2      
     6 a1          7 b1          8 a1          9 b2         10 a1      
    11 b1         12 b1         13 a1         14 a2         15 a1      

   Time after variat. SCF:      0.1
   Time prior to 1st pass:      0.1

 #quartets = 1.144D+04 #integrals = 1.161D+05 #direct =  0.0% #cached =100.0%


 Integral file          = ./h2o.aoints.0
 Record size in doubles =  65536        No. of integs per rec  =  43688
 Max. records in memory =      2        Max. records in file   = 161638
 No. of bits per label  =      8        No. of bits per value  =     64


File balance: exchanges=     0  moved=     0  time=   0.0


           Memory utilization after 1st SCF pass: 
           Heap Space remaining (MW):       86.11            86114058
          Stack Space remaining (MW):       86.25            86246804

   convergence    iter        energy       DeltaE   RMS-Dens  Diis-err    time
 ---------------- ----- ----------------- --------- --------- ---------  ------
 d= 0,ls=0.0,diis     1    -76.0066434004 -8.52D+01  8.71D-03  3.41D-01     0.1
 d= 0,ls=0.0,diis     2    -76.0313394556 -2.47D-02  3.00D-03  1.13D-01     0.1
 d= 0,ls=0.0,diis     3    -76.0412177380 -9.88D-03  4.63D-04  1.30D-03     0.1
 d= 0,ls=0.0,diis     4    -76.0413942528 -1.77D-04  1.47D-04  5.87D-05     0.1
 d= 0,ls=0.0,diis     5    -76.0414078497 -1.36D-05  4.69D-05  2.25D-06     0.1
 d= 0,ls=0.0,diis     6    -76.0414085886 -7.39D-07  9.50D-06  7.04D-08     0.2


         Total DFT energy =      -76.041408588647
      One electron energy =     -122.971019988990
           Coulomb energy =       46.673765682409
    Exchange-Corr. energy =       -8.936248950723
 Nuclear repulsion energy =        9.192094668657

 Numeric. integr. density =        0.000000000000

     Total iterative time =      0.1s



                  Occupations of the irreducible representations
                  ----------------------------------------------

                     irrep           alpha         beta
                     --------     --------     --------
                     a1                3.0          3.0
                     a2                0.0          0.0
                     b1                1.0          1.0
                     b2                1.0          1.0


                       DFT Final Molecular Orbital Analysis
                       ------------------------------------

 Vector    1  Occ=2.000000D+00  E=-2.057733D+01  Symmetry=a1
              MO Center= -2.2D-18, -2.5D-28,  1.2D-01, r^2= 1.5D-02
   Bfn.  Coefficient  Atom+Function         Bfn.  Coefficient  Atom+Function  
  ----- ------------  ---------------      ----- ------------  ---------------
     1      1.001459  1 O  s          

 Vector    2  Occ=2.000000D+00  E=-1.356528D+00  Symmetry=a1
              MO Center= -2.7D-16,  3.5D-16, -5.2D-02, r^2= 5.0D-01
   Bfn.  Coefficient  Atom+Function         Bfn.  Coefficient  Atom+Function  
  ----- ------------  ---------------      ----- ------------  ---------------
     2      0.448350  1 O  s                  3      0.374619  1 O  s          
    24      0.206215  2 H  s                 33      0.206215  3 H  s          
     7     -0.078520  1 O  pz                 4      0.057574  1 O  s          
    27     -0.037157  2 H  px                36      0.037157  3 H  px         
    25     -0.025676  2 H  s                 34     -0.025676  3 H  s          

 Vector    3  Occ=2.000000D+00  E=-7.190901D-01  Symmetry=b1
              MO Center=  2.9D-16,  4.3D-17, -9.4D-02, r^2= 7.6D-01
   Bfn.  Coefficient  Atom+Function         Bfn.  Coefficient  Atom+Function  
  ----- ------------  ---------------      ----- ------------  ---------------
     5      0.499677  1 O  px                24      0.350158  2 H  s          
    33     -0.350158  3 H  s                  8      0.192467  1 O  px         
    25      0.081551  2 H  s                 34     -0.081551  3 H  s          
    29      0.034629  2 H  pz                38     -0.034629  3 H  pz         
    22     -0.031314  1 O  d  1              17      0.028733  1 O  d  1       

 Vector    4  Occ=2.000000D+00  E=-5.856616D-01  Symmetry=a1
              MO Center=  5.0D-17, -4.0D-16,  1.6D-01, r^2= 7.2D-01
   Bfn.  Coefficient  Atom+Function         Bfn.  Coefficient  Atom+Function  
  ----- ------------  ---------------      ----- ------------  ---------------
     7      0.548888  1 O  pz                10      0.324082  1 O  pz         
     3      0.318946  1 O  s                 24     -0.211930  2 H  s          
    33     -0.211930  3 H  s                  2      0.151940  1 O  s          
     4      0.076457  1 O  s                 25     -0.057932  2 H  s          
    34     -0.057932  3 H  s                 13      0.039050  1 O  pz         

 Vector    5  Occ=2.000000D+00  E=-5.094259D-01  Symmetry=b2
              MO Center= -6.5D-17, -2.7D-18,  7.8D-02, r^2= 6.8D-01
   Bfn.  Coefficient  Atom+Function         Bfn.  Coefficient  Atom+Function  
  ----- ------------  ---------------      ----- ------------  ---------------
     6      0.628503  1 O  py                 9      0.450155  1 O  py         
    12      0.068858  1 O  py                28      0.026253  2 H  py         
    37      0.026253  3 H  py         

 Vector    6  Occ=0.000000D+00  E= 3.542992D-02  Symmetry=a1
              MO Center=  9.8D-18, -1.1D-17, -7.8D-01, r^2= 1.1D+01
   Bfn.  Coefficient  Atom+Function         Bfn.  Coefficient  Atom+Function  
  ----- ------------  ---------------      ----- ------------  ---------------
     4      1.562270  1 O  s                 26     -0.836948  2 H  s          
    35     -0.836948  3 H  s                 25     -0.479110  2 H  s          
    34     -0.479110  3 H  s                  3      0.221953  1 O  s          
    13     -0.213653  1 O  pz                10     -0.131392  1 O  pz         
    30      0.083191  2 H  px                39     -0.083191  3 H  px         

 Vector    7  Occ=0.000000D+00  E= 5.792856D-02  Symmetry=b1
              MO Center=  1.9D-15,  8.1D-33, -8.2D-01, r^2= 1.5D+01
   Bfn.  Coefficient  Atom+Function         Bfn.  Coefficient  Atom+Function  
  ----- ------------  ---------------      ----- ------------  ---------------
    26      2.968789  2 H  s                 35     -2.968789  3 H  s          
    11     -0.830779  1 O  px                25      0.551119  2 H  s          
    34     -0.551119  3 H  s                  8     -0.138383  1 O  px         
    32      0.129154  2 H  pz                41     -0.129154  3 H  pz         
    30     -0.102480  2 H  px                39     -0.102480  3 H  px         

 Vector    8  Occ=0.000000D+00  E= 1.739757D-01  Symmetry=a1
              MO Center= -1.7D-15, -8.4D-17,  2.6D-01, r^2= 8.3D+00
   Bfn.  Coefficient  Atom+Function         Bfn.  Coefficient  Atom+Function  
  ----- ------------  ---------------      ----- ------------  ---------------
     4      4.105742  1 O  s                 13     -1.918496  1 O  pz         
    25     -1.773692  2 H  s                 34     -1.773692  3 H  s          
    26     -0.624571  2 H  s                 35     -0.624571  3 H  s          
     3      0.366404  1 O  s                 30      0.328621  2 H  px         
    39     -0.328621  3 H  px                 7      0.176986  1 O  pz         

 Vector    9  Occ=0.000000D+00  E= 1.966933D-01  Symmetry=b2
              MO Center= -1.9D-17,  1.4D-18,  3.8D-01, r^2= 6.4D+00
   Bfn.  Coefficient  Atom+Function         Bfn.  Coefficient  Atom+Function  
  ----- ------------  ---------------      ----- ------------  ---------------
    12      1.443066  1 O  py                31     -0.283876  2 H  py         
    40     -0.283876  3 H  py                 9     -0.245273  1 O  py         
     6     -0.174514  1 O  py                20     -0.058415  1 O  d -1       

 Vector   10  Occ=0.000000D+00  E= 2.226393D-01  Symmetry=a1
              MO Center= -1.5D-15,  1.0D-16, -1.2D-02, r^2= 7.5D+00
   Bfn.  Coefficient  Atom+Function         Bfn.  Coefficient  Atom+Function  
  ----- ------------  ---------------      ----- ------------  ---------------
     4      2.866057  1 O  s                 26     -0.677787  2 H  s          
    35     -0.677787  3 H  s                 13      0.500597  1 O  pz         
    32     -0.482167  2 H  pz                41     -0.482167  3 H  pz         
    25     -0.459964  2 H  s                 34     -0.459964  3 H  s          
    30      0.429331  2 H  px                39     -0.429331  3 H  px         

 Vector   11  Occ=0.000000D+00  E= 2.314512D-01  Symmetry=b1
              MO Center=  3.1D-16, -8.0D-32,  1.9D-01, r^2= 1.0D+01
   Bfn.  Coefficient  Atom+Function         Bfn.  Coefficient  Atom+Function  
  ----- ------------  ---------------      ----- ------------  ---------------
    11      3.110219  1 O  px                26     -2.704726  2 H  s          
    35      2.704726  3 H  s                 25     -2.672503  2 H  s          
    34      2.672503  3 H  s                 30      0.591979  2 H  px         
    39      0.591979  3 H  px                32     -0.558647  2 H  pz         
    41      0.558647  3 H  pz                 8      0.260524  1 O  px         

 Vector   12  Occ=0.000000D+00  E= 2.907118D-01  Symmetry=b1
              MO Center=  3.9D-16,  4.8D-33, -4.4D-01, r^2= 4.4D+00
   Bfn.  Coefficient  Atom+Function         Bfn.  Coefficient  Atom+Function  
  ----- ------------  ---------------      ----- ------------  ---------------
    25     -0.968694  2 H  s                 34      0.968694  3 H  s          
    11      0.904242  1 O  px                32      0.484140  2 H  pz         
    41     -0.484140  3 H  pz                30     -0.435415  2 H  px         
    39     -0.435415  3 H  px                26      0.299717  2 H  s          
    35     -0.299717  3 H  s                  8      0.270506  1 O  px         

 Vector   13  Occ=0.000000D+00  E= 3.314772D-01  Symmetry=a1
              MO Center=  3.1D-14, -5.0D-16, -1.9D-01, r^2= 4.6D+00
   Bfn.  Coefficient  Atom+Function         Bfn.  Coefficient  Atom+Function  
  ----- ------------  ---------------      ----- ------------  ---------------
     4      4.346282  1 O  s                 25     -2.352964  2 H  s          
    34     -2.352964  3 H  s                 13     -0.591339  1 O  pz         
    32     -0.463888  2 H  pz                41     -0.463888  3 H  pz         
    30     -0.376344  2 H  px                39      0.376344  3 H  px         
    26     -0.253397  2 H  s                 35     -0.253397  3 H  s          

 Vector   14  Occ=0.000000D+00  E= 3.858021D-01  Symmetry=a2
              MO Center= -3.0D-17, -4.3D-17, -5.3D-01, r^2= 4.0D+00
   Bfn.  Coefficient  Atom+Function         Bfn.  Coefficient  Atom+Function  
  ----- ------------  ---------------      ----- ------------  ---------------
    31      1.141059  2 H  py                40     -1.141059  3 H  py         
    19     -0.130851  1 O  d -2              14      0.039432  1 O  d -2       

 Vector   15  Occ=0.000000D+00  E= 4.040023D-01  Symmetry=a1
              MO Center= -3.8D-15, -4.0D-17, -2.8D-01, r^2= 4.6D+00
   Bfn.  Coefficient  Atom+Function         Bfn.  Coefficient  Atom+Function  
  ----- ------------  ---------------      ----- ------------  ---------------
     4      4.395773  1 O  s                 25     -2.342126  2 H  s          
    34     -2.342126  3 H  s                 13     -1.823140  1 O  pz         
    10     -0.778333  1 O  pz                32      0.703471  2 H  pz         
    41      0.703471  3 H  pz                30      0.347098  2 H  px         
    39     -0.347098  3 H  px                26     -0.285727  2 H  s          

 Vector   16  Occ=0.000000D+00  E= 4.337371D-01  Symmetry=b2
              MO Center=  2.0D-15,  2.2D-16, -4.6D-01, r^2= 4.1D+00
   Bfn.  Coefficient  Atom+Function         Bfn.  Coefficient  Atom+Function  
  ----- ------------  ---------------      ----- ------------  ---------------
    31     -1.199016  2 H  py                40     -1.199016  3 H  py         
    12      1.166230  1 O  py                 9      0.656731  1 O  py         
     6      0.150865  1 O  py                20     -0.072200  1 O  d -1       

 Vector   17  Occ=0.000000D+00  E= 5.392038D-01  Symmetry=b1
              MO Center= -1.4D-14, -8.0D-17, -4.2D-01, r^2= 5.1D+00
   Bfn.  Coefficient  Atom+Function         Bfn.  Coefficient  Atom+Function  
  ----- ------------  ---------------      ----- ------------  ---------------
    30      2.333141  2 H  px                39      2.333141  3 H  px         
    11     -1.937103  1 O  px                25     -1.478555  2 H  s          
    34      1.478555  3 H  s                 32      1.042557  2 H  pz         
    41     -1.042557  3 H  pz                26      0.762951  2 H  s          
    35     -0.762951  3 H  s                  8     -0.131304  1 O  px         

 Vector   18  Occ=0.000000D+00  E= 6.485916D-01  Symmetry=a1
              MO Center= -1.1D-14,  1.3D-17, -5.4D-01, r^2= 4.6D+00
   Bfn.  Coefficient  Atom+Function         Bfn.  Coefficient  Atom+Function  
  ----- ------------  ---------------      ----- ------------  ---------------
     4      5.895431  1 O  s                 25     -3.488792  2 H  s          
    34     -3.488792  3 H  s                  3      2.814454  1 O  s          
    30      1.334974  2 H  px                39     -1.334974  3 H  px         
    32     -1.160958  2 H  pz                41     -1.160958  3 H  pz         
    13     -0.695947  1 O  pz                10     -0.601171  1 O  pz         

 Vector   19  Occ=0.000000D+00  E= 6.582197D-01  Symmetry=b1
              MO Center=  1.3D-15,  4.6D-17, -2.0D-01, r^2= 5.3D+00
   Bfn.  Coefficient  Atom+Function         Bfn.  Coefficient  Atom+Function  
  ----- ------------  ---------------      ----- ------------  ---------------
    25      8.479810  2 H  s                 34     -8.479810  3 H  s          
    30     -3.200324  2 H  px                39     -3.200324  3 H  px         
    11     -2.519779  1 O  px                 8     -1.797856  1 O  px         
    32      1.688236  2 H  pz                41     -1.688236  3 H  pz         
    26      1.424947  2 H  s                 35     -1.424947  3 H  s          

 Vector   20  Occ=0.000000D+00  E= 8.117084D-01  Symmetry=b1
              MO Center= -1.8D-14, -3.0D-17, -2.1D-01, r^2= 2.6D+00
   Bfn.  Coefficient  Atom+Function         Bfn.  Coefficient  Atom+Function  
  ----- ------------  ---------------      ----- ------------  ---------------
    25      2.846806  2 H  s                 34     -2.846806  3 H  s          
    11     -1.191610  1 O  px                22     -0.710533  1 O  d  1       
    30     -0.464717  2 H  px                39     -0.464717  3 H  px         
    24     -0.419619  2 H  s                 33      0.419619  3 H  s          
     8     -0.372464  1 O  px                 5      0.266607  1 O  px         

 Vector   21  Occ=0.000000D+00  E= 9.298466D-01  Symmetry=a1
              MO Center= -4.1D-15,  1.2D-16, -2.3D-01, r^2= 2.6D+00
   Bfn.  Coefficient  Atom+Function         Bfn.  Coefficient  Atom+Function  
  ----- ------------  ---------------      ----- ------------  ---------------
     4      4.716788  1 O  s                 25     -3.236987  2 H  s          
    34     -3.236987  3 H  s                 13     -1.210693  1 O  pz         
     3      1.051698  1 O  s                 23      0.745145  1 O  d  2       
    24      0.492839  2 H  s                 33      0.492839  3 H  s          
    32     -0.301188  2 H  pz                41     -0.301188  3 H  pz         

 Vector   22  Occ=0.000000D+00  E= 1.100992D+00  Symmetry=b2
              MO Center= -1.2D-14,  1.3D-19,  3.7D-01, r^2= 1.9D+00
   Bfn.  Coefficient  Atom+Function         Bfn.  Coefficient  Atom+Function  
  ----- ------------  ---------------      ----- ------------  ---------------
    20      1.123530  1 O  d -1              12     -0.726905  1 O  py         
    31      0.583136  2 H  py                40      0.583136  3 H  py         
     6     -0.191467  1 O  py                 9     -0.032740  1 O  py         

 Vector   23  Occ=0.000000D+00  E= 1.115297D+00  Symmetry=a1
              MO Center= -5.4D-15,  2.1D-16,  3.6D-01, r^2= 2.0D+00
   Bfn.  Coefficient  Atom+Function         Bfn.  Coefficient  Atom+Function  
  ----- ------------  ---------------      ----- ------------  ---------------
    21      1.140741  1 O  d  0               4     -0.902338  1 O  s          
    32      0.666961  2 H  pz                41      0.666961  3 H  pz         
    25      0.654020  2 H  s                 34      0.654020  3 H  s          
     3     -0.575435  1 O  s                 13     -0.487973  1 O  pz         
     7     -0.134116  1 O  pz                24     -0.103098  2 H  s          

 Vector   24  Occ=0.000000D+00  E= 1.148874D+00  Symmetry=a2
              MO Center=  9.9D-15, -5.2D-16,  4.0D-03, r^2= 2.0D+00
   Bfn.  Coefficient  Atom+Function         Bfn.  Coefficient  Atom+Function  
  ----- ------------  ---------------      ----- ------------  ---------------
    19      1.237016  1 O  d -2              31     -0.737009  2 H  py         
    40      0.737009  3 H  py                28      0.035847  2 H  py         
    37     -0.035847  3 H  py         

 Vector   25  Occ=0.000000D+00  E= 1.307701D+00  Symmetry=a1
              MO Center=  1.3D-14, -1.1D-17, -1.7D-01, r^2= 1.9D+00
   Bfn.  Coefficient  Atom+Function         Bfn.  Coefficient  Atom+Function  
  ----- ------------  ---------------      ----- ------------  ---------------
     4      3.258050  1 O  s                 25     -2.448949  2 H  s          
    34     -2.448949  3 H  s                  3      1.596730  1 O  s          
    10     -1.152489  1 O  pz                23     -0.792539  1 O  d  2       
    13     -0.727910  1 O  pz                30      0.661839  2 H  px         
    39     -0.661839  3 H  px                 7      0.531169  1 O  pz         

 Vector   26  Occ=0.000000D+00  E= 1.466973D+00  Symmetry=b1
              MO Center= -1.6D-15,  5.7D-16,  2.4D-01, r^2= 1.9D+00
   Bfn.  Coefficient  Atom+Function         Bfn.  Coefficient  Atom+Function  
  ----- ------------  ---------------      ----- ------------  ---------------
    25      4.428146  2 H  s                 34     -4.428146  3 H  s          
     8     -1.970631  1 O  px                30     -1.232077  2 H  px         
    39     -1.232077  3 H  px                32      1.054776  2 H  pz         
    41     -1.054776  3 H  pz                11     -1.041208  1 O  px         
    22      0.765563  1 O  d  1               5      0.592236  1 O  px         

 Vector   27  Occ=0.000000D+00  E= 1.483092D+00  Symmetry=b2
              MO Center= -5.4D-15, -7.1D-19, -1.6D-01, r^2= 1.5D+00
   Bfn.  Coefficient  Atom+Function         Bfn.  Coefficient  Atom+Function  
  ----- ------------  ---------------      ----- ------------  ---------------
     9      1.614689  1 O  py                 6     -0.982350  1 O  py         
    31     -0.562167  2 H  py                40     -0.562167  3 H  py         
    20     -0.399201  1 O  d -1              12      0.119908  1 O  py         

 Vector   28  Occ=0.000000D+00  E= 1.583766D+00  Symmetry=a1
              MO Center= -9.4D-15,  2.4D-17,  2.6D-01, r^2= 1.7D+00
   Bfn.  Coefficient  Atom+Function         Bfn.  Coefficient  Atom+Function  
  ----- ------------  ---------------      ----- ------------  ---------------
    10     -1.662163  1 O  pz                 4      1.574272  1 O  s          
    24     -0.867835  2 H  s                 33     -0.867835  3 H  s          
    23      0.751726  1 O  d  2               7      0.705308  1 O  pz         
     2      0.510088  1 O  s                 25     -0.430623  2 H  s          
    34     -0.430623  3 H  s                  3     -0.284274  1 O  s          

 Vector   29  Occ=0.000000D+00  E= 2.003584D+00  Symmetry=b1
              MO Center=  2.4D-15,  8.1D-18, -3.1D-01, r^2= 1.7D+00
   Bfn.  Coefficient  Atom+Function         Bfn.  Coefficient  Atom+Function  
  ----- ------------  ---------------      ----- ------------  ---------------
    11      0.994282  1 O  px                25     -0.767378  2 H  s          
    34      0.767378  3 H  s                  8      0.754933  1 O  px         
    22      0.641542  1 O  d  1              29      0.638673  2 H  pz         
    38     -0.638673  3 H  pz                32     -0.621934  2 H  pz         
    41      0.621934  3 H  pz                27      0.529958  2 H  px         

 Vector   30  Occ=0.000000D+00  E= 2.011390D+00  Symmetry=a2
              MO Center=  5.2D-14, -1.1D-17, -2.7D-01, r^2= 1.4D+00
   Bfn.  Coefficient  Atom+Function         Bfn.  Coefficient  Atom+Function  
  ----- ------------  ---------------      ----- ------------  ---------------
    28     -0.948101  2 H  py                37      0.948101  3 H  py         
    19      0.866772  1 O  d -2              31      0.085774  2 H  py         
    40     -0.085774  3 H  py                14     -0.074124  1 O  d -2       

 Vector   31  Occ=0.000000D+00  E= 2.109052D+00  Symmetry=b2
              MO Center= -4.7D-14,  6.2D-20, -4.1D-01, r^2= 1.4D+00
   Bfn.  Coefficient  Atom+Function         Bfn.  Coefficient  Atom+Function  
  ----- ------------  ---------------      ----- ------------  ---------------
    28      0.993631  2 H  py                37      0.993631  3 H  py         
     9     -0.768883  1 O  py                20      0.693198  1 O  d -1       
    12      0.166317  1 O  py                31     -0.084345  2 H  py         
    40     -0.084345  3 H  py                15     -0.062655  1 O  d -1       

 Vector   32  Occ=0.000000D+00  E= 2.367988D+00  Symmetry=a1
              MO Center= -2.1D-15,  4.1D-18, -2.2D-01, r^2= 1.6D+00
   Bfn.  Coefficient  Atom+Function         Bfn.  Coefficient  Atom+Function  
  ----- ------------  ---------------      ----- ------------  ---------------
     3      1.588376  1 O  s                 21     -1.287249  1 O  d  0       
     4      1.170429  1 O  s                 29     -0.984116  2 H  pz         
    38     -0.984116  3 H  pz                25     -0.964577  2 H  s          
    34     -0.964577  3 H  s                 23      0.726320  1 O  d  2       
    27     -0.623034  2 H  px                36      0.623034  3 H  px         

 Vector   33  Occ=0.000000D+00  E= 2.482159D+00  Symmetry=b1
              MO Center= -1.3D-15,  1.6D-17, -3.2D-01, r^2= 1.4D+00
   Bfn.  Coefficient  Atom+Function         Bfn.  Coefficient  Atom+Function  
  ----- ------------  ---------------      ----- ------------  ---------------
    25      2.931634  2 H  s                 34     -2.931634  3 H  s          
     8     -2.210547  1 O  px                30     -1.266862  2 H  px         
    39     -1.266862  3 H  px                 5      0.967787  1 O  px         
    24      0.776940  2 H  s                 33     -0.776940  3 H  s          
    22     -0.760571  1 O  d  1              27      0.654618  2 H  px         

 Vector   34  Occ=0.000000D+00  E= 2.627872D+00  Symmetry=a1
              MO Center=  2.3D-14, -4.0D-18, -3.7D-01, r^2= 1.3D+00
   Bfn.  Coefficient  Atom+Function         Bfn.  Coefficient  Atom+Function  
  ----- ------------  ---------------      ----- ------------  ---------------
     3      2.275155  1 O  s                  2     -1.694903  1 O  s          
     4      1.590122  1 O  s                 25     -1.150246  2 H  s          
    34     -1.150246  3 H  s                  1     -0.758417  1 O  s          
    30      0.599248  2 H  px                39     -0.599248  3 H  px         
     7      0.545951  1 O  pz                29      0.528359  2 H  pz         

 Vector   35  Occ=0.000000D+00  E= 2.715243D+00  Symmetry=b1
              MO Center= -1.4D-14, -5.3D-17, -2.3D-01, r^2= 1.6D+00
   Bfn.  Coefficient  Atom+Function         Bfn.  Coefficient  Atom+Function  
  ----- ------------  ---------------      ----- ------------  ---------------
    25      4.129063  2 H  s                 34     -4.129063  3 H  s          
     8     -3.630034  1 O  px                24      2.162260  2 H  s          
    33     -2.162260  3 H  s                 22     -1.910664  1 O  d  1       
    30     -1.199524  2 H  px                39     -1.199524  3 H  px         
    11     -1.106080  1 O  px                29      0.646404  2 H  pz         

 Vector   36  Occ=0.000000D+00  E= 2.966743D+00  Symmetry=a1
              MO Center=  3.5D-15,  5.9D-18, -1.4D-01, r^2= 1.6D+00
   Bfn.  Coefficient  Atom+Function         Bfn.  Coefficient  Atom+Function  
  ----- ------------  ---------------      ----- ------------  ---------------
     3      5.660382  1 O  s                  4      4.234387  1 O  s          
    25     -3.080934  2 H  s                 34     -3.080934  3 H  s          
    10     -2.341641  1 O  pz                24     -1.719589  2 H  s          
    33     -1.719589  3 H  s                  2     -1.351835  1 O  s          
    27      0.919080  2 H  px                36     -0.919080  3 H  px         

 Vector   37  Occ=0.000000D+00  E= 3.673019D+00  Symmetry=b2
              MO Center=  4.4D-16,  1.9D-18,  1.3D-01, r^2= 7.2D-01
   Bfn.  Coefficient  Atom+Function         Bfn.  Coefficient  Atom+Function  
  ----- ------------  ---------------      ----- ------------  ---------------
    15      1.193371  1 O  d -1              20     -0.663915  1 O  d -1       
    12      0.305066  1 O  py                31     -0.295945  2 H  py         
    40     -0.295945  3 H  py                 9      0.158322  1 O  py         
    28      0.109100  2 H  py                37      0.109100  3 H  py         
     6     -0.047065  1 O  py         

 Vector   38  Occ=0.000000D+00  E= 3.690403D+00  Symmetry=a1
              MO Center=  2.4D-16,  8.3D-19,  1.3D-01, r^2= 7.4D-01
   Bfn.  Coefficient  Atom+Function         Bfn.  Coefficient  Atom+Function  
  ----- ------------  ---------------      ----- ------------  ---------------
    16      1.194788  1 O  d  0               3      0.651347  1 O  s          
    21     -0.606955  1 O  d  0              32     -0.308303  2 H  pz         
    41     -0.308303  3 H  pz                 4      0.260061  1 O  s          
    13      0.231567  1 O  pz                25     -0.218953  2 H  s          
    34     -0.218953  3 H  s                  2     -0.183005  1 O  s          

 Vector   39  Occ=0.000000D+00  E= 3.703017D+00  Symmetry=a2
              MO Center= -6.7D-16, -5.2D-18,  8.2D-02, r^2= 7.3D-01
   Bfn.  Coefficient  Atom+Function         Bfn.  Coefficient  Atom+Function  
  ----- ------------  ---------------      ----- ------------  ---------------
    14      1.205896  1 O  d -2              19     -0.688646  1 O  d -2       
    31      0.321096  2 H  py                40     -0.321096  3 H  py         
    28     -0.131734  2 H  py                37      0.131734  3 H  py         

 Vector   40  Occ=0.000000D+00  E= 4.026843D+00  Symmetry=a1
              MO Center=  8.0D-15,  2.9D-18,  7.5D-03, r^2= 8.3D-01
   Bfn.  Coefficient  Atom+Function         Bfn.  Coefficient  Atom+Function  
  ----- ------------  ---------------      ----- ------------  ---------------
     3      3.465983  1 O  s                  4      1.537227  1 O  s          
    10     -1.406617  1 O  pz                24     -1.274360  2 H  s          
    33     -1.274360  3 H  s                 25     -1.253675  2 H  s          
    34     -1.253675  3 H  s                 18      1.218908  1 O  d  2       
    27      0.691075  2 H  px                36     -0.691075  3 H  px         

 Vector   41  Occ=0.000000D+00  E= 4.308776D+00  Symmetry=b1
              MO Center= -9.4D-15,  5.7D-17,  4.0D-02, r^2= 8.4D-01
   Bfn.  Coefficient  Atom+Function         Bfn.  Coefficient  Atom+Function  
  ----- ------------  ---------------      ----- ------------  ---------------
     8      2.409979  1 O  px                25     -2.411215  2 H  s          
    34      2.411215  3 H  s                 24     -1.532075  2 H  s          
    33      1.532075  3 H  s                 17      1.329384  1 O  d  1       
    30      0.674087  2 H  px                39      0.674087  3 H  px         
    27      0.666190  2 H  px                36      0.666190  3 H  px         


 center of mass
 --------------
 x =   0.00000000 y =   0.00000000 z =   0.09760123

 moments of inertia (a.u.)
 ------------------
           2.197735387303           0.000000000000           0.000000000000
           0.000000000000           6.322357589609           0.000000000000
           0.000000000000           0.000000000000           4.124622202307

     Multipole analysis of the density
     ---------------------------------

     L   x y z        total         alpha         beta         nuclear
     -   - - -        -----         -----         ----         -------
     0   0 0 0     -0.000000     -5.000000     -5.000000     10.000000

     1   1 0 0      0.000000      0.000000      0.000000      0.000000
     1   0 1 0     -0.000000     -0.000000     -0.000000      0.000000
     1   0 0 1     -0.786648     -0.393324     -0.393324      0.000000

     2   2 0 0     -3.181818     -3.637208     -3.637208      4.092598
     2   1 1 0      0.000000      0.000000      0.000000      0.000000
     2   1 0 1     -0.000000     -0.000000     -0.000000      0.000000
     2   0 2 0     -5.642919     -2.821460     -2.821460      0.000000
     2   0 1 1     -0.000000     -0.000000     -0.000000      0.000000
     2   0 0 2     -4.656607     -3.310494     -3.310494      1.964381


 Parallel integral file used       4 records with       0 large values


 Task  times  cpu:        0.1s     wall:        0.1s


                                NWChem Input Module
                                -------------------



                                 NWChem DFT Module
                                 -----------------




 Summary of "ao basis" -> "ao basis" (spherical)
 ------------------------------------------------------------------------------
       Tag                 Description            Shells   Functions and Types
 ---------------- ------------------------------  ------  ---------------------
 O                        aug-cc-pvdz                9       23   4s3p2d
 H                        aug-cc-pvdz                5        9   3s2p


      Symmetry analysis of basis
      --------------------------

        a1         18
        a2          4
        b1         12
        b2          7

  Caching 1-el integrals 

            General Information
            -------------------
          SCF calculation type: DFT
          Wavefunction type:  closed shell.
          No. of atoms     :     3
          No. of electrons :    10
           Alpha electrons :     5
            Beta electrons :     5
          Charge           :     0
          Spin multiplicity:     1
          Use of symmetry is: on ; symmetry adaption is: on 
          Maximum number of iterations:  30
          AO basis - number of functions:    41
                     number of shells:    19
          Convergence on energy requested:  1.00D-06
          Convergence on density requested:  1.00D-05
          Convergence on gradient requested:  5.00D-04

              XC Information
              --------------
                         B3LYP Method XC Potential
                     Hartree-Fock (Exact) Exchange  0.200          
                        Slater Exchange Functional  0.800 local    
                    Becke 1988 Exchange Functional  0.720 non-local
              Lee-Yang-Parr Correlation Functional  0.810          
                  VWN I RPA Correlation Functional  0.190 local    

             Grid Information
             ----------------
          Grid used for XC integration:  medium    
          Radial quadrature: Mura-Knowles        
          Angular quadrature: Lebedev. 
          Tag              B.-S. Rad. Rad. Pts. Rad. Cut. Ang. Pts.
          ---              ---------- --------- --------- ---------
          O                   0.60       49           9.0       434
          H                   0.35       45          11.0       434
          Grid pruning is: on 
          Number of quadrature shells:    94
          Spatial weights used:  Erf1

          Convergence Information
          -----------------------
          Convergence aids based upon iterative change in 
          total energy or number of iterations. 
          Levelshifting, if invoked, occurs when the 
          HOMO/LUMO gap drops below (HL_TOL):  1.00D-02
          DIIS, if invoked, will attempt to extrapolate 
          using up to (NFOCK): 10 stored Fock matrices.

                    Damping( 0%)  Levelshifting(0.5)       DIIS
                  --------------- ------------------- ---------------
          dE  on:    start            ASAP                start   
          dE off:    2 iters         30 iters            30 iters 


      Screening Tolerance Information
      -------------------------------
          Density screening/tol_rho:  1.00D-10
          AO Gaussian exp screening on grid/accAOfunc:  14
          CD Gaussian exp screening on grid/accCDfunc:  20
          XC Gaussian exp screening on grid/accXCfunc:  20
          Schwarz screening/accCoul:  1.00D-08


 Loading old vectors from job with title :




      Symmetry analysis of molecular orbitals - initial
      -------------------------------------------------

  Numbering of irreducible representations: 

     1 a1          2 a2          3 b1          4 b2      

  Orbital symmetries:

     1 a1          2 a1          3 b1          4 a1          5 b2      
     6 a1          7 b1          8 a1          9 b2         10 a1      
    11 b1         12 b1         13 a1         14 a2         15 a1      

   Time after variat. SCF:      0.2
   Time prior to 1st pass:      0.2

 #quartets = 1.144D+04 #integrals = 1.161D+05 #direct =  0.0% #cached =100.0%


 Integral file          = ./h2o.aoints.0
 Record size in doubles =  65536        No. of integs per rec  =  43688
 Max. records in memory =      2        Max. records in file   = 161638
 No. of bits per label  =      8        No. of bits per value  =     64


File balance: exchanges=     0  moved=     0  time=   0.0


 Grid_pts file          = ./h2o.gridpts.0
 Record size in doubles =  12289        No. of grid_pts per rec  =   3070
 Max. records in memory =      5        Max. recs in file   =    862003



         Total DFT energy =      -76.439299459396
      One electron energy =     -122.970985447161
           Coulomb energy =       46.673739988551
    Exchange-Corr. energy =       -9.334148669442
 Nuclear repulsion energy =        9.192094668657

 Numeric. integr. density =        9.999999379275

     Total iterative time =      0.1s



                  Occupations of the irreducible representations
                  ----------------------------------------------

                     irrep           alpha         beta
                     --------     --------     --------
                     a1                3.0          3.0
                     a2                0.0          0.0
                     b1                1.0          1.0
                     b2                1.0          1.0


                       DFT Final Molecular Orbital Analysis
                       ------------------------------------

 Vector    1  Occ=2.000000D+00  E=-2.057733D+01  Symmetry=a1
              MO Center= -2.2D-18, -2.5D-28,  1.2D-01, r^2= 1.5D-02
   Bfn.  Coefficient  Atom+Function         Bfn.  Coefficient  Atom+Function  
  ----- ------------  ---------------      ----- ------------  ---------------
     1      1.001459  1 O  s          

 Vector    2  Occ=2.000000D+00  E=-1.356528D+00  Symmetry=a1
              MO Center= -2.7D-16,  3.5D-16, -5.2D-02, r^2= 5.0D-01
   Bfn.  Coefficient  Atom+Function         Bfn.  Coefficient  Atom+Function  
  ----- ------------  ---------------      ----- ------------  ---------------
     2      0.448350  1 O  s                  3      0.374619  1 O  s          
    24      0.206215  2 H  s                 33      0.206215  3 H  s          
     7     -0.078520  1 O  pz                 4      0.057574  1 O  s          
    27     -0.037157  2 H  px                36      0.037157  3 H  px         
    25     -0.025676  2 H  s                 34     -0.025676  3 H  s          

 Vector    3  Occ=2.000000D+00  E=-7.190901D-01  Symmetry=b1
              MO Center=  2.9D-16,  4.3D-17, -9.4D-02, r^2= 7.6D-01
   Bfn.  Coefficient  Atom+Function         Bfn.  Coefficient  Atom+Function  
  ----- ------------  ---------------      ----- ------------  ---------------
     5      0.499677  1 O  px                24      0.350158  2 H  s          
    33     -0.350158  3 H  s                  8      0.192467  1 O  px         
    25      0.081551  2 H  s                 34     -0.081551  3 H  s          
    29      0.034629  2 H  pz                38     -0.034629  3 H  pz         
    22     -0.031314  1 O  d  1              17      0.028733  1 O  d  1       

 Vector    4  Occ=2.000000D+00  E=-5.856616D-01  Symmetry=a1
              MO Center=  1.9D-16, -1.2D-32,  1.6D-01, r^2= 7.2D-01
   Bfn.  Coefficient  Atom+Function         Bfn.  Coefficient  Atom+Function  
  ----- ------------  ---------------      ----- ------------  ---------------
     7      0.548888  1 O  pz                10      0.324082  1 O  pz         
     3      0.318946  1 O  s                 24     -0.211930  2 H  s          
    33     -0.211930  3 H  s                  2      0.151940  1 O  s          
     4      0.076457  1 O  s                 25     -0.057932  2 H  s          
    34     -0.057932  3 H  s                 13      0.039050  1 O  pz         

 Vector    5  Occ=2.000000D+00  E=-5.094259D-01  Symmetry=b2
              MO Center= -6.4D-17, -4.0D-16,  7.8D-02, r^2= 6.8D-01
   Bfn.  Coefficient  Atom+Function         Bfn.  Coefficient  Atom+Function  
  ----- ------------  ---------------      ----- ------------  ---------------
     6      0.628503  1 O  py                 9      0.450155  1 O  py         
    12      0.068858  1 O  py                28      0.026253  2 H  py         
    37      0.026253  3 H  py         

 Vector    6  Occ=0.000000D+00  E= 3.542992D-02  Symmetry=a1
              MO Center=  8.8D-18, -1.1D-17, -7.8D-01, r^2= 1.1D+01
   Bfn.  Coefficient  Atom+Function         Bfn.  Coefficient  Atom+Function  
  ----- ------------  ---------------      ----- ------------  ---------------
     4      1.562270  1 O  s                 26     -0.836948  2 H  s          
    35     -0.836948  3 H  s                 25     -0.479110  2 H  s          
    34     -0.479110  3 H  s                  3      0.221953  1 O  s          
    13     -0.213653  1 O  pz                10     -0.131392  1 O  pz         
    30      0.083191  2 H  px                39     -0.083191  3 H  px         

 Vector    7  Occ=0.000000D+00  E= 5.792856D-02  Symmetry=b1
              MO Center= -9.5D-16, -4.4D-32, -8.2D-01, r^2= 1.5D+01
   Bfn.  Coefficient  Atom+Function         Bfn.  Coefficient  Atom+Function  
  ----- ------------  ---------------      ----- ------------  ---------------
    26      2.968789  2 H  s                 35     -2.968789  3 H  s          
    11     -0.830779  1 O  px                25      0.551119  2 H  s          
    34     -0.551119  3 H  s                  8     -0.138383  1 O  px         
    32      0.129154  2 H  pz                41     -0.129154  3 H  pz         
    30     -0.102480  2 H  px                39     -0.102480  3 H  px         

 Vector    8  Occ=0.000000D+00  E= 1.739757D-01  Symmetry=a1
              MO Center= -6.6D-16, -8.4D-17,  2.6D-01, r^2= 8.3D+00
   Bfn.  Coefficient  Atom+Function         Bfn.  Coefficient  Atom+Function  
  ----- ------------  ---------------      ----- ------------  ---------------
     4      4.105742  1 O  s                 13     -1.918496  1 O  pz         
    25     -1.773692  2 H  s                 34     -1.773692  3 H  s          
    26     -0.624571  2 H  s                 35     -0.624571  3 H  s          
     3      0.366404  1 O  s                 30      0.328621  2 H  px         
    39     -0.328621  3 H  px                 7      0.176986  1 O  pz         

 Vector    9  Occ=0.000000D+00  E= 1.966933D-01  Symmetry=b2
              MO Center= -1.9D-17, -2.1D-19,  3.8D-01, r^2= 6.4D+00
   Bfn.  Coefficient  Atom+Function         Bfn.  Coefficient  Atom+Function  
  ----- ------------  ---------------      ----- ------------  ---------------
    12      1.443066  1 O  py                31     -0.283876  2 H  py         
    40     -0.283876  3 H  py                 9     -0.245273  1 O  py         
     6     -0.174514  1 O  py                20     -0.058415  1 O  d -1       

 Vector   10  Occ=0.000000D+00  E= 2.226393D-01  Symmetry=a1
              MO Center= -3.5D-16,  1.0D-16, -1.2D-02, r^2= 7.5D+00
   Bfn.  Coefficient  Atom+Function         Bfn.  Coefficient  Atom+Function  
  ----- ------------  ---------------      ----- ------------  ---------------
     4      2.866057  1 O  s                 26     -0.677787  2 H  s          
    35     -0.677787  3 H  s                 13      0.500597  1 O  pz         
    32     -0.482167  2 H  pz                41     -0.482167  3 H  pz         
    25     -0.459964  2 H  s                 34     -0.459964  3 H  s          
    30      0.429331  2 H  px                39     -0.429331  3 H  px         

 Vector   11  Occ=0.000000D+00  E= 2.314512D-01  Symmetry=b1
              MO Center= -1.8D-15, -3.6D-32,  1.9D-01, r^2= 1.0D+01
   Bfn.  Coefficient  Atom+Function         Bfn.  Coefficient  Atom+Function  
  ----- ------------  ---------------      ----- ------------  ---------------
    11      3.110219  1 O  px                26     -2.704726  2 H  s          
    35      2.704726  3 H  s                 25     -2.672503  2 H  s          
    34      2.672503  3 H  s                 30      0.591979  2 H  px         
    39      0.591979  3 H  px                32     -0.558647  2 H  pz         
    41      0.558647  3 H  pz                 8      0.260524  1 O  px         

 Vector   12  Occ=0.000000D+00  E= 2.907118D-01  Symmetry=b1
              MO Center=  3.5D-16,  4.1D-33, -4.4D-01, r^2= 4.4D+00
   Bfn.  Coefficient  Atom+Function         Bfn.  Coefficient  Atom+Function  
  ----- ------------  ---------------      ----- ------------  ---------------
    25     -0.968694  2 H  s                 34      0.968694  3 H  s          
    11      0.904242  1 O  px                32      0.484140  2 H  pz         
    41     -0.484140  3 H  pz                30     -0.435415  2 H  px         
    39     -0.435415  3 H  px                26      0.299717  2 H  s          
    35     -0.299717  3 H  s                  8      0.270506  1 O  px         

 Vector   13  Occ=0.000000D+00  E= 3.314772D-01  Symmetry=a1
              MO Center=  3.1D-14, -5.0D-16, -1.9D-01, r^2= 4.6D+00
   Bfn.  Coefficient  Atom+Function         Bfn.  Coefficient  Atom+Function  
  ----- ------------  ---------------      ----- ------------  ---------------
     4      4.346282  1 O  s                 25     -2.352964  2 H  s          
    34     -2.352964  3 H  s                 13     -0.591339  1 O  pz         
    32     -0.463888  2 H  pz                41     -0.463888  3 H  pz         
    30     -0.376344  2 H  px                39      0.376344  3 H  px         
    26     -0.253397  2 H  s                 35     -0.253397  3 H  s          

 Vector   14  Occ=0.000000D+00  E= 3.858021D-01  Symmetry=a2
              MO Center= -9.9D-17, -4.3D-17, -5.3D-01, r^2= 4.0D+00
   Bfn.  Coefficient  Atom+Function         Bfn.  Coefficient  Atom+Function  
  ----- ------------  ---------------      ----- ------------  ---------------
    31      1.141059  2 H  py                40     -1.141059  3 H  py         
    19     -0.130851  1 O  d -2              14      0.039432  1 O  d -2       

 Vector   15  Occ=0.000000D+00  E= 4.040023D-01  Symmetry=a1
              MO Center= -5.7D-16, -4.0D-17, -2.8D-01, r^2= 4.6D+00
   Bfn.  Coefficient  Atom+Function         Bfn.  Coefficient  Atom+Function  
  ----- ------------  ---------------      ----- ------------  ---------------
     4      4.395773  1 O  s                 25     -2.342126  2 H  s          
    34     -2.342126  3 H  s                 13     -1.823140  1 O  pz         
    10     -0.778333  1 O  pz                32      0.703471  2 H  pz         
    41      0.703471  3 H  pz                30      0.347098  2 H  px         
    39     -0.347098  3 H  px                26     -0.285727  2 H  s          

 Vector   16  Occ=0.000000D+00  E= 4.337371D-01  Symmetry=b2
              MO Center=  2.1D-17,  3.8D-16, -4.6D-01, r^2= 4.1D+00
   Bfn.  Coefficient  Atom+Function         Bfn.  Coefficient  Atom+Function  
  ----- ------------  ---------------      ----- ------------  ---------------
    31     -1.199016  2 H  py                40     -1.199016  3 H  py         
    12      1.166230  1 O  py                 9      0.656731  1 O  py         
     6      0.150865  1 O  py                20     -0.072200  1 O  d -1       

 Vector   17  Occ=0.000000D+00  E= 5.392038D-01  Symmetry=b1
              MO Center= -3.2D-14, -1.7D-31, -4.2D-01, r^2= 5.1D+00
   Bfn.  Coefficient  Atom+Function         Bfn.  Coefficient  Atom+Function  
  ----- ------------  ---------------      ----- ------------  ---------------
    30      2.333141  2 H  px                39      2.333141  3 H  px         
    11     -1.937103  1 O  px                25     -1.478555  2 H  s          
    34      1.478555  3 H  s                 32      1.042557  2 H  pz         
    41     -1.042557  3 H  pz                26      0.762951  2 H  s          
    35     -0.762951  3 H  s                  8     -0.131304  1 O  px         

 Vector   18  Occ=0.000000D+00  E= 6.485916D-01  Symmetry=a1
              MO Center=  7.0D-15,  9.7D-17, -5.4D-01, r^2= 4.6D+00
   Bfn.  Coefficient  Atom+Function         Bfn.  Coefficient  Atom+Function  
  ----- ------------  ---------------      ----- ------------  ---------------
     4      5.895431  1 O  s                 25     -3.488792  2 H  s          
    34     -3.488792  3 H  s                  3      2.814454  1 O  s          
    30      1.334974  2 H  px                39     -1.334974  3 H  px         
    32     -1.160958  2 H  pz                41     -1.160958  3 H  pz         
    13     -0.695947  1 O  pz                10     -0.601171  1 O  pz         

 Vector   19  Occ=0.000000D+00  E= 6.582197D-01  Symmetry=b1
              MO Center=  1.8D-14,  1.1D-30, -2.0D-01, r^2= 5.3D+00
   Bfn.  Coefficient  Atom+Function         Bfn.  Coefficient  Atom+Function  
  ----- ------------  ---------------      ----- ------------  ---------------
    25      8.479810  2 H  s                 34     -8.479810  3 H  s          
    30     -3.200324  2 H  px                39     -3.200324  3 H  px         
    11     -2.519779  1 O  px                 8     -1.797856  1 O  px         
    32      1.688236  2 H  pz                41     -1.688236  3 H  pz         
    26      1.424947  2 H  s                 35     -1.424947  3 H  s          

 Vector   20  Occ=0.000000D+00  E= 8.117084D-01  Symmetry=b1
              MO Center= -1.5D-14, -3.0D-17, -2.1D-01, r^2= 2.6D+00
   Bfn.  Coefficient  Atom+Function         Bfn.  Coefficient  Atom+Function  
  ----- ------------  ---------------      ----- ------------  ---------------
    25      2.846806  2 H  s                 34     -2.846806  3 H  s          
    11     -1.191610  1 O  px                22     -0.710533  1 O  d  1       
    30     -0.464717  2 H  px                39     -0.464717  3 H  px         
    24     -0.419619  2 H  s                 33      0.419619  3 H  s          
     8     -0.372464  1 O  px                 5      0.266607  1 O  px         

 Vector   21  Occ=0.000000D+00  E= 9.298466D-01  Symmetry=a1
              MO Center=  1.3D-14,  4.4D-17, -2.3D-01, r^2= 2.6D+00
   Bfn.  Coefficient  Atom+Function         Bfn.  Coefficient  Atom+Function  
  ----- ------------  ---------------      ----- ------------  ---------------
     4      4.716788  1 O  s                 25     -3.236987  2 H  s          
    34     -3.236987  3 H  s                 13     -1.210693  1 O  pz         
     3      1.051698  1 O  s                 23      0.745145  1 O  d  2       
    24      0.492839  2 H  s                 33      0.492839  3 H  s          
    32     -0.301188  2 H  pz                41     -0.301188  3 H  pz         

 Vector   22  Occ=0.000000D+00  E= 1.100992D+00  Symmetry=b2
              MO Center= -1.2D-14,  1.3D-19,  3.7D-01, r^2= 1.9D+00
   Bfn.  Coefficient  Atom+Function         Bfn.  Coefficient  Atom+Function  
  ----- ------------  ---------------      ----- ------------  ---------------
    20      1.123530  1 O  d -1              12     -0.726905  1 O  py         
    31      0.583136  2 H  py                40      0.583136  3 H  py         
     6     -0.191467  1 O  py                 9     -0.032740  1 O  py         

 Vector   23  Occ=0.000000D+00  E= 1.115297D+00  Symmetry=a1
              MO Center= -7.2D-16,  3.8D-17,  3.6D-01, r^2= 2.0D+00
   Bfn.  Coefficient  Atom+Function         Bfn.  Coefficient  Atom+Function  
  ----- ------------  ---------------      ----- ------------  ---------------
    21      1.140741  1 O  d  0               4     -0.902338  1 O  s          
    32      0.666961  2 H  pz                41      0.666961  3 H  pz         
    25      0.654020  2 H  s                 34      0.654020  3 H  s          
     3     -0.575435  1 O  s                 13     -0.487973  1 O  pz         
     7     -0.134116  1 O  pz                24     -0.103098  2 H  s          

 Vector   24  Occ=0.000000D+00  E= 1.148874D+00  Symmetry=a2
              MO Center=  1.1D-14, -6.1D-16,  4.0D-03, r^2= 2.0D+00
   Bfn.  Coefficient  Atom+Function         Bfn.  Coefficient  Atom+Function  
  ----- ------------  ---------------      ----- ------------  ---------------
    19      1.237016  1 O  d -2              31     -0.737009  2 H  py         
    40      0.737009  3 H  py                28      0.035847  2 H  py         
    37     -0.035847  3 H  py         

 Vector   25  Occ=0.000000D+00  E= 1.307701D+00  Symmetry=a1
              MO Center=  1.4D-14, -7.0D-18, -1.7D-01, r^2= 1.9D+00
   Bfn.  Coefficient  Atom+Function         Bfn.  Coefficient  Atom+Function  
  ----- ------------  ---------------      ----- ------------  ---------------
     4      3.258050  1 O  s                 25     -2.448949  2 H  s          
    34     -2.448949  3 H  s                  3      1.596730  1 O  s          
    10     -1.152489  1 O  pz                23     -0.792539  1 O  d  2       
    13     -0.727910  1 O  pz                30      0.661839  2 H  px         
    39     -0.661839  3 H  px                 7      0.531169  1 O  pz         

 Vector   26  Occ=0.000000D+00  E= 1.466973D+00  Symmetry=b1
              MO Center= -2.6D-15,  5.7D-16,  2.4D-01, r^2= 1.9D+00
   Bfn.  Coefficient  Atom+Function         Bfn.  Coefficient  Atom+Function  
  ----- ------------  ---------------      ----- ------------  ---------------
    25      4.428146  2 H  s                 34     -4.428146  3 H  s          
     8     -1.970631  1 O  px                30     -1.232077  2 H  px         
    39     -1.232077  3 H  px                32      1.054776  2 H  pz         
    41     -1.054776  3 H  pz                11     -1.041208  1 O  px         
    22      0.765563  1 O  d  1               5      0.592236  1 O  px         

 Vector   27  Occ=0.000000D+00  E= 1.483092D+00  Symmetry=b2
              MO Center= -4.9D-15, -7.1D-19, -1.6D-01, r^2= 1.5D+00
   Bfn.  Coefficient  Atom+Function         Bfn.  Coefficient  Atom+Function  
  ----- ------------  ---------------      ----- ------------  ---------------
     9      1.614689  1 O  py                 6     -0.982350  1 O  py         
    31     -0.562167  2 H  py                40     -0.562167  3 H  py         
    20     -0.399201  1 O  d -1              12      0.119908  1 O  py         

 Vector   28  Occ=0.000000D+00  E= 1.583766D+00  Symmetry=a1
              MO Center=  2.0D-15,  2.4D-17,  2.6D-01, r^2= 1.7D+00
   Bfn.  Coefficient  Atom+Function         Bfn.  Coefficient  Atom+Function  
  ----- ------------  ---------------      ----- ------------  ---------------
    10     -1.662163  1 O  pz                 4      1.574272  1 O  s          
    24     -0.867835  2 H  s                 33     -0.867835  3 H  s          
    23      0.751726  1 O  d  2               7      0.705308  1 O  pz         
     2      0.510088  1 O  s                 25     -0.430623  2 H  s          
    34     -0.430623  3 H  s                  3     -0.284274  1 O  s          

 Vector   29  Occ=0.000000D+00  E= 2.003584D+00  Symmetry=b1
              MO Center=  3.5D-15,  8.1D-18, -3.1D-01, r^2= 1.7D+00
   Bfn.  Coefficient  Atom+Function         Bfn.  Coefficient  Atom+Function  
  ----- ------------  ---------------      ----- ------------  ---------------
    11      0.994282  1 O  px                25     -0.767378  2 H  s          
    34      0.767378  3 H  s                  8      0.754933  1 O  px         
    22      0.641542  1 O  d  1              29      0.638673  2 H  pz         
    38     -0.638673  3 H  pz                32     -0.621934  2 H  pz         
    41      0.621934  3 H  pz                27      0.529958  2 H  px         

 Vector   30  Occ=0.000000D+00  E= 2.011390D+00  Symmetry=a2
              MO Center=  5.3D-14,  4.8D-17, -2.7D-01, r^2= 1.4D+00
   Bfn.  Coefficient  Atom+Function         Bfn.  Coefficient  Atom+Function  
  ----- ------------  ---------------      ----- ------------  ---------------
    28     -0.948101  2 H  py                37      0.948101  3 H  py         
    19      0.866772  1 O  d -2              31      0.085774  2 H  py         
    40     -0.085774  3 H  py                14     -0.074124  1 O  d -2       

 Vector   31  Occ=0.000000D+00  E= 2.109052D+00  Symmetry=b2
              MO Center= -4.7D-14,  6.2D-20, -4.1D-01, r^2= 1.4D+00
   Bfn.  Coefficient  Atom+Function         Bfn.  Coefficient  Atom+Function  
  ----- ------------  ---------------      ----- ------------  ---------------
    28      0.993631  2 H  py                37      0.993631  3 H  py         
     9     -0.768883  1 O  py                20      0.693198  1 O  d -1       
    12      0.166317  1 O  py                31     -0.084345  2 H  py         
    40     -0.084345  3 H  py                15     -0.062655  1 O  d -1       

 Vector   32  Occ=0.000000D+00  E= 2.367988D+00  Symmetry=a1
              MO Center= -2.3D-16,  4.3D-18, -2.2D-01, r^2= 1.6D+00
   Bfn.  Coefficient  Atom+Function         Bfn.  Coefficient  Atom+Function  
  ----- ------------  ---------------      ----- ------------  ---------------
     3      1.588376  1 O  s                 21     -1.287249  1 O  d  0       
     4      1.170429  1 O  s                 29     -0.984116  2 H  pz         
    38     -0.984116  3 H  pz                25     -0.964577  2 H  s          
    34     -0.964577  3 H  s                 23      0.726320  1 O  d  2       
    27     -0.623034  2 H  px                36      0.623034  3 H  px         

 Vector   33  Occ=0.000000D+00  E= 2.482159D+00  Symmetry=b1
              MO Center= -3.7D-15,  1.6D-17, -3.2D-01, r^2= 1.4D+00
   Bfn.  Coefficient  Atom+Function         Bfn.  Coefficient  Atom+Function  
  ----- ------------  ---------------      ----- ------------  ---------------
    25      2.931634  2 H  s                 34     -2.931634  3 H  s          
     8     -2.210547  1 O  px                30     -1.266862  2 H  px         
    39     -1.266862  3 H  px                 5      0.967787  1 O  px         
    24      0.776940  2 H  s                 33     -0.776940  3 H  s          
    22     -0.760571  1 O  d  1              27      0.654618  2 H  px         

 Vector   34  Occ=0.000000D+00  E= 2.627872D+00  Symmetry=a1
              MO Center=  1.6D-14, -4.0D-18, -3.7D-01, r^2= 1.3D+00
   Bfn.  Coefficient  Atom+Function         Bfn.  Coefficient  Atom+Function  
  ----- ------------  ---------------      ----- ------------  ---------------
     3      2.275155  1 O  s                  2     -1.694903  1 O  s          
     4      1.590122  1 O  s                 25     -1.150246  2 H  s          
    34     -1.150246  3 H  s                  1     -0.758417  1 O  s          
    30      0.599248  2 H  px                39     -0.599248  3 H  px         
     7      0.545951  1 O  pz                29      0.528359  2 H  pz         

 Vector   35  Occ=0.000000D+00  E= 2.715243D+00  Symmetry=b1
              MO Center= -2.1D-14, -5.3D-17, -2.3D-01, r^2= 1.6D+00
   Bfn.  Coefficient  Atom+Function         Bfn.  Coefficient  Atom+Function  
  ----- ------------  ---------------      ----- ------------  ---------------
    25      4.129063  2 H  s                 34     -4.129063  3 H  s          
     8     -3.630034  1 O  px                24      2.162260  2 H  s          
    33     -2.162260  3 H  s                 22     -1.910664  1 O  d  1       
    30     -1.199524  2 H  px                39     -1.199524  3 H  px         
    11     -1.106080  1 O  px                29      0.646404  2 H  pz         

 Vector   36  Occ=0.000000D+00  E= 2.966743D+00  Symmetry=a1
              MO Center=  1.1D-14,  5.9D-18, -1.4D-01, r^2= 1.6D+00
   Bfn.  Coefficient  Atom+Function         Bfn.  Coefficient  Atom+Function  
  ----- ------------  ---------------      ----- ------------  ---------------
     3      5.660382  1 O  s                  4      4.234387  1 O  s          
    25     -3.080934  2 H  s                 34     -3.080934  3 H  s          
    10     -2.341641  1 O  pz                24     -1.719589  2 H  s          
    33     -1.719589  3 H  s                  2     -1.351835  1 O  s          
    27      0.919080  2 H  px                36     -0.919080  3 H  px         

 Vector   37  Occ=0.000000D+00  E= 3.673019D+00  Symmetry=b2
              MO Center=  4.6D-16,  2.0D-18,  1.3D-01, r^2= 7.2D-01
   Bfn.  Coefficient  Atom+Function         Bfn.  Coefficient  Atom+Function  
  ----- ------------  ---------------      ----- ------------  ---------------
    15      1.193371  1 O  d -1              20     -0.663915  1 O  d -1       
    12      0.305066  1 O  py                31     -0.295945  2 H  py         
    40     -0.295945  3 H  py                 9      0.158322  1 O  py         
    28      0.109100  2 H  py                37      0.109100  3 H  py         
     6     -0.047065  1 O  py         

 Vector   38  Occ=0.000000D+00  E= 3.690403D+00  Symmetry=a1
              MO Center=  4.5D-17,  8.3D-19,  1.3D-01, r^2= 7.4D-01
   Bfn.  Coefficient  Atom+Function         Bfn.  Coefficient  Atom+Function  
  ----- ------------  ---------------      ----- ------------  ---------------
    16      1.194788  1 O  d  0               3      0.651347  1 O  s          
    21     -0.606955  1 O  d  0              32     -0.308303  2 H  pz         
    41     -0.308303  3 H  pz                 4      0.260061  1 O  s          
    13      0.231567  1 O  pz                25     -0.218953  2 H  s          
    34     -0.218953  3 H  s                  2     -0.183005  1 O  s          

 Vector   39  Occ=0.000000D+00  E= 3.703017D+00  Symmetry=a2
              MO Center= -7.2D-16, -5.2D-18,  8.2D-02, r^2= 7.3D-01
   Bfn.  Coefficient  Atom+Function         Bfn.  Coefficient  Atom+Function  
  ----- ------------  ---------------      ----- ------------  ---------------
    14      1.205896  1 O  d -2              19     -0.688646  1 O  d -2       
    31      0.321096  2 H  py                40     -0.321096  3 H  py         
    28     -0.131734  2 H  py                37      0.131734  3 H  py         

 Vector   40  Occ=0.000000D+00  E= 4.026843D+00  Symmetry=a1
              MO Center=  9.4D-15,  2.9D-18,  7.5D-03, r^2= 8.3D-01
   Bfn.  Coefficient  Atom+Function         Bfn.  Coefficient  Atom+Function  
  ----- ------------  ---------------      ----- ------------  ---------------
     3      3.465983  1 O  s                  4      1.537227  1 O  s          
    10     -1.406617  1 O  pz                24     -1.274360  2 H  s          
    33     -1.274360  3 H  s                 25     -1.253675  2 H  s          
    34     -1.253675  3 H  s                 18      1.218908  1 O  d  2       
    27      0.691075  2 H  px                36     -0.691075  3 H  px         

 Vector   41  Occ=0.000000D+00  E= 4.308776D+00  Symmetry=b1
              MO Center= -1.0D-15,  5.7D-17,  4.0D-02, r^2= 8.4D-01
   Bfn.  Coefficient  Atom+Function         Bfn.  Coefficient  Atom+Function  
  ----- ------------  ---------------      ----- ------------  ---------------
     8      2.409979  1 O  px                25     -2.411215  2 H  s          
    34      2.411215  3 H  s                 24     -1.532075  2 H  s          
    33      1.532075  3 H  s                 17      1.329384  1 O  d  1       
    30      0.674087  2 H  px                39      0.674087  3 H  px         
    27      0.666190  2 H  px                36      0.666190  3 H  px         


 center of mass
 --------------
 x =   0.00000000 y =   0.00000000 z =   0.09760123

 moments of inertia (a.u.)
 ------------------
           2.197735387303           0.000000000000           0.000000000000
           0.000000000000           6.322357589609           0.000000000000
           0.000000000000           0.000000000000           4.124622202307

     Multipole analysis of the density
     ---------------------------------

     L   x y z        total         alpha         beta         nuclear
     -   - - -        -----         -----         ----         -------
     0   0 0 0     -0.000000     -5.000000     -5.000000     10.000000

     1   1 0 0     -0.000000     -0.000000     -0.000000      0.000000
     1   0 1 0      0.000000      0.000000      0.000000      0.000000
     1   0 0 1     -0.786648     -0.393324     -0.393324      0.000000

     2   2 0 0     -3.181818     -3.637208     -3.637208      4.092598
     2   1 1 0     -0.000000     -0.000000     -0.000000      0.000000
     2   1 0 1      0.000000      0.000000      0.000000      0.000000
     2   0 2 0     -5.642919     -2.821460     -2.821460      0.000000
     2   0 1 1      0.000000      0.000000      0.000000      0.000000
     2   0 0 2     -4.656607     -3.310494     -3.310494      1.964381


 Parallel integral file used       4 records with       0 large values


 Task  times  cpu:        0.0s     wall:        0.1s


                                NWChem Input Module
                                -------------------


 Summary of allocated global arrays
-----------------------------------
  No active global arrays



                         GA Statistics for process    0
                         ------------------------------

       create   destroy   get      put      acc     scatter   gather  read&inc
calls:  227      227     2123     1118      308        0        0      201     
number of processes/call 1.64e+00 1.40e+00 2.15e+00 0.00e+00 0.00e+00
bytes total:             4.35e+06 1.08e+06 2.06e+06 0.00e+00 0.00e+00 1.61e+03
bytes remote:            2.58e+06 3.68e+05 1.06e+06 0.00e+00 0.00e+00 0.00e+00
Max memory consumed for GA by this process: 180344 bytes

MA_summarize_allocated_blocks: starting scan ...
MA_summarize_allocated_blocks: scan completed: 0 heap blocks, 0 stack blocks
MA usage statistics:

	allocation statistics:
					      heap	     stack
					      ----	     -----
	current number of blocks	         0	         0
	maximum number of blocks	        22	        57
	current total bytes		         0	         0
	maximum total bytes		   1556544	  22511576
	maximum total K-bytes		      1557	     22512
	maximum total M-bytes		         2	        23


                                     CITATION
                                     --------
                Please cite the following reference when publishing
                           results obtained with NWChem:

                 M. Valiev, E.J. Bylaska, N. Govind, K. Kowalski,
              T.P. Straatsma, H.J.J. van Dam, D. Wang, J. Nieplocha,
                        E. Apra, T.L. Windus, W.A. de Jong
                 "NWChem: a comprehensive and scalable open-source
                  solution for large scale molecular simulations"
                      Comput. Phys. Commun. 181, 1477 (2010)
                           doi:10.1016/j.cpc.2010.04.018

                                      AUTHORS
                                      -------
          E. Apra, E. J. Bylaska, W. A. de Jong, N. Govind, K. Kowalski,
       T. P. Straatsma, M. Valiev, H. J. J. van Dam, D. Wang, T. L. Windus,
        J. Hammond, J. Autschbach, K. Bhaskaran-Nair, J. Brabec, K. Lopata,
    S. A. Fischer, S. Krishnamoorthy, M. Jacquelin, W. Ma, M. Klemm, O. Villa,
      Y. Chen, V. Anisimov, F. Aquino, S. Hirata, M. T. Hackler, V. Konjkov,
            D. Mejia-Rodriguez, T. Risthaus, M. Malagoli, A. Marenich,
   A. Otero-de-la-Roza, J. Mullin, P. Nichols, R. Peverati, J. Pittner, Y. Zhao,
        P.-D. Fan, A. Fonari, M. J. Williamson, R. J. Harrison, J. R. Rehr,
      M. Dupuis, D. Silverstein, D. M. A. Smith, J. Nieplocha, V. Tipparaju,
    M. Krishnan, B. E. Van Kuiken, A. Vazquez-Mayagoitia, L. Jensen, M. Swart,
      Q. Wu, T. Van Voorhis, A. A. Auer, M. Nooijen, L. D. Crosby, E. Brown,
      G. Cisneros, G. I. Fann, H. Fruchtl, J. Garza, K. Hirao, R. A. Kendall,
      J. A. Nichols, K. Tsemekhman, K. Wolinski, J. Anchell, D. E. Bernholdt,
      P. Borowski, T. Clark, D. Clerc, H. Dachsel, M. J. O. Deegan, K. Dyall,
    D. Elwood, E. Glendening, M. Gutowski, A. C. Hess, J. Jaffe, B. G. Johnson,
     J. Ju, R. Kobayashi, R. Kutteh, Z. Lin, R. Littlefield, X. Long, B. Meng,
      T. Nakajima, S. Niu, L. Pollack, M. Rosing, K. Glaesemann, G. Sandrone,
      M. Stave, H. Taylor, G. Thomas, J. H. van Lenthe, A. T. Wong, Z. Zhang.

 Total times  cpu:        0.2s     wall:        0.3s
[0] ARMCI Warning: Freed 1 leaked allocations
