 argument  1 = /home/list1234/source/nwchem-6.8.1-release/QA/tests/h2o-lcpbe/h2o-lcpbe.nw



============================== echo of input deck ==============================
echo
start  h2o-lcpbe

geometry units angstrom
O      0.00000000     0.00000000     0.11726921
H      0.75698224     0.00000000    -0.46907685
H     -0.75698224     0.00000000    -0.46907685
end

basis spherical
  * library aug-cc-pvdz
end

set int:cando_txs f

dft
  xc xcampbe96 1.0 cpbe96 1.0 HFexch 1.0
  cam 0.30 cam_alpha 0.0 cam_beta 1.0
  iterations 100
  direct
end
task dft energy
================================================================================


                                         
                                         


              Northwest Computational Chemistry Package (NWChem) 6.8
              ------------------------------------------------------


                    Environmental Molecular Sciences Laboratory
                       Pacific Northwest National Laboratory
                                Richland, WA 99352

                              Copyright (c) 1994-2018
                       Pacific Northwest National Laboratory
                            Battelle Memorial Institute

             NWChem is an open-source computational chemistry package
                        distributed under the terms of the
                      Educational Community License (ECL) 2.0
             A copy of the license is included with this distribution
                              in the LICENSE.TXT file

                                  ACKNOWLEDGMENT
                                  --------------

            This software and its documentation were developed at the
            EMSL at Pacific Northwest National Laboratory, a multiprogram
            national laboratory, operated for the U.S. Department of Energy
            by Battelle under Contract Number DE-AC05-76RL01830. Support
            for this work was provided by the Department of Energy Office
            of Biological and Environmental Research, Office of Basic
            Energy Sciences, and the Office of Advanced Scientific Computing.


           Job information
           ---------------

    hostname        = list1234-B360M-H
    program         = /home/list1234/source/nwchem-6.8.1-release/bin/LINUX64/nwchem
    date            = Sun Jun 30 13:51:55 2019

    compiled        = Sun_Jun_30_11:55:59_2019
    source          = /home/list1234/source/nwchem-6.8.1-release
    nwchem branch   = Development
    nwchem revision = N/A
    ga revision     = 5.6.5
    use scalapack   = T
    input           = /home/list1234/source/nwchem-6.8.1-release/QA/tests/h2o-lcpbe/h2o-lcpbe.nw
    prefix          = h2o-lcpbe.
    data base       = ./h2o-lcpbe.db
    status          = startup
    nproc           =        4
    time left       =     -1s



           Memory information
           ------------------

    heap     =   86247162 doubles =    658.0 Mbytes
    stack    =   86247167 doubles =    658.0 Mbytes
    global   =  172494336 doubles =   1316.0 Mbytes (distinct from heap & stack)
    total    =  344988665 doubles =   2632.1 Mbytes
    verify   = yes
    hardfail = no 


           Directory information
           ---------------------

  0 permanent = .
  0 scratch   = .




                                NWChem Input Module
                                -------------------



 Scaling coordinates for geometry "geometry" by  1.889725989
 (inverse scale =  0.529177249)

 C2V symmetry detected

          ------
          auto-z
          ------
  no constraints, skipping    0.0000000000000000     
  no constraints, skipping    0.0000000000000000     


                             Geometry "geometry" -> ""
                             -------------------------

 Output coordinates in angstroms (scale by  1.889725989 to convert to a.u.)

  No.       Tag          Charge          X              Y              Z
 ---- ---------------- ---------- -------------- -------------- --------------
    1 O                    8.0000     0.00000000     0.00000000     0.11726921
    2 H                    1.0000     0.75698224     0.00000000    -0.46907685
    3 H                    1.0000    -0.75698224     0.00000000    -0.46907685

      Atomic Mass 
      ----------- 

      O                 15.994910
      H                  1.007825


 Effective nuclear repulsion energy (a.u.)       9.1920946687

            Nuclear Dipole moment (a.u.) 
            ----------------------------
        X                 Y               Z
 ---------------- ---------------- ----------------
     0.0000000000     0.0000000000     0.0000000000

      Symmetry information
      --------------------

 Group name             C2v       
 Group number             16
 Group order               4
 No. of unique centers     2

      Symmetry unique atoms

     1    2



                                Z-matrix (autoz)
                                -------- 

 Units are Angstrom for bonds and degrees for angles

      Type          Name      I     J     K     L     M      Value
      ----------- --------  ----- ----- ----- ----- ----- ----------
    1 Stretch                  1     2                       0.95751
    2 Stretch                  1     3                       0.95751
    3 Bend                     2     1     3               104.47845


            XYZ format geometry
            -------------------
     3
 geometry
 O                     0.00000000     0.00000000     0.11726921
 H                     0.75698224     0.00000000    -0.46907685
 H                    -0.75698224     0.00000000    -0.46907685

 ==============================================================================
                                internuclear distances
 ------------------------------------------------------------------------------
       center one      |      center two      | atomic units |  angstroms
 ------------------------------------------------------------------------------
    2 H                |   1 O                |     1.80943  |     0.95751
    3 H                |   1 O                |     1.80943  |     0.95751
 ------------------------------------------------------------------------------
                         number of included internuclear distances:          2
 ==============================================================================



 ==============================================================================
                                 internuclear angles
 ------------------------------------------------------------------------------
        center 1       |       center 2       |       center 3       |  degrees
 ------------------------------------------------------------------------------
    2 H                |   1 O                |   3 H                |   104.48
 ------------------------------------------------------------------------------
                            number of included internuclear angles:          1
 ==============================================================================





 Summary of "ao basis" -> "" (spherical)
 ------------------------------------------------------------------------------
       Tag                 Description            Shells   Functions and Types
 ---------------- ------------------------------  ------  ---------------------
 *                        aug-cc-pvdz                 on all atoms 


  pbe96 is a nonlocal functional; adding pw91lda local functional. 

                                 NWChem DFT Module
                                 -----------------


                      Basis "ao basis" -> "ao basis" (spherical)
                      -----
  O (Oxygen)
  ----------
            Exponent  Coefficients 
       -------------- ---------------------------------------------------------
  1 S  1.17200000E+04  0.000710
  1 S  1.75900000E+03  0.005470
  1 S  4.00800000E+02  0.027837
  1 S  1.13700000E+02  0.104800
  1 S  3.70300000E+01  0.283062
  1 S  1.32700000E+01  0.448719
  1 S  5.02500000E+00  0.270952
  1 S  1.01300000E+00  0.015458

  2 S  1.17200000E+04 -0.000160
  2 S  1.75900000E+03 -0.001263
  2 S  4.00800000E+02 -0.006267
  2 S  1.13700000E+02 -0.025716
  2 S  3.70300000E+01 -0.070924
  2 S  1.32700000E+01 -0.165411
  2 S  5.02500000E+00 -0.116955
  2 S  1.01300000E+00  0.557368

  3 S  3.02300000E-01  1.000000

  4 S  7.89600000E-02  1.000000

  5 P  1.77000000E+01  0.043018
  5 P  3.85400000E+00  0.228913
  5 P  1.04600000E+00  0.508728

  6 P  2.75300000E-01  1.000000

  7 P  6.85600000E-02  1.000000

  8 D  1.18500000E+00  1.000000

  9 D  3.32000000E-01  1.000000

  H (Hydrogen)
  ------------
            Exponent  Coefficients 
       -------------- ---------------------------------------------------------
  1 S  1.30100000E+01  0.019685
  1 S  1.96200000E+00  0.137977
  1 S  4.44600000E-01  0.478148

  2 S  1.22000000E-01  1.000000

  3 S  2.97400000E-02  1.000000

  4 P  7.27000000E-01  1.000000

  5 P  1.41000000E-01  1.000000



 Summary of "ao basis" -> "ao basis" (spherical)
 ------------------------------------------------------------------------------
       Tag                 Description            Shells   Functions and Types
 ---------------- ------------------------------  ------  ---------------------
 O                        aug-cc-pvdz                9       23   4s3p2d
 H                        aug-cc-pvdz                5        9   3s2p




 Summary of "ao basis" -> "ao basis" (spherical)
 ------------------------------------------------------------------------------
       Tag                 Description            Shells   Functions and Types
 ---------------- ------------------------------  ------  ---------------------
 O                        aug-cc-pvdz                9       23   4s3p2d
 H                        aug-cc-pvdz                5        9   3s2p


      Symmetry analysis of basis
      --------------------------

        a1         18
        a2          4
        b1         12
        b2          7

  int_init: cando_txs set to always be  F
  Caching 1-el integrals 

            General Information
            -------------------
          SCF calculation type: DFT
          Wavefunction type:  closed shell.
          No. of atoms     :     3
          No. of electrons :    10
           Alpha electrons :     5
            Beta electrons :     5
          Charge           :     0
          Spin multiplicity:     1
          Use of symmetry is: on ; symmetry adaption is: on 
          Maximum number of iterations: 100
          This is a Direct SCF calculation.
          AO basis - number of functions:    41
                     number of shells:    19
          Convergence on energy requested:  1.00D-06
          Convergence on density requested:  1.00D-05
          Convergence on gradient requested:  5.00D-04

              XC Information
              --------------
                     Hartree-Fock (Exact) Exchange  1.000          
                     CAM-PBE96 Exchange Functional  1.000          
            Perdew 1991 LDA Correlation Functional  1.000 local    
           PerdewBurkeErnz. Correlation Functional  1.000 non-local

           Range-Separation Parameters        
           ---------------------------
           Alpha           :  0.00
           Beta            :  1.00
           Gamma           :  0.30
           Short-Range HF  :     F

             Grid Information
             ----------------
          Grid used for XC integration:  medium    
          Radial quadrature: Mura-Knowles        
          Angular quadrature: Lebedev. 
          Tag              B.-S. Rad. Rad. Pts. Rad. Cut. Ang. Pts.
          ---              ---------- --------- --------- ---------
          O                   0.60       49           9.0       434
          H                   0.35       45          11.0       434
          Grid pruning is: on 
          Number of quadrature shells:    94
          Spatial weights used:  Erf1

          Convergence Information
          -----------------------
          Convergence aids based upon iterative change in 
          total energy or number of iterations. 
          Levelshifting, if invoked, occurs when the 
          HOMO/LUMO gap drops below (HL_TOL):  1.00D-02
          DIIS, if invoked, will attempt to extrapolate 
          using up to (NFOCK): 10 stored Fock matrices.

                    Damping( 0%)  Levelshifting(0.5)       DIIS
                  --------------- ------------------- ---------------
          dE  on:    start            ASAP                start   
          dE off:    2 iters        100 iters           100 iters 


      Screening Tolerance Information
      -------------------------------
          Density screening/tol_rho:  1.00D-10
          AO Gaussian exp screening on grid/accAOfunc:  14
          CD Gaussian exp screening on grid/accCDfunc:  20
          XC Gaussian exp screening on grid/accXCfunc:  20
          Schwarz screening/accCoul:  1.00D-08


      Superposition of Atomic Density Guess
      -------------------------------------

 Sum of atomic energies:         -75.76548395

      Non-variational initial energy
      ------------------------------

 Total energy =     -75.929554
 1-e energy   =    -121.647436
 2-e energy   =      36.525787
 HOMO         =      -0.482989
 LUMO         =       0.012026


      Symmetry analysis of molecular orbitals - initial
      -------------------------------------------------

  Numbering of irreducible representations: 

     1 a1          2 a2          3 b1          4 b2      

  Orbital symmetries:

     1 a1          2 a1          3 b1          4 a1          5 b2      
     6 a1          7 b1          8 a1          9 b2         10 a1      
    11 b1         12 b1         13 a1         14 a2         15 a1      

   Time after variat. SCF:      0.1
   Time prior to 1st pass:      0.1

 Grid_pts file          = ./h2o-lcpbe.gridpts.0
 Record size in doubles =  12289        No. of grid_pts per rec  =   3070
 Max. records in memory =      5        Max. recs in file   =    862023


           Memory utilization after 1st SCF pass: 
           Heap Space remaining (MW):       86.19            86185074
          Stack Space remaining (MW):       86.25            86246804

   convergence    iter        energy       DeltaE   RMS-Dens  Diis-err    time
 ---------------- ----- ----------------- --------- --------- ---------  ------
 d= 0,ls=0.0,diis     1    -76.2068179630 -8.54D+01  1.42D-02  4.08D-01     0.1
 d= 0,ls=0.0,diis     2    -76.2124742956 -5.66D-03  5.54D-03  4.01D-01     0.2
 d= 0,ls=0.0,diis     3    -76.2462523666 -3.38D-02  7.67D-04  5.03D-03     0.2
 d= 0,ls=0.0,diis     4    -76.2467330594 -4.81D-04  1.72D-04  9.20D-05     0.3
 d= 0,ls=0.0,diis     5    -76.2467451244 -1.21D-05  6.26D-05  3.15D-06     0.3
 d= 0,ls=0.0,diis     6    -76.2467460201 -8.96D-07  9.38D-06  5.02D-08     0.4


         Total DFT energy =      -76.246746020076
      One electron energy =     -122.879627393377
           Coulomb energy =       46.554192740428
    Exchange-Corr. energy =       -9.113406035783
 Nuclear repulsion energy =        9.192094668657

 Numeric. integr. density =        9.999999193968

     Total iterative time =      0.3s



                  Occupations of the irreducible representations
                  ----------------------------------------------

                     irrep           alpha         beta
                     --------     --------     --------
                     a1                3.0          3.0
                     a2                0.0          0.0
                     b1                1.0          1.0
                     b2                1.0          1.0


                       DFT Final Molecular Orbital Analysis
                       ------------------------------------

 Vector    1  Occ=2.000000D+00  E=-1.892918D+01  Symmetry=a1
              MO Center= -8.8D-20,  3.6D-22,  1.2D-01, r^2= 1.5D-02
   Bfn.  Coefficient  Atom+Function         Bfn.  Coefficient  Atom+Function  
  ----- ------------  ---------------      ----- ------------  ---------------
     1      1.005201  1 O  s          

 Vector    2  Occ=2.000000D+00  E=-1.102985D+00  Symmetry=a1
              MO Center=  2.6D-16,  7.6D-17, -8.7D-02, r^2= 5.1D-01
   Bfn.  Coefficient  Atom+Function         Bfn.  Coefficient  Atom+Function  
  ----- ------------  ---------------      ----- ------------  ---------------
     2      0.440215  1 O  s                  3      0.348619  1 O  s          
    24      0.214972  2 H  s                 33      0.214972  3 H  s          
     7     -0.116398  1 O  pz                 4      0.064250  1 O  s          
    27     -0.035913  2 H  px                36      0.035913  3 H  px         

 Vector    3  Occ=2.000000D+00  E=-6.329556D-01  Symmetry=b1
              MO Center= -2.2D-16,  1.5D-31, -9.1D-02, r^2= 7.7D-01
   Bfn.  Coefficient  Atom+Function         Bfn.  Coefficient  Atom+Function  
  ----- ------------  ---------------      ----- ------------  ---------------
     5      0.519152  1 O  px                24      0.355605  2 H  s          
    33     -0.355605  3 H  s                  8      0.152424  1 O  px         
    25      0.134091  2 H  s                 34     -0.134091  3 H  s          
    22     -0.039862  1 O  d  1              29      0.031026  2 H  pz         
    38     -0.031026  3 H  pz                17      0.025222  1 O  d  1       

 Vector    4  Occ=2.000000D+00  E=-4.903039D-01  Symmetry=a1
              MO Center= -3.5D-16,  2.8D-16,  1.9D-01, r^2= 7.4D-01
   Bfn.  Coefficient  Atom+Function         Bfn.  Coefficient  Atom+Function  
  ----- ------------  ---------------      ----- ------------  ---------------
     7      0.553210  1 O  pz                 3      0.331048  1 O  s          
    10      0.297497  1 O  pz                24     -0.201683  2 H  s          
    33     -0.201683  3 H  s                  2      0.167287  1 O  s          
     4      0.117856  1 O  s                 25     -0.073428  2 H  s          
    34     -0.073428  3 H  s                 13      0.049290  1 O  pz         

 Vector    5  Occ=2.000000D+00  E=-4.143323D-01  Symmetry=b2
              MO Center= -3.2D-16, -4.9D-16,  7.0D-02, r^2= 7.3D-01
   Bfn.  Coefficient  Atom+Function         Bfn.  Coefficient  Atom+Function  
  ----- ------------  ---------------      ----- ------------  ---------------
     6      0.630613  1 O  py                 9      0.418208  1 O  py         
    12      0.092152  1 O  py                31      0.028760  2 H  py         
    40      0.028760  3 H  py                28      0.028130  2 H  py         
    37      0.028130  3 H  py         

 Vector    6  Occ=0.000000D+00  E= 2.785102D-02  Symmetry=a1
              MO Center=  6.9D-17, -2.1D-16, -7.6D-01, r^2= 1.0D+01
   Bfn.  Coefficient  Atom+Function         Bfn.  Coefficient  Atom+Function  
  ----- ------------  ---------------      ----- ------------  ---------------
     4      1.363408  1 O  s                 26     -0.769058  2 H  s          
    35     -0.769058  3 H  s                 25     -0.476959  2 H  s          
    34     -0.476959  3 H  s                  3      0.265128  1 O  s          
    13     -0.184867  1 O  pz                10     -0.140453  1 O  pz         
     7     -0.095441  1 O  pz                 2      0.086763  1 O  s          

 Vector    7  Occ=0.000000D+00  E= 5.586926D-02  Symmetry=b1
              MO Center=  3.8D-16,  4.2D-32, -8.1D-01, r^2= 1.5D+01
   Bfn.  Coefficient  Atom+Function         Bfn.  Coefficient  Atom+Function  
  ----- ------------  ---------------      ----- ------------  ---------------
    26      2.899247  2 H  s                 35     -2.899247  3 H  s          
    11     -0.801726  1 O  px                25      0.567596  2 H  s          
    34     -0.567596  3 H  s                  8     -0.146511  1 O  px         
    32      0.120049  2 H  pz                41     -0.120049  3 H  pz         
     5     -0.097432  1 O  px                30     -0.093282  2 H  px         

 Vector    8  Occ=0.000000D+00  E= 1.569705D-01  Symmetry=a1
              MO Center=  1.7D-16,  3.9D-17,  2.6D-02, r^2= 8.8D+00
   Bfn.  Coefficient  Atom+Function         Bfn.  Coefficient  Atom+Function  
  ----- ------------  ---------------      ----- ------------  ---------------
     4      4.097683  1 O  s                 13     -1.580822  1 O  pz         
    25     -1.499701  2 H  s                 34     -1.499701  3 H  s          
    26     -0.778215  2 H  s                 35     -0.778215  3 H  s          
    30      0.365465  2 H  px                39     -0.365465  3 H  px         
     3      0.257362  1 O  s                  7      0.243002  1 O  pz         

 Vector    9  Occ=0.000000D+00  E= 1.862025D-01  Symmetry=b2
              MO Center=  1.1D-15,  2.6D-15,  3.5D-01, r^2= 6.2D+00
   Bfn.  Coefficient  Atom+Function         Bfn.  Coefficient  Atom+Function  
  ----- ------------  ---------------      ----- ------------  ---------------
    12      1.391239  1 O  py                31     -0.246945  2 H  py         
    40     -0.246945  3 H  py                 9     -0.243208  1 O  py         
     6     -0.222348  1 O  py                20     -0.050984  1 O  d -1       

 Vector   10  Occ=0.000000D+00  E= 1.967072D-01  Symmetry=a1
              MO Center=  4.7D-14,  1.8D-17,  1.3D-01, r^2= 6.9D+00
   Bfn.  Coefficient  Atom+Function         Bfn.  Coefficient  Atom+Function  
  ----- ------------  ---------------      ----- ------------  ---------------
     4      1.215276  1 O  s                 13      1.031219  1 O  pz         
    26     -0.487111  2 H  s                 35     -0.487111  3 H  s          
    32     -0.346572  2 H  pz                41     -0.346572  3 H  pz         
    30      0.282604  2 H  px                39     -0.282604  3 H  px         
    25      0.275158  2 H  s                 34      0.275158  3 H  s          

 Vector   11  Occ=0.000000D+00  E= 2.147157D-01  Symmetry=b1
              MO Center= -3.9D-14, -2.0D-28, -2.9D-01, r^2= 9.5D+00
   Bfn.  Coefficient  Atom+Function         Bfn.  Coefficient  Atom+Function  
  ----- ------------  ---------------      ----- ------------  ---------------
    26     -2.667276  2 H  s                 35      2.667276  3 H  s          
    11      2.544826  1 O  px                25     -1.969620  2 H  s          
    34      1.969620  3 H  s                 30      0.603204  2 H  px         
    39      0.603204  3 H  px                32     -0.584278  2 H  pz         
    41      0.584278  3 H  pz                 5     -0.294628  1 O  px         

 Vector   12  Occ=0.000000D+00  E= 2.499147D-01  Symmetry=b1
              MO Center= -4.6D-15,  2.8D-30,  1.2D-01, r^2= 4.7D+00
   Bfn.  Coefficient  Atom+Function         Bfn.  Coefficient  Atom+Function  
  ----- ------------  ---------------      ----- ------------  ---------------
    11      1.839536  1 O  px                25     -1.837388  2 H  s          
    34      1.837388  3 H  s                 26     -0.580054  2 H  s          
    35      0.580054  3 H  s                  8      0.359388  1 O  px         
    32      0.210462  2 H  pz                41     -0.210462  3 H  pz         
    24     -0.206650  2 H  s                 33      0.206650  3 H  s          

 Vector   13  Occ=0.000000D+00  E= 3.020610D-01  Symmetry=a1
              MO Center= -1.4D-15, -2.0D-15, -1.4D-01, r^2= 4.6D+00
   Bfn.  Coefficient  Atom+Function         Bfn.  Coefficient  Atom+Function  
  ----- ------------  ---------------      ----- ------------  ---------------
     4      4.652125  1 O  s                 25     -2.375399  2 H  s          
    34     -2.375399  3 H  s                 13     -0.628022  1 O  pz         
    32     -0.479501  2 H  pz                41     -0.479501  3 H  pz         
    26     -0.331809  2 H  s                 35     -0.331809  3 H  s          
    30     -0.294150  2 H  px                39      0.294150  3 H  px         

 Vector   14  Occ=0.000000D+00  E= 3.578615D-01  Symmetry=a2
              MO Center= -1.5D-15,  5.1D-29, -5.1D-01, r^2= 3.9D+00
   Bfn.  Coefficient  Atom+Function         Bfn.  Coefficient  Atom+Function  
  ----- ------------  ---------------      ----- ------------  ---------------
    31      1.108656  2 H  py                40     -1.108656  3 H  py         
    19     -0.089550  1 O  d -2              14      0.036862  1 O  d -2       

 Vector   15  Occ=0.000000D+00  E= 3.673455D-01  Symmetry=a1
              MO Center=  1.1D-14, -6.6D-16, -1.8D-01, r^2= 4.7D+00
   Bfn.  Coefficient  Atom+Function         Bfn.  Coefficient  Atom+Function  
  ----- ------------  ---------------      ----- ------------  ---------------
     4      4.500704  1 O  s                 25     -2.325217  2 H  s          
    34     -2.325217  3 H  s                 13     -1.840169  1 O  pz         
    10     -0.720402  1 O  pz                32      0.633349  2 H  pz         
    41      0.633349  3 H  pz                30      0.419547  2 H  px         
    39     -0.419547  3 H  px                26     -0.332758  2 H  s          

 Vector   16  Occ=0.000000D+00  E= 3.990021D-01  Symmetry=b2
              MO Center=  2.1D-15, -3.8D-16, -4.0D-01, r^2= 4.1D+00
   Bfn.  Coefficient  Atom+Function         Bfn.  Coefficient  Atom+Function  
  ----- ------------  ---------------      ----- ------------  ---------------
    12      1.192180  1 O  py                31     -1.169358  2 H  py         
    40     -1.169358  3 H  py                 9      0.601125  1 O  py         
     6      0.184241  1 O  py                20     -0.036206  1 O  d -1       

 Vector   17  Occ=0.000000D+00  E= 5.147719D-01  Symmetry=b1
              MO Center=  9.1D-15, -2.0D-16, -3.9D-01, r^2= 5.2D+00
   Bfn.  Coefficient  Atom+Function         Bfn.  Coefficient  Atom+Function  
  ----- ------------  ---------------      ----- ------------  ---------------
    11      2.205481  1 O  px                30     -1.971005  2 H  px         
    39     -1.971005  3 H  px                32     -1.203547  2 H  pz         
    41      1.203547  3 H  pz                26     -0.959904  2 H  s          
    35      0.959904  3 H  s                 25      0.648615  2 H  s          
    34     -0.648615  3 H  s                  8      0.262679  1 O  px         

 Vector   18  Occ=0.000000D+00  E= 5.780278D-01  Symmetry=a1
              MO Center= -4.2D-13,  4.2D-16, -6.1D-01, r^2= 4.7D+00
   Bfn.  Coefficient  Atom+Function         Bfn.  Coefficient  Atom+Function  
  ----- ------------  ---------------      ----- ------------  ---------------
     4      5.216382  1 O  s                 25     -2.924506  2 H  s          
    34     -2.924506  3 H  s                  3      2.543397  1 O  s          
    30      1.294158  2 H  px                39     -1.294158  3 H  px         
    32     -1.156136  2 H  pz                41     -1.156136  3 H  pz         
    26     -0.559439  2 H  s                 35     -0.559439  3 H  s          

 Vector   19  Occ=0.000000D+00  E= 6.000712D-01  Symmetry=b1
              MO Center=  4.2D-13, -9.9D-17, -4.0D-01, r^2= 5.0D+00
   Bfn.  Coefficient  Atom+Function         Bfn.  Coefficient  Atom+Function  
  ----- ------------  ---------------      ----- ------------  ---------------
    25      7.318137  2 H  s                 34     -7.318137  3 H  s          
    30     -3.188846  2 H  px                39     -3.188846  3 H  px         
    11     -1.892795  1 O  px                32      1.492686  2 H  pz         
    41     -1.492686  3 H  pz                 8     -1.438740  1 O  px         
    26      1.327022  2 H  s                 35     -1.327022  3 H  s          

 Vector   20  Occ=0.000000D+00  E= 7.083259D-01  Symmetry=b1
              MO Center= -4.5D-15, -1.5D-16, -1.4D-01, r^2= 3.3D+00
   Bfn.  Coefficient  Atom+Function         Bfn.  Coefficient  Atom+Function  
  ----- ------------  ---------------      ----- ------------  ---------------
    25      4.893808  2 H  s                 34     -4.893808  3 H  s          
    11     -1.813385  1 O  px                30     -1.211020  2 H  px         
    39     -1.211020  3 H  px                 8     -0.764198  1 O  px         
    22     -0.652658  1 O  d  1              26      0.507699  2 H  s          
    35     -0.507699  3 H  s                 24     -0.438858  2 H  s          

 Vector   21  Occ=0.000000D+00  E= 8.238326D-01  Symmetry=a1
              MO Center=  2.2D-15,  2.9D-15, -2.6D-01, r^2= 2.9D+00
   Bfn.  Coefficient  Atom+Function         Bfn.  Coefficient  Atom+Function  
  ----- ------------  ---------------      ----- ------------  ---------------
     4      5.426678  1 O  s                 25     -3.664816  2 H  s          
    34     -3.664816  3 H  s                 13     -1.336585  1 O  pz         
     3      1.179443  1 O  s                 23      0.690355  1 O  d  2       
    24      0.541909  2 H  s                 33      0.541909  3 H  s          
    32     -0.390547  2 H  pz                41     -0.390547  3 H  pz         

 Vector   22  Occ=0.000000D+00  E= 9.876246D-01  Symmetry=b2
              MO Center= -1.2D-14,  4.4D-15,  4.1D-01, r^2= 2.0D+00
   Bfn.  Coefficient  Atom+Function         Bfn.  Coefficient  Atom+Function  
  ----- ------------  ---------------      ----- ------------  ---------------
    20      1.087120  1 O  d -1              12     -0.762610  1 O  py         
    31      0.577298  2 H  py                40      0.577298  3 H  py         
     6     -0.247493  1 O  py                 9      0.059139  1 O  py         

 Vector   23  Occ=0.000000D+00  E= 9.993283D-01  Symmetry=a1
              MO Center= -7.4D-15, -1.4D-15,  4.0D-01, r^2= 2.0D+00
   Bfn.  Coefficient  Atom+Function         Bfn.  Coefficient  Atom+Function  
  ----- ------------  ---------------      ----- ------------  ---------------
    21     -1.105914  1 O  d  0               4      1.036297  1 O  s          
    25     -0.727662  2 H  s                 34     -0.727662  3 H  s          
    32     -0.701110  2 H  pz                41     -0.701110  3 H  pz         
     3      0.614998  1 O  s                 13      0.511321  1 O  pz         
     7      0.162776  1 O  pz                10     -0.160474  1 O  pz         

 Vector   24  Occ=0.000000D+00  E= 1.035234D+00  Symmetry=a2
              MO Center=  1.4D-14,  1.1D-15, -2.5D-02, r^2= 2.1D+00
   Bfn.  Coefficient  Atom+Function         Bfn.  Coefficient  Atom+Function  
  ----- ------------  ---------------      ----- ------------  ---------------
    19      1.216849  1 O  d -2              31     -0.778468  2 H  py         
    40      0.778468  3 H  py                28      0.047898  2 H  py         
    37     -0.047898  3 H  py         

 Vector   25  Occ=0.000000D+00  E= 1.148797D+00  Symmetry=a1
              MO Center=  3.4D-15,  2.2D-16, -1.5D-01, r^2= 2.1D+00
   Bfn.  Coefficient  Atom+Function         Bfn.  Coefficient  Atom+Function  
  ----- ------------  ---------------      ----- ------------  ---------------
     4      3.608711  1 O  s                 25     -2.579590  2 H  s          
    34     -2.579590  3 H  s                  3      1.535600  1 O  s          
    10     -1.301106  1 O  pz                13     -0.798741  1 O  pz         
    23     -0.742547  1 O  d  2              30      0.731188  2 H  px         
    39     -0.731188  3 H  px                 7      0.590733  1 O  pz         

 Vector   26  Occ=0.000000D+00  E= 1.271922D+00  Symmetry=b2
              MO Center= -8.4D-15, -6.6D-15, -2.1D-01, r^2= 1.6D+00
   Bfn.  Coefficient  Atom+Function         Bfn.  Coefficient  Atom+Function  
  ----- ------------  ---------------      ----- ------------  ---------------
     9      1.633379  1 O  py                 6     -0.952991  1 O  py         
    31     -0.635514  2 H  py                40     -0.635514  3 H  py         
    20     -0.451510  1 O  d -1              12      0.179200  1 O  py         

 Vector   27  Occ=0.000000D+00  E= 1.304661D+00  Symmetry=b1
              MO Center= -3.6D-15, -9.8D-16,  2.7D-01, r^2= 2.1D+00
   Bfn.  Coefficient  Atom+Function         Bfn.  Coefficient  Atom+Function  
  ----- ------------  ---------------      ----- ------------  ---------------
    25      4.830726  2 H  s                 34     -4.830726  3 H  s          
     8     -2.079632  1 O  px                30     -1.370070  2 H  px         
    39     -1.370070  3 H  px                32      1.188162  2 H  pz         
    41     -1.188162  3 H  pz                11     -1.172498  1 O  px         
    22      0.767836  1 O  d  1               5      0.610627  1 O  px         

 Vector   28  Occ=0.000000D+00  E= 1.395428D+00  Symmetry=a1
              MO Center= -1.4D-14,  6.0D-16,  2.4D-01, r^2= 1.7D+00
   Bfn.  Coefficient  Atom+Function         Bfn.  Coefficient  Atom+Function  
  ----- ------------  ---------------      ----- ------------  ---------------
    10      1.541780  1 O  pz                 4     -1.336078  1 O  s          
    24      0.891547  2 H  s                 33      0.891547  3 H  s          
    23     -0.826140  1 O  d  2               7     -0.642019  1 O  pz         
     2     -0.519125  1 O  s                  3      0.485806  1 O  s          
    32     -0.267919  2 H  pz                41     -0.267919  3 H  pz         

 Vector   29  Occ=0.000000D+00  E= 1.819265D+00  Symmetry=b1
              MO Center=  1.9D-14, -2.3D-16, -3.0D-01, r^2= 1.7D+00
   Bfn.  Coefficient  Atom+Function         Bfn.  Coefficient  Atom+Function  
  ----- ------------  ---------------      ----- ------------  ---------------
    11      1.033222  1 O  px                 8      0.758685  1 O  px         
    25     -0.759973  2 H  s                 34      0.759973  3 H  s          
    22      0.671317  1 O  d  1              29      0.665171  2 H  pz         
    38     -0.665171  3 H  pz                32     -0.649696  2 H  pz         
    41      0.649696  3 H  pz                27      0.486823  2 H  px         

 Vector   30  Occ=0.000000D+00  E= 1.838802D+00  Symmetry=a2
              MO Center=  7.1D-14,  3.6D-16, -2.6D-01, r^2= 1.5D+00
   Bfn.  Coefficient  Atom+Function         Bfn.  Coefficient  Atom+Function  
  ----- ------------  ---------------      ----- ------------  ---------------
    28     -0.947677  2 H  py                37      0.947677  3 H  py         
    19      0.882589  1 O  d -2              31      0.087817  2 H  py         
    40     -0.087817  3 H  py                14     -0.070864  1 O  d -2       

 Vector   31  Occ=0.000000D+00  E= 1.932108D+00  Symmetry=b2
              MO Center= -6.5D-14,  2.4D-17, -4.1D-01, r^2= 1.4D+00
   Bfn.  Coefficient  Atom+Function         Bfn.  Coefficient  Atom+Function  
  ----- ------------  ---------------      ----- ------------  ---------------
    28      0.993621  2 H  py                37      0.993621  3 H  py         
     9     -0.790027  1 O  py                20      0.704690  1 O  d -1       
    12      0.173052  1 O  py                31     -0.084486  2 H  py         
    40     -0.084486  3 H  py                15     -0.061287  1 O  d -1       

 Vector   32  Occ=0.000000D+00  E= 2.196601D+00  Symmetry=a1
              MO Center= -1.0D-14,  6.7D-17, -2.1D-01, r^2= 1.6D+00
   Bfn.  Coefficient  Atom+Function         Bfn.  Coefficient  Atom+Function  
  ----- ------------  ---------------      ----- ------------  ---------------
     3      1.772491  1 O  s                  4      1.342386  1 O  s          
    21     -1.288857  1 O  d  0              25     -1.080988  2 H  s          
    34     -1.080988  3 H  s                 29     -0.951951  2 H  pz         
    38     -0.951951  3 H  pz                23      0.740688  1 O  d  2       
     2     -0.677406  1 O  s                 27     -0.643641  2 H  px         

 Vector   33  Occ=0.000000D+00  E= 2.220086D+00  Symmetry=b1
              MO Center= -1.8D-14,  1.6D-16, -3.6D-01, r^2= 1.4D+00
   Bfn.  Coefficient  Atom+Function         Bfn.  Coefficient  Atom+Function  
  ----- ------------  ---------------      ----- ------------  ---------------
    25      2.521206  2 H  s                 34     -2.521206  3 H  s          
     8     -1.864650  1 O  px                30     -1.198430  2 H  px         
    39     -1.198430  3 H  px                 5      0.908282  1 O  px         
    27      0.717189  2 H  px                36      0.717189  3 H  px         
    24      0.632134  2 H  s                 33     -0.632134  3 H  s          

 Vector   34  Occ=0.000000D+00  E= 2.364351D+00  Symmetry=a1
              MO Center=  9.4D-15,  1.2D-17, -3.9D-01, r^2= 1.4D+00
   Bfn.  Coefficient  Atom+Function         Bfn.  Coefficient  Atom+Function  
  ----- ------------  ---------------      ----- ------------  ---------------
     3      2.061335  1 O  s                  2     -1.619512  1 O  s          
     4      1.393791  1 O  s                 25     -0.999082  2 H  s          
    34     -0.999082  3 H  s                  1     -0.720752  1 O  s          
    29      0.597111  2 H  pz                38      0.597111  3 H  pz         
    30      0.588033  2 H  px                39     -0.588033  3 H  px         

 Vector   35  Occ=0.000000D+00  E= 2.488431D+00  Symmetry=b1
              MO Center=  1.3D-15,  2.9D-17, -2.2D-01, r^2= 1.6D+00
   Bfn.  Coefficient  Atom+Function         Bfn.  Coefficient  Atom+Function  
  ----- ------------  ---------------      ----- ------------  ---------------
    25      4.470411  2 H  s                 34     -4.470411  3 H  s          
     8     -3.800370  1 O  px                24      2.183581  2 H  s          
    33     -2.183581  3 H  s                 22     -1.973222  1 O  d  1       
    30     -1.317734  2 H  px                39     -1.317734  3 H  px         
    11     -1.193566  1 O  px                29      0.625468  2 H  pz         

 Vector   36  Occ=0.000000D+00  E= 2.728508D+00  Symmetry=a1
              MO Center=  4.3D-15,  4.3D-17, -1.4D-01, r^2= 1.7D+00
   Bfn.  Coefficient  Atom+Function         Bfn.  Coefficient  Atom+Function  
  ----- ------------  ---------------      ----- ------------  ---------------
     3      5.690900  1 O  s                  4      4.432200  1 O  s          
    25     -3.211894  2 H  s                 34     -3.211894  3 H  s          
    10     -2.378580  1 O  pz                24     -1.678735  2 H  s          
    33     -1.678735  3 H  s                  2     -1.378413  1 O  s          
    27      0.908459  2 H  px                36     -0.908459  3 H  px         

 Vector   37  Occ=0.000000D+00  E= 3.352157D+00  Symmetry=b2
              MO Center=  9.8D-16,  5.1D-17,  1.3D-01, r^2= 7.4D-01
   Bfn.  Coefficient  Atom+Function         Bfn.  Coefficient  Atom+Function  
  ----- ------------  ---------------      ----- ------------  ---------------
    15      1.193643  1 O  d -1              20     -0.682190  1 O  d -1       
    12      0.319074  1 O  py                31     -0.309452  2 H  py         
    40     -0.309452  3 H  py                 9      0.166333  1 O  py         
    28      0.108434  2 H  py                37      0.108434  3 H  py         
     6     -0.045793  1 O  py         

 Vector   38  Occ=0.000000D+00  E= 3.364069D+00  Symmetry=a1
              MO Center= -2.3D-16, -3.4D-19,  1.3D-01, r^2= 7.6D-01
   Bfn.  Coefficient  Atom+Function         Bfn.  Coefficient  Atom+Function  
  ----- ------------  ---------------      ----- ------------  ---------------
    16      1.193489  1 O  d  0               3      0.629733  1 O  s          
    21     -0.628643  1 O  d  0              32     -0.321898  2 H  pz         
    41     -0.321898  3 H  pz                 4      0.258094  1 O  s          
    13      0.244669  1 O  pz                25     -0.216469  2 H  s          
    34     -0.216469  3 H  s                  2     -0.185338  1 O  s          

 Vector   39  Occ=0.000000D+00  E= 3.377789D+00  Symmetry=a2
              MO Center= -1.3D-15,  4.3D-17,  8.0D-02, r^2= 7.5D-01
   Bfn.  Coefficient  Atom+Function         Bfn.  Coefficient  Atom+Function  
  ----- ------------  ---------------      ----- ------------  ---------------
    14      1.206308  1 O  d -2              19     -0.710743  1 O  d -2       
    31      0.335881  2 H  py                40     -0.335881  3 H  py         
    28     -0.130060  2 H  py                37      0.130060  3 H  py         

 Vector   40  Occ=0.000000D+00  E= 3.690135D+00  Symmetry=a1
              MO Center=  1.3D-14,  6.6D-18, -1.1D-03, r^2= 8.7D-01
   Bfn.  Coefficient  Atom+Function         Bfn.  Coefficient  Atom+Function  
  ----- ------------  ---------------      ----- ------------  ---------------
     3      3.628087  1 O  s                  4      1.692491  1 O  s          
    10     -1.475956  1 O  pz                25     -1.372985  2 H  s          
    34     -1.372985  3 H  s                 24     -1.295206  2 H  s          
    33     -1.295206  3 H  s                 18      1.211719  1 O  d  2       
    27      0.717553  2 H  px                36     -0.717553  3 H  px         

 Vector   41  Occ=0.000000D+00  E= 3.954142D+00  Symmetry=b1
              MO Center= -1.5D-14, -3.4D-18,  3.7D-02, r^2= 8.8D-01
   Bfn.  Coefficient  Atom+Function         Bfn.  Coefficient  Atom+Function  
  ----- ------------  ---------------      ----- ------------  ---------------
    25     -2.543291  2 H  s                 34      2.543291  3 H  s          
     8      2.485122  1 O  px                24     -1.540807  2 H  s          
    33      1.540807  3 H  s                 17      1.328041  1 O  d  1       
    30      0.706623  2 H  px                39      0.706623  3 H  px         
    27      0.680668  2 H  px                36      0.680668  3 H  px         


 center of mass
 --------------
 x =   0.00000000 y =   0.00000000 z =   0.09760123

 moments of inertia (a.u.)
 ------------------
           2.197735387303           0.000000000000           0.000000000000
           0.000000000000           6.322357589609           0.000000000000
           0.000000000000           0.000000000000           4.124622202307

     Multipole analysis of the density
     ---------------------------------

     L   x y z        total         alpha         beta         nuclear
     -   - - -        -----         -----         ----         -------
     0   0 0 0     -0.000000     -5.000000     -5.000000     10.000000

     1   1 0 0     -0.000000     -0.000000     -0.000000      0.000000
     1   0 1 0     -0.000000     -0.000000     -0.000000      0.000000
     1   0 0 1     -0.743141     -0.371570     -0.371570      0.000000

     2   2 0 0     -3.391042     -3.741820     -3.741820      4.092598
     2   1 1 0     -0.000000     -0.000000     -0.000000      0.000000
     2   1 0 1      0.000000      0.000000      0.000000      0.000000
     2   0 2 0     -5.862402     -2.931201     -2.931201      0.000000
     2   0 1 1     -0.000000     -0.000000     -0.000000      0.000000
     2   0 0 2     -4.864845     -3.414613     -3.414613      1.964381


 Task  times  cpu:        0.4s     wall:        0.4s


                                NWChem Input Module
                                -------------------


 Summary of allocated global arrays
-----------------------------------
  No active global arrays



                         GA Statistics for process    0
                         ------------------------------

       create   destroy   get      put      acc     scatter   gather  read&inc
calls:  217      217     1785      812      435        0        0      438     
number of processes/call 1.55e+00 1.37e+00 1.68e+00 0.00e+00 0.00e+00
bytes total:             4.09e+06 1.07e+06 1.94e+06 0.00e+00 0.00e+00 3.50e+03
bytes remote:            2.33e+06 3.98e+05 1.00e+06 0.00e+00 0.00e+00 0.00e+00
Max memory consumed for GA by this process: 180344 bytes

MA_summarize_allocated_blocks: starting scan ...
MA_summarize_allocated_blocks: scan completed: 0 heap blocks, 0 stack blocks
MA usage statistics:

	allocation statistics:
					      heap	     stack
					      ----	     -----
	current number of blocks	         0	         0
	maximum number of blocks	        18	        57
	current total bytes		         0	         0
	maximum total bytes		    496704	  22511576
	maximum total K-bytes		       497	     22512
	maximum total M-bytes		         1	        23


                                     CITATION
                                     --------
                Please cite the following reference when publishing
                           results obtained with NWChem:

                 M. Valiev, E.J. Bylaska, N. Govind, K. Kowalski,
              T.P. Straatsma, H.J.J. van Dam, D. Wang, J. Nieplocha,
                        E. Apra, T.L. Windus, W.A. de Jong
                 "NWChem: a comprehensive and scalable open-source
                  solution for large scale molecular simulations"
                      Comput. Phys. Commun. 181, 1477 (2010)
                           doi:10.1016/j.cpc.2010.04.018

                                      AUTHORS
                                      -------
          E. Apra, E. J. Bylaska, W. A. de Jong, N. Govind, K. Kowalski,
       T. P. Straatsma, M. Valiev, H. J. J. van Dam, D. Wang, T. L. Windus,
        J. Hammond, J. Autschbach, K. Bhaskaran-Nair, J. Brabec, K. Lopata,
    S. A. Fischer, S. Krishnamoorthy, M. Jacquelin, W. Ma, M. Klemm, O. Villa,
      Y. Chen, V. Anisimov, F. Aquino, S. Hirata, M. T. Hackler, V. Konjkov,
            D. Mejia-Rodriguez, T. Risthaus, M. Malagoli, A. Marenich,
   A. Otero-de-la-Roza, J. Mullin, P. Nichols, R. Peverati, J. Pittner, Y. Zhao,
        P.-D. Fan, A. Fonari, M. J. Williamson, R. J. Harrison, J. R. Rehr,
      M. Dupuis, D. Silverstein, D. M. A. Smith, J. Nieplocha, V. Tipparaju,
    M. Krishnan, B. E. Van Kuiken, A. Vazquez-Mayagoitia, L. Jensen, M. Swart,
      Q. Wu, T. Van Voorhis, A. A. Auer, M. Nooijen, L. D. Crosby, E. Brown,
      G. Cisneros, G. I. Fann, H. Fruchtl, J. Garza, K. Hirao, R. A. Kendall,
      J. A. Nichols, K. Tsemekhman, K. Wolinski, J. Anchell, D. E. Bernholdt,
      P. Borowski, T. Clark, D. Clerc, H. Dachsel, M. J. O. Deegan, K. Dyall,
    D. Elwood, E. Glendening, M. Gutowski, A. C. Hess, J. Jaffe, B. G. Johnson,
     J. Ju, R. Kobayashi, R. Kutteh, Z. Lin, R. Littlefield, X. Long, B. Meng,
      T. Nakajima, S. Niu, L. Pollack, M. Rosing, K. Glaesemann, G. Sandrone,
      M. Stave, H. Taylor, G. Thomas, J. H. van Lenthe, A. T. Wong, Z. Zhang.

 Total times  cpu:        0.4s     wall:        0.4s
[0] ARMCI Warning: Freed 1 leaked allocations
