 argument  1 = /home/list1234/source/nwchem-6.8.1-release/QA/tests/h2o_diag_to_cg/h2o_diag_to_cg.nw



============================== echo of input deck ==============================
echo
start h2o_diag_to_cg_dat

geometry units au
 O 0       0        0
 H 0       1.430   -1.107
 H 0      -1.430   -1.107
end


basis
  O library 6-31g*
  H library 6-31g*
end

dft
  iterations 2
  convergence nr 0.0
end

task dft ignore

dft
  cgmin
  iterations 15
  convergence nr 0.0
end

task dft
================================================================================


                                         
                                         


              Northwest Computational Chemistry Package (NWChem) 6.8
              ------------------------------------------------------


                    Environmental Molecular Sciences Laboratory
                       Pacific Northwest National Laboratory
                                Richland, WA 99352

                              Copyright (c) 1994-2018
                       Pacific Northwest National Laboratory
                            Battelle Memorial Institute

             NWChem is an open-source computational chemistry package
                        distributed under the terms of the
                      Educational Community License (ECL) 2.0
             A copy of the license is included with this distribution
                              in the LICENSE.TXT file

                                  ACKNOWLEDGMENT
                                  --------------

            This software and its documentation were developed at the
            EMSL at Pacific Northwest National Laboratory, a multiprogram
            national laboratory, operated for the U.S. Department of Energy
            by Battelle under Contract Number DE-AC05-76RL01830. Support
            for this work was provided by the Department of Energy Office
            of Biological and Environmental Research, Office of Basic
            Energy Sciences, and the Office of Advanced Scientific Computing.


           Job information
           ---------------

    hostname        = list1234-B360M-H
    program         = /home/list1234/source/nwchem-6.8.1-release/bin/LINUX64/nwchem
    date            = Sun Jun 30 12:42:43 2019

    compiled        = Sun_Jun_30_11:55:59_2019
    source          = /home/list1234/source/nwchem-6.8.1-release
    nwchem branch   = Development
    nwchem revision = N/A
    ga revision     = 5.6.5
    use scalapack   = T
    input           = /home/list1234/source/nwchem-6.8.1-release/QA/tests/h2o_diag_to_cg/h2o_diag_to_cg.nw
    prefix          = h2o_diag_to_cg_dat.
    data base       = ./h2o_diag_to_cg_dat.db
    status          = startup
    nproc           =        4
    time left       =     -1s



           Memory information
           ------------------

    heap     =   86247162 doubles =    658.0 Mbytes
    stack    =   86247167 doubles =    658.0 Mbytes
    global   =  172494336 doubles =   1316.0 Mbytes (distinct from heap & stack)
    total    =  344988665 doubles =   2632.1 Mbytes
    verify   = yes
    hardfail = no 


           Directory information
           ---------------------

  0 permanent = .
  0 scratch   = .




                                NWChem Input Module
                                -------------------


 C2V symmetry detected

          ------
          auto-z
          ------
  no constraints, skipping    0.0000000000000000     
  no constraints, skipping    0.0000000000000000     


                             Geometry "geometry" -> ""
                             -------------------------

 Output coordinates in a.u. (scale by  1.000000000 to convert to a.u.)

  No.       Tag          Charge          X              Y              Z
 ---- ---------------- ---------- -------------- -------------- --------------
    1 O                    8.0000     0.00000000     0.00000000     0.22140000
    2 H                    1.0000    -1.43000000     0.00000000    -0.88560000
    3 H                    1.0000     1.43000000     0.00000000    -0.88560000

      Atomic Mass 
      ----------- 

      O                 15.994910
      H                  1.007825


 Effective nuclear repulsion energy (a.u.)       9.1971984402

            Nuclear Dipole moment (a.u.) 
            ----------------------------
        X                 Y               Z
 ---------------- ---------------- ----------------
     0.0000000000     0.0000000000     0.0000000000

      Symmetry information
      --------------------

 Group name             C2v       
 Group number             16
 Group order               4
 No. of unique centers     2

      Symmetry unique atoms

     1    2



                                Z-matrix (autoz)
                                -------- 

 Units are Angstrom for bonds and degrees for angles

      Type          Name      I     J     K     L     M      Value
      ----------- --------  ----- ----- ----- ----- ----- ----------
    1 Stretch                  1     2                       0.95697
    2 Stretch                  1     3                       0.95697
    3 Bend                     2     1     3               104.51124


            XYZ format geometry
            -------------------
     3
 geometry
 O                     0.00000000     0.00000000     0.11715984
 H                    -0.75672347     0.00000000    -0.46863937
 H                     0.75672347     0.00000000    -0.46863937

 ==============================================================================
                                internuclear distances
 ------------------------------------------------------------------------------
       center one      |      center two      | atomic units |       a.u.
 ------------------------------------------------------------------------------
    2 H                |   1 O                |     1.80841  |     1.80841
    3 H                |   1 O                |     1.80841  |     1.80841
 ------------------------------------------------------------------------------
                         number of included internuclear distances:          2
 ==============================================================================



 ==============================================================================
                                 internuclear angles
 ------------------------------------------------------------------------------
        center 1       |       center 2       |       center 3       |  degrees
 ------------------------------------------------------------------------------
    2 H                |   1 O                |   3 H                |   104.51
 ------------------------------------------------------------------------------
                            number of included internuclear angles:          1
 ==============================================================================



                      Basis "ao basis" -> "" (cartesian)
                      -----
  O (Oxygen)
  ----------
            Exponent  Coefficients 
       -------------- ---------------------------------------------------------
  1 S  5.48467170E+03  0.001831
  1 S  8.25234950E+02  0.013950
  1 S  1.88046960E+02  0.068445
  1 S  5.29645000E+01  0.232714
  1 S  1.68975700E+01  0.470193
  1 S  5.79963530E+00  0.358521

  2 S  1.55396160E+01 -0.110778
  2 S  3.59993360E+00 -0.148026
  2 S  1.01376180E+00  1.130767

  3 P  1.55396160E+01  0.070874
  3 P  3.59993360E+00  0.339753
  3 P  1.01376180E+00  0.727159

  4 S  2.70005800E-01  1.000000

  5 P  2.70005800E-01  1.000000

  6 D  8.00000000E-01  1.000000

  H (Hydrogen)
  ------------
            Exponent  Coefficients 
       -------------- ---------------------------------------------------------
  1 S  1.87311370E+01  0.033495
  1 S  2.82539370E+00  0.234727
  1 S  6.40121700E-01  0.813757

  2 S  1.61277800E-01  1.000000



 Summary of "ao basis" -> "" (cartesian)
 ------------------------------------------------------------------------------
       Tag                 Description            Shells   Functions and Types
 ---------------- ------------------------------  ------  ---------------------
 O                           6-31g*                  6       15   3s2p1d
 H                           6-31g*                  2        2   2s



                                 NWChem DFT Module
                                 -----------------




 Summary of "ao basis" -> "ao basis" (cartesian)
 ------------------------------------------------------------------------------
       Tag                 Description            Shells   Functions and Types
 ---------------- ------------------------------  ------  ---------------------
 O                           6-31g*                  6       15   3s2p1d
 H                           6-31g*                  2        2   2s


      Symmetry analysis of basis
      --------------------------

        a1         10
        a2          1
        b1          5
        b2          3

  Caching 1-el integrals 

            General Information
            -------------------
          SCF calculation type: DFT
          Wavefunction type:  closed shell.
          No. of atoms     :     3
          No. of electrons :    10
           Alpha electrons :     5
            Beta electrons :     5
          Charge           :     0
          Spin multiplicity:     1
          Use of symmetry is: on ; symmetry adaption is: on 
          Maximum number of iterations:   2
          AO basis - number of functions:    19
                     number of shells:    10
          Convergence on energy requested:  1.00D-06
          Convergence on density requested:  1.00D-05
          Convergence on gradient requested:  5.00D-04

              XC Information
              --------------
                        Slater Exchange Functional  1.000 local    
                      VWN V Correlation Functional  1.000 local    

             Grid Information
             ----------------
          Grid used for XC integration:  medium    
          Radial quadrature: Mura-Knowles        
          Angular quadrature: Lebedev. 
          Tag              B.-S. Rad. Rad. Pts. Rad. Cut. Ang. Pts.
          ---              ---------- --------- --------- ---------
          O                   0.60       49           5.0       434
          H                   0.35       45           6.0       434
          Grid pruning is: on 
          Number of quadrature shells:    94
          Spatial weights used:  Erf1

          Convergence Information
          -----------------------
          Convergence aids based upon iterative change in 
          total energy or number of iterations. 
          Levelshifting, if invoked, occurs when the 
          HOMO/LUMO gap drops below (HL_TOL):  1.00D-02
          DIIS, if invoked, will attempt to extrapolate 
          using up to (NFOCK): 10 stored Fock matrices.

                    Damping( 0%)  Levelshifting(0.5)       DIIS
                  --------------- ------------------- ---------------
          dE  on:    start            ASAP                start   
          dE off:    2 iters          2 iters             2 iters 


      Screening Tolerance Information
      -------------------------------
          Density screening/tol_rho:  1.00D-10
          AO Gaussian exp screening on grid/accAOfunc:  14
          CD Gaussian exp screening on grid/accCDfunc:  20
          XC Gaussian exp screening on grid/accXCfunc:  20
          Schwarz screening/accCoul:  1.00D-08


      Superposition of Atomic Density Guess
      -------------------------------------

 Sum of atomic energies:         -75.75081731

      Non-variational initial energy
      ------------------------------

 Total energy =     -75.919952
 1-e energy   =    -121.737767
 2-e energy   =      36.620616
 HOMO         =      -0.470482
 LUMO         =       0.114886


      Symmetry analysis of molecular orbitals - initial
      -------------------------------------------------

  Numbering of irreducible representations: 

     1 a1          2 a2          3 b1          4 b2      

  Orbital symmetries:

     1 a1          2 a1          3 b1          4 a1          5 b2      
     6 a1          7 b1          8 b1          9 a1         10 b2      
    11 a1         12 b1         13 a1         14 a1         15 a2      

   Time after variat. SCF:      0.1
   Time prior to 1st pass:      0.1

 #quartets = 1.009D+03 #integrals = 5.756D+03 #direct =  0.0% #cached =100.0%


 Integral file          = ./h2o_diag_to_cg_dat.aoints.0
 Record size in doubles =  65536        No. of integs per rec  =  43688
 Max. records in memory =      2        Max. records in file   = 161710
 No. of bits per label  =      8        No. of bits per value  =     64


File balance: exchanges=     0  moved=     0  time=   0.0


 Grid_pts file          = ./h2o_diag_to_cg_dat.gridpts.0
 Record size in doubles =  12289        No. of grid_pts per rec  =   3070
 Max. records in memory =      5        Max. recs in file   =    862388


           Memory utilization after 1st SCF pass: 
           Heap Space remaining (MW):       86.05            86053010
          Stack Space remaining (MW):       86.25            86246932

   convergence    iter        energy       DeltaE   RMS-Dens  Diis-err    time
 ---------------- ----- ----------------- --------- --------- ---------  ------
 d= 0,ls=0.0,diis     1    -75.8064260728 -8.50D+01  4.91D-02  5.71D-01     0.1
 d= 0,ls=0.0,diis     2    -75.7726970896  3.37D-02  3.07D-02  7.89D-01     0.1

      Calculation failed to converge
      ------------------------------



         Total DFT energy =      -75.772697089554
      One electron energy =     -121.218425715225
           Coulomb energy =       44.786807555715
    Exchange-Corr. energy =       -8.538277370241
 Nuclear repulsion energy =        9.197198440198

 Numeric. integr. density =       10.000001013504

     Total iterative time =      0.1s



                  Occupations of the irreducible representations
                  ----------------------------------------------

                     irrep           alpha         beta
                     --------     --------     --------
                     a1                3.0          3.0
                     a2                0.0          0.0
                     b1                1.0          1.0
                     b2                1.0          1.0


                       DFT Final Molecular Orbital Analysis
                       ------------------------------------

 Vector    1  Occ=2.000000D+00  E=-1.866126D+01  Symmetry=a1
              MO Center= -2.9D-19, -1.3D-24,  1.2D-01, r^2= 1.5D-02
   Bfn.  Coefficient  Atom+Function         Bfn.  Coefficient  Atom+Function  
  ----- ------------  ---------------      ----- ------------  ---------------
     1      0.990678  1 O  s                  2      0.030408  1 O  s          

 Vector    2  Occ=2.000000D+00  E=-9.340166D-01  Symmetry=a1
              MO Center=  5.7D-18,  3.5D-18, -1.1D-01, r^2= 4.9D-01
   Bfn.  Coefficient  Atom+Function         Bfn.  Coefficient  Atom+Function  
  ----- ------------  ---------------      ----- ------------  ---------------
     2      0.466456  1 O  s                  6      0.432451  1 O  s          
     1     -0.210178  1 O  s                  5     -0.151118  1 O  pz         
    16      0.139171  2 H  s                 18      0.139171  3 H  s          
     9     -0.069037  1 O  pz         

 Vector    3  Occ=2.000000D+00  E=-4.929842D-01  Symmetry=b1
              MO Center=  3.3D-17,  5.6D-37, -9.6D-02, r^2= 7.5D-01
   Bfn.  Coefficient  Atom+Function         Bfn.  Coefficient  Atom+Function  
  ----- ------------  ---------------      ----- ------------  ---------------
     3      0.538122  1 O  px                 7      0.267479  1 O  px         
    16     -0.229803  2 H  s                 18      0.229803  3 H  s          
    17     -0.129081  2 H  s                 19      0.129081  3 H  s          
    12     -0.072818  1 O  dxz        

 Vector    4  Occ=2.000000D+00  E=-3.347761D-01  Symmetry=a1
              MO Center= -4.8D-18,  2.0D-34,  2.3D-01, r^2= 6.5D-01
   Bfn.  Coefficient  Atom+Function         Bfn.  Coefficient  Atom+Function  
  ----- ------------  ---------------      ----- ------------  ---------------
     5      0.566244  1 O  pz                 6      0.403112  1 O  s          
     9      0.371235  1 O  pz                 2      0.184555  1 O  s          
    16     -0.130716  2 H  s                 18     -0.130716  3 H  s          
    17     -0.100593  2 H  s                 19     -0.100593  3 H  s          
     1     -0.092016  1 O  s                 15     -0.055076  1 O  dzz        

 Vector    5  Occ=2.000000D+00  E=-2.586604D-01  Symmetry=b2
              MO Center= -4.8D-17, -5.7D-16,  9.4D-02, r^2= 5.8D-01
   Bfn.  Coefficient  Atom+Function         Bfn.  Coefficient  Atom+Function  
  ----- ------------  ---------------      ----- ------------  ---------------
     4      0.653908  1 O  py                 8      0.495710  1 O  py         
    14     -0.068009  1 O  dyz        

 Vector    6  Occ=0.000000D+00  E= 3.201340D-02  Symmetry=a1
              MO Center= -1.8D-16,  6.8D-16, -6.2D-01, r^2= 2.3D+00
   Bfn.  Coefficient  Atom+Function         Bfn.  Coefficient  Atom+Function  
  ----- ------------  ---------------      ----- ------------  ---------------
     6      1.205793  1 O  s                 17     -0.948755  2 H  s          
    19     -0.948755  3 H  s                  9     -0.432638  1 O  pz         
     5     -0.291509  1 O  pz                 2      0.154949  1 O  s          
    16     -0.112580  2 H  s                 18     -0.112580  3 H  s          
     1     -0.101986  1 O  s                 13     -0.048871  1 O  dyy        

 Vector    7  Occ=0.000000D+00  E= 1.154167D-01  Symmetry=b1
              MO Center=  1.0D-15, -1.9D-18, -5.5D-01, r^2= 2.4D+00
   Bfn.  Coefficient  Atom+Function         Bfn.  Coefficient  Atom+Function  
  ----- ------------  ---------------      ----- ------------  ---------------
    17      1.252722  2 H  s                 19     -1.252722  3 H  s          
     7      0.716123  1 O  px                 3      0.439042  1 O  px         
    16      0.131455  2 H  s                 18     -0.131455  3 H  s          
    12     -0.026358  1 O  dxz        

 Vector    8  Occ=0.000000D+00  E= 7.313323D-01  Symmetry=b1
              MO Center= -3.0D-16, -8.8D-17, -1.4D-01, r^2= 1.6D+00
   Bfn.  Coefficient  Atom+Function         Bfn.  Coefficient  Atom+Function  
  ----- ------------  ---------------      ----- ------------  ---------------
    16      0.833360  2 H  s                 18     -0.833360  3 H  s          
    17     -0.659998  2 H  s                 19      0.659998  3 H  s          
     7      0.431903  1 O  px                12      0.360179  1 O  dxz        
     3      0.163600  1 O  px         

 Vector    9  Occ=0.000000D+00  E= 7.902872D-01  Symmetry=a1
              MO Center=  6.6D-16,  7.5D-15,  1.8D-01, r^2= 1.2D+00
   Bfn.  Coefficient  Atom+Function         Bfn.  Coefficient  Atom+Function  
  ----- ------------  ---------------      ----- ------------  ---------------
     5      0.866333  1 O  pz                 9     -0.722558  1 O  pz         
    16      0.469432  2 H  s                 18      0.469432  3 H  s          
    17     -0.421326  2 H  s                 19     -0.421326  3 H  s          
     6     -0.229980  1 O  s                 10      0.183080  1 O  dxx        
     2      0.127649  1 O  s                 15      0.093264  1 O  dzz        

 Vector   10  Occ=0.000000D+00  E= 8.063302D-01  Symmetry=b2
              MO Center=  2.7D-18, -6.8D-15,  1.1D-01, r^2= 1.1D+00
   Bfn.  Coefficient  Atom+Function         Bfn.  Coefficient  Atom+Function  
  ----- ------------  ---------------      ----- ------------  ---------------
     8     -1.043480  1 O  py                 4      0.953089  1 O  py         
    14      0.031228  1 O  dyz        

 Vector   11  Occ=0.000000D+00  E= 8.400792D-01  Symmetry=a1
              MO Center=  1.6D-15, -8.0D-16, -8.8D-02, r^2= 1.6D+00
   Bfn.  Coefficient  Atom+Function         Bfn.  Coefficient  Atom+Function  
  ----- ------------  ---------------      ----- ------------  ---------------
     6      1.197941  1 O  s                  2     -0.769520  1 O  s          
    16      0.710593  2 H  s                 18      0.710593  3 H  s          
     9      0.667025  1 O  pz                17     -0.524599  2 H  s          
    19     -0.524599  3 H  s                 13     -0.332015  1 O  dyy        
     5     -0.272868  1 O  pz                15     -0.236983  1 O  dzz        

 Vector   12  Occ=0.000000D+00  E= 9.782485D-01  Symmetry=b1
              MO Center= -2.8D-14, -1.7D-17,  8.0D-02, r^2= 1.6D+00
   Bfn.  Coefficient  Atom+Function         Bfn.  Coefficient  Atom+Function  
  ----- ------------  ---------------      ----- ------------  ---------------
     7      1.670811  1 O  px                17      0.992340  2 H  s          
    19     -0.992340  3 H  s                  3     -0.970508  1 O  px         

 Vector   13  Occ=0.000000D+00  E= 1.121148D+00  Symmetry=a1
              MO Center=  2.6D-14,  4.1D-18, -3.6D-01, r^2= 1.5D+00
   Bfn.  Coefficient  Atom+Function         Bfn.  Coefficient  Atom+Function  
  ----- ------------  ---------------      ----- ------------  ---------------
     6      3.689330  1 O  s                  2     -1.499672  1 O  s          
     9     -1.052107  1 O  pz                17     -0.813066  2 H  s          
    19     -0.813066  3 H  s                 10     -0.664199  1 O  dxx        
    15     -0.381965  1 O  dzz                5      0.347918  1 O  pz         
    16     -0.333285  2 H  s                 18     -0.333285  3 H  s          

 Vector   14  Occ=0.000000D+00  E= 1.638532D+00  Symmetry=a1
              MO Center=  5.9D-16, -4.2D-15,  1.7D-01, r^2= 6.2D-01
   Bfn.  Coefficient  Atom+Function         Bfn.  Coefficient  Atom+Function  
  ----- ------------  ---------------      ----- ------------  ---------------
    15      1.010565  1 O  dzz               10     -0.577270  1 O  dxx        
    13     -0.359725  1 O  dyy                6     -0.287360  1 O  s          
     9      0.159947  1 O  pz                 2      0.101122  1 O  s          
    16      0.093575  2 H  s                 18      0.093575  3 H  s          
    17      0.048761  2 H  s                 19      0.048761  3 H  s          

 Vector   15  Occ=0.000000D+00  E= 1.653258D+00  Symmetry=a2
              MO Center= -2.9D-16,  1.1D-16,  1.2D-01, r^2= 6.1D-01
   Bfn.  Coefficient  Atom+Function         Bfn.  Coefficient  Atom+Function  
  ----- ------------  ---------------      ----- ------------  ---------------
    11      1.732051  1 O  dxy        

 Vector   16  Occ=0.000000D+00  E= 1.691644D+00  Symmetry=b2
              MO Center=  3.4D-16,  4.1D-15,  1.4D-01, r^2= 6.1D-01
   Bfn.  Coefficient  Atom+Function         Bfn.  Coefficient  Atom+Function  
  ----- ------------  ---------------      ----- ------------  ---------------
    14      1.730433  1 O  dyz                8      0.038313  1 O  py         

 Vector   17  Occ=0.000000D+00  E= 2.205802D+00  Symmetry=a1
              MO Center=  3.0D-16,  4.4D-17, -1.6D-03, r^2= 8.4D-01
   Bfn.  Coefficient  Atom+Function         Bfn.  Coefficient  Atom+Function  
  ----- ------------  ---------------      ----- ------------  ---------------
     6      1.576217  1 O  s                 13     -1.125647  1 O  dyy        
    16     -0.839936  2 H  s                 18     -0.839936  3 H  s          
    10      0.756927  1 O  dxx                9     -0.751595  1 O  pz         
     2     -0.517445  1 O  s                 17     -0.148145  2 H  s          
    19     -0.148145  3 H  s                 15      0.056690  1 O  dzz        

 Vector   18  Occ=0.000000D+00  E= 2.505058D+00  Symmetry=b1
              MO Center= -4.2D-16, -6.1D-20,  6.4D-02, r^2= 8.7D-01
   Bfn.  Coefficient  Atom+Function         Bfn.  Coefficient  Atom+Function  
  ----- ------------  ---------------      ----- ------------  ---------------
    12      2.223454  1 O  dxz               16     -0.956000  2 H  s          
    18      0.956000  3 H  s                  7     -0.882574  1 O  px         
    17      0.041670  2 H  s                 19     -0.041670  3 H  s          
     3      0.026756  1 O  px         

 Vector   19  Occ=0.000000D+00  E= 3.453652D+00  Symmetry=a1
              MO Center=  5.9D-17,  5.7D-20,  1.1D-01, r^2= 1.0D+00
   Bfn.  Coefficient  Atom+Function         Bfn.  Coefficient  Atom+Function  
  ----- ------------  ---------------      ----- ------------  ---------------
     6      3.762040  1 O  s                 13     -1.587087  1 O  dyy        
    15     -1.561228  1 O  dzz               10     -1.537735  1 O  dxx        
    17     -0.575928  2 H  s                 19     -0.575928  3 H  s          
     1     -0.473182  1 O  s                  9     -0.338472  1 O  pz         
     2      0.261003  1 O  s                 16      0.123115  2 H  s          


 center of mass
 --------------
 x =   0.00000000 y =   0.00000000 z =   0.09751021

 moments of inertia (a.u.)
 ------------------
           2.193637940261           0.000000000000           0.000000000000
           0.000000000000           6.315440625261           0.000000000000
           0.000000000000           0.000000000000           4.121802685000

     Multipole analysis of the density
     ---------------------------------

     L   x y z        total         alpha         beta         nuclear
     -   - - -        -----         -----         ----         -------
     0   0 0 0     -0.000000     -5.000000     -5.000000     10.000000

     1   1 0 0      0.000000      0.000000      0.000000      0.000000
     1   0 1 0      0.000000      0.000000      0.000000      0.000000
     1   0 0 1     -0.887957     -0.443978     -0.443978      0.000000

     2   2 0 0     -2.932659     -3.511229     -3.511229      4.089800
     2   1 1 0      0.000000      0.000000      0.000000      0.000000
     2   1 0 1      0.000000      0.000000      0.000000      0.000000
     2   0 2 0     -5.239070     -2.619535     -2.619535      0.000000
     2   0 1 1      0.000000      0.000000      0.000000      0.000000
     2   0 0 2     -4.312783     -3.136750     -3.136750      1.960718


 Parallel integral file used       4 records with       0 large values

  !! warning: dft energy failed

 Task  times  cpu:        0.1s     wall:        0.1s


                                NWChem Input Module
                                -------------------



                                 NWChem DFT Module
                                 -----------------




 Summary of "ao basis" -> "ao basis" (cartesian)
 ------------------------------------------------------------------------------
       Tag                 Description            Shells   Functions and Types
 ---------------- ------------------------------  ------  ---------------------
 O                           6-31g*                  6       15   3s2p1d
 H                           6-31g*                  2        2   2s


      Symmetry analysis of basis
      --------------------------

        a1         10
        a2          1
        b1          5
        b2          3

  Caching 1-el integrals 

            General Information
            -------------------
          SCF calculation type: DFT
          Wavefunction type:  closed shell.
          No. of atoms     :     3
          No. of electrons :    10
           Alpha electrons :     5
            Beta electrons :     5
          Charge           :     0
          Spin multiplicity:     1
          Use of symmetry is: on ; symmetry adaption is: on 
          Maximum number of iterations:  15
          AO basis - number of functions:    19
                     number of shells:    10
          Convergence on energy requested:  1.00D-06
          Convergence on density requested:  1.00D-05
          Convergence on gradient requested:  5.00D-04

              XC Information
              --------------
                        Slater Exchange Functional  1.000 local    
                      VWN V Correlation Functional  1.000 local    

             Grid Information
             ----------------
          Grid used for XC integration:  medium    
          Radial quadrature: Mura-Knowles        
          Angular quadrature: Lebedev. 
          Tag              B.-S. Rad. Rad. Pts. Rad. Cut. Ang. Pts.
          ---              ---------- --------- --------- ---------
          O                   0.60       49           5.0       434
          H                   0.35       45           6.0       434
          Grid pruning is: on 
          Number of quadrature shells:    94
          Spatial weights used:  Erf1

          Convergence Information
          -----------------------
          Convergence aids based upon iterative change in 
          total energy or number of iterations. 
          Levelshifting, if invoked, occurs when the 
          HOMO/LUMO gap drops below (HL_TOL):  1.00D-02
          DIIS, if invoked, will attempt to extrapolate 
          using up to (NFOCK): 10 stored Fock matrices.

                    Damping( 0%)  Levelshifting(0.5)       DIIS
                  --------------- ------------------- ---------------
          dE  on:    start            ASAP                start   
          dE off:    2 iters          2 iters             2 iters 


      Screening Tolerance Information
      -------------------------------
          Density screening/tol_rho:  1.00D-10
          AO Gaussian exp screening on grid/accAOfunc:  14
          CD Gaussian exp screening on grid/accCDfunc:  20
          XC Gaussian exp screening on grid/accXCfunc:  20
          Schwarz screening/accCoul:  1.00D-08


 Loading old vectors from job with title :




      Symmetry analysis of molecular orbitals - initial
      -------------------------------------------------

  Numbering of irreducible representations: 

     1 a1          2 a2          3 b1          4 b2      

  Orbital symmetries:

     1 a1          2 a1          3 b1          4 a1          5 b2      
     6 a1          7 b1          8 b1          9 a1         10 b2      
    11 a1         12 b1         13 a1         14 a1         15 a2      



 ----------------------------------------------
         Quadratically convergent ROKS

 Convergence threshold     :          5.000E-04
 Maximum no. of iterations :           15
 Final Fock-matrix accuracy:          1.000E-08

 PCG initial level shift   :              5.000
 PCG change shift at maxg  :              0.500
 PCG final level shift     :              0.000
 NR  initial level shift   :              0.000
 NR  change shift at maxg  :              0.000
 NR  final level shift     :              0.000
 NR  enabled at maxg       :              0.000
 ----------------------------------------------


 #quartets = 1.009D+03 #integrals = 5.756D+03 #direct =  0.0% #cached =100.0%


 Integral file          = ./h2o_diag_to_cg_dat.aoints.0
 Record size in doubles =  65536        No. of integs per rec  =  43688
 Max. records in memory =      2        Max. records in file   = 161710
 No. of bits per label  =      8        No. of bits per value  =     64


File balance: exchanges=     0  moved=     0  time=   0.0


 Grid_pts file          = ./h2o_diag_to_cg_dat.gridpts.0
 Record size in doubles =  12289        No. of grid_pts per rec  =   3070
 Max. records in memory =      5        Max. recs in file   =    862388


              iter       energy          gnorm     gmax       time
             ----- ------------------- --------- --------- --------
                 1      -75.8393893602  3.37D-01  1.66D-01      0.2
                 2      -75.8442901137  2.79D-02  1.43D-02      0.2
                 3      -75.8443299667  2.50D-03  1.35D-03      0.3
                 4      -75.8443301725  1.04D-03  6.02D-04      0.3
                 5      -75.8443302135  1.30D-04  6.90D-05      0.3


         Total DFT energy =      -75.844330213467
      One electron energy =     -123.070787485353
           Coulomb energy =       46.799688245967
    Exchange-Corr. energy =       -8.770429414278
 Nuclear repulsion energy =        9.197198440198

 Numeric. integr. density =       10.000001227724

     Total iterative time =      0.1s



                       DFT Final Molecular Orbital Analysis
                       ------------------------------------

 Vector    1  Occ=2.000000D+00  E=-1.859871D+01  Symmetry=a1
              MO Center= -2.9D-19,  3.9D-20,  1.2D-01, r^2= 1.5D-02
   Bfn.  Coefficient  Atom+Function         Bfn.  Coefficient  Atom+Function  
  ----- ------------  ---------------      ----- ------------  ---------------
     1      0.990630  1 O  s          

 Vector    2  Occ=2.000000D+00  E=-9.033277D-01  Symmetry=a1
              MO Center=  3.4D-18, -6.9D-36, -1.1D-01, r^2= 5.1D-01
   Bfn.  Coefficient  Atom+Function         Bfn.  Coefficient  Atom+Function  
  ----- ------------  ---------------      ----- ------------  ---------------
     2      0.457207  1 O  s                  6      0.433896  1 O  s          
     1     -0.209043  1 O  s          

 Vector    3  Occ=2.000000D+00  E=-4.676998D-01  Symmetry=b1
              MO Center=  1.0D-17, -2.4D-19, -1.0D-01, r^2= 7.8D-01
   Bfn.  Coefficient  Atom+Function         Bfn.  Coefficient  Atom+Function  
  ----- ------------  ---------------      ----- ------------  ---------------
     3      0.523376  1 O  px                 7      0.267059  1 O  px         
    16     -0.232647  2 H  s                 18      0.232647  3 H  s          

 Vector    4  Occ=2.000000D+00  E=-3.107497D-01  Symmetry=a1
              MO Center=  2.1D-18, -8.8D-18,  2.2D-01, r^2= 6.8D-01
   Bfn.  Coefficient  Atom+Function         Bfn.  Coefficient  Atom+Function  
  ----- ------------  ---------------      ----- ------------  ---------------
     5      0.551700  1 O  pz                 6      0.422053  1 O  s          
     9      0.377061  1 O  pz                 2      0.179877  1 O  s          

 Vector    5  Occ=2.000000D+00  E=-2.310764D-01  Symmetry=b2
              MO Center= -3.5D-17, -6.7D-16,  9.5D-02, r^2= 6.0D-01
   Bfn.  Coefficient  Atom+Function         Bfn.  Coefficient  Atom+Function  
  ----- ------------  ---------------      ----- ------------  ---------------
     4      0.639675  1 O  py                 8      0.511250  1 O  py         

 Vector    6  Occ=0.000000D+00  E= 4.307199D-02  Symmetry=a1
              MO Center= -1.6D-17,  7.0D-16, -6.1D-01, r^2= 2.4D+00
   Bfn.  Coefficient  Atom+Function         Bfn.  Coefficient  Atom+Function  
  ----- ------------  ---------------      ----- ------------  ---------------
     6      1.225278  1 O  s                 17     -0.958358  2 H  s          
    19     -0.958358  3 H  s                  9     -0.450995  1 O  pz         
     5     -0.290186  1 O  pz         

 Vector    7  Occ=0.000000D+00  E= 1.268027D-01  Symmetry=b1
              MO Center= -6.7D-16,  1.8D-19, -5.5D-01, r^2= 2.4D+00
   Bfn.  Coefficient  Atom+Function         Bfn.  Coefficient  Atom+Function  
  ----- ------------  ---------------      ----- ------------  ---------------
    17      1.267590  2 H  s                 19     -1.267590  3 H  s          
     7      0.737671  1 O  px                 3      0.434737  1 O  px         

 Vector    8  Occ=0.000000D+00  E= 7.441801D-01  Symmetry=b1
              MO Center= -2.5D-16, -9.0D-17, -1.3D-01, r^2= 1.6D+00
   Bfn.  Coefficient  Atom+Function         Bfn.  Coefficient  Atom+Function  
  ----- ------------  ---------------      ----- ------------  ---------------
    16      0.836552  2 H  s                 18     -0.836552  3 H  s          
    17     -0.637352  2 H  s                 19      0.637352  3 H  s          
     7      0.461449  1 O  px                12      0.354794  1 O  dxz        
     3      0.153147  1 O  px         

 Vector    9  Occ=0.000000D+00  E= 8.119745D-01  Symmetry=a1
              MO Center=  7.1D-16,  3.5D-17,  1.9D-01, r^2= 1.2D+00
   Bfn.  Coefficient  Atom+Function         Bfn.  Coefficient  Atom+Function  
  ----- ------------  ---------------      ----- ------------  ---------------
     5      0.873255  1 O  pz                 9     -0.703810  1 O  pz         
    16      0.468248  2 H  s                 18      0.468248  3 H  s          
    17     -0.395446  2 H  s                 19     -0.395446  3 H  s          
     6     -0.303541  1 O  s                 10      0.191805  1 O  dxx        
     2      0.154889  1 O  s          

 Vector   10  Occ=0.000000D+00  E= 8.285014D-01  Symmetry=b2
              MO Center=  4.0D-18,  9.1D-16,  1.1D-01, r^2= 1.1D+00
   Bfn.  Coefficient  Atom+Function         Bfn.  Coefficient  Atom+Function  
  ----- ------------  ---------------      ----- ------------  ---------------
     8     -1.036005  1 O  py                 4      0.962707  1 O  py         

 Vector   11  Occ=0.000000D+00  E= 8.536403D-01  Symmetry=a1
              MO Center=  8.4D-16, -8.1D-16, -9.5D-02, r^2= 1.6D+00
   Bfn.  Coefficient  Atom+Function         Bfn.  Coefficient  Atom+Function  
  ----- ------------  ---------------      ----- ------------  ---------------
     6      1.203923  1 O  s                  2     -0.773778  1 O  s          
    16      0.716516  2 H  s                 18      0.716516  3 H  s          
     9      0.658394  1 O  pz                17     -0.527325  2 H  s          
    19     -0.527325  3 H  s                 13     -0.334912  1 O  dyy        
     5     -0.265448  1 O  pz                15     -0.238897  1 O  dzz        

 Vector   12  Occ=0.000000D+00  E= 9.992139D-01  Symmetry=b1
              MO Center= -1.3D-16,  4.6D-32,  7.5D-02, r^2= 1.6D+00
   Bfn.  Coefficient  Atom+Function         Bfn.  Coefficient  Atom+Function  
  ----- ------------  ---------------      ----- ------------  ---------------
     7      1.654835  1 O  px                 3     -0.982195  1 O  px         
    17      0.986283  2 H  s                 19     -0.986283  3 H  s          

 Vector   13  Occ=0.000000D+00  E= 1.136704D+00  Symmetry=a1
              MO Center= -8.1D-16, -1.3D-16, -3.6D-01, r^2= 1.5D+00
   Bfn.  Coefficient  Atom+Function         Bfn.  Coefficient  Atom+Function  
  ----- ------------  ---------------      ----- ------------  ---------------
     6      3.688570  1 O  s                  2     -1.498676  1 O  s          
     9     -1.063694  1 O  pz                17     -0.813590  2 H  s          
    19     -0.813590  3 H  s                 10     -0.662792  1 O  dxx        
    15     -0.387511  1 O  dzz                5      0.363889  1 O  pz         
    16     -0.330565  2 H  s                 18     -0.330565  3 H  s          

 Vector   14  Occ=0.000000D+00  E= 1.658911D+00  Symmetry=a1
              MO Center=  2.8D-16, -8.8D-17,  1.7D-01, r^2= 6.2D-01
   Bfn.  Coefficient  Atom+Function         Bfn.  Coefficient  Atom+Function  
  ----- ------------  ---------------      ----- ------------  ---------------
    15      1.010085  1 O  dzz               10     -0.579931  1 O  dxx        
    13     -0.358378  1 O  dyy                6     -0.280321  1 O  s          
     9      0.155856  1 O  pz         

 Vector   15  Occ=0.000000D+00  E= 1.673459D+00  Symmetry=a2
              MO Center= -2.9D-16,  9.0D-17,  1.2D-01, r^2= 6.1D-01
   Bfn.  Coefficient  Atom+Function         Bfn.  Coefficient  Atom+Function  
  ----- ------------  ---------------      ----- ------------  ---------------
    11      1.732051  1 O  dxy        

 Vector   16  Occ=0.000000D+00  E= 1.711514D+00  Symmetry=b2
              MO Center=  3.2D-16, -3.3D-17,  1.4D-01, r^2= 6.1D-01
   Bfn.  Coefficient  Atom+Function         Bfn.  Coefficient  Atom+Function  
  ----- ------------  ---------------      ----- ------------  ---------------
    14      1.730577  1 O  dyz        

 Vector   17  Occ=0.000000D+00  E= 2.223785D+00  Symmetry=a1
              MO Center=  3.1D-16,  8.7D-17, -1.0D-04, r^2= 8.3D-01
   Bfn.  Coefficient  Atom+Function         Bfn.  Coefficient  Atom+Function  
  ----- ------------  ---------------      ----- ------------  ---------------
     6      1.573529  1 O  s                 13     -1.127673  1 O  dyy        
    16     -0.837124  2 H  s                 18     -0.837124  3 H  s          
    10      0.756238  1 O  dxx                9     -0.749111  1 O  pz         
     2     -0.515429  1 O  s          

 Vector   18  Occ=0.000000D+00  E= 2.524504D+00  Symmetry=b1
              MO Center= -3.8D-16,  1.2D-19,  6.4D-02, r^2= 8.7D-01
   Bfn.  Coefficient  Atom+Function         Bfn.  Coefficient  Atom+Function  
  ----- ------------  ---------------      ----- ------------  ---------------
    12      2.224475  1 O  dxz               16     -0.953702  2 H  s          
    18      0.953702  3 H  s                  7     -0.880097  1 O  px         

 Vector   19  Occ=0.000000D+00  E= 3.478454D+00  Symmetry=a1
              MO Center=  4.5D-17,  6.2D-18,  1.2D-01, r^2= 1.0D+00
   Bfn.  Coefficient  Atom+Function         Bfn.  Coefficient  Atom+Function  
  ----- ------------  ---------------      ----- ------------  ---------------
     6      3.748753  1 O  s                 13     -1.584547  1 O  dyy        
    15     -1.559445  1 O  dzz               10     -1.536430  1 O  dxx        
    17     -0.573121  2 H  s                 19     -0.573121  3 H  s          
     1     -0.473537  1 O  s                  9     -0.336177  1 O  pz         
     2      0.268945  1 O  s          


 Parallel integral file used       4 records with       0 large values


 Task  times  cpu:        0.1s     wall:        0.2s


                                NWChem Input Module
                                -------------------


 Summary of allocated global arrays
-----------------------------------
  No active global arrays



                         GA Statistics for process    0
                         ------------------------------

       create   destroy   get      put      acc     scatter   gather  read&inc
calls:  407      407     2457      851     2103        0        0      220     
number of processes/call 1.33e+00 1.24e+00 1.11e+00 0.00e+00 0.00e+00
bytes total:             1.73e+06 5.98e+05 8.60e+05 0.00e+00 0.00e+00 1.76e+03
bytes remote:            2.74e+05 6.58e+04 1.14e+05 0.00e+00 0.00e+00 0.00e+00
Max memory consumed for GA by this process: 66440 bytes

MA_summarize_allocated_blocks: starting scan ...
MA_summarize_allocated_blocks: scan completed: 0 heap blocks, 0 stack blocks
MA usage statistics:

	allocation statistics:
					      heap	     stack
					      ----	     -----
	current number of blocks	         0	         0
	maximum number of blocks	        22	        55
	current total bytes		         0	         0
	maximum total bytes		   1553080	  22510552
	maximum total K-bytes		      1554	     22511
	maximum total M-bytes		         2	        23


                                     CITATION
                                     --------
                Please cite the following reference when publishing
                           results obtained with NWChem:

                 M. Valiev, E.J. Bylaska, N. Govind, K. Kowalski,
              T.P. Straatsma, H.J.J. van Dam, D. Wang, J. Nieplocha,
                        E. Apra, T.L. Windus, W.A. de Jong
                 "NWChem: a comprehensive and scalable open-source
                  solution for large scale molecular simulations"
                      Comput. Phys. Commun. 181, 1477 (2010)
                           doi:10.1016/j.cpc.2010.04.018

                                      AUTHORS
                                      -------
          E. Apra, E. J. Bylaska, W. A. de Jong, N. Govind, K. Kowalski,
       T. P. Straatsma, M. Valiev, H. J. J. van Dam, D. Wang, T. L. Windus,
        J. Hammond, J. Autschbach, K. Bhaskaran-Nair, J. Brabec, K. Lopata,
    S. A. Fischer, S. Krishnamoorthy, M. Jacquelin, W. Ma, M. Klemm, O. Villa,
      Y. Chen, V. Anisimov, F. Aquino, S. Hirata, M. T. Hackler, V. Konjkov,
            D. Mejia-Rodriguez, T. Risthaus, M. Malagoli, A. Marenich,
   A. Otero-de-la-Roza, J. Mullin, P. Nichols, R. Peverati, J. Pittner, Y. Zhao,
        P.-D. Fan, A. Fonari, M. J. Williamson, R. J. Harrison, J. R. Rehr,
      M. Dupuis, D. Silverstein, D. M. A. Smith, J. Nieplocha, V. Tipparaju,
    M. Krishnan, B. E. Van Kuiken, A. Vazquez-Mayagoitia, L. Jensen, M. Swart,
      Q. Wu, T. Van Voorhis, A. A. Auer, M. Nooijen, L. D. Crosby, E. Brown,
      G. Cisneros, G. I. Fann, H. Fruchtl, J. Garza, K. Hirao, R. A. Kendall,
      J. A. Nichols, K. Tsemekhman, K. Wolinski, J. Anchell, D. E. Bernholdt,
      P. Borowski, T. Clark, D. Clerc, H. Dachsel, M. J. O. Deegan, K. Dyall,
    D. Elwood, E. Glendening, M. Gutowski, A. C. Hess, J. Jaffe, B. G. Johnson,
     J. Ju, R. Kobayashi, R. Kutteh, Z. Lin, R. Littlefield, X. Long, B. Meng,
      T. Nakajima, S. Niu, L. Pollack, M. Rosing, K. Glaesemann, G. Sandrone,
      M. Stave, H. Taylor, G. Thomas, J. H. van Lenthe, A. T. Wong, Z. Zhang.

 Total times  cpu:        0.2s     wall:        0.3s
[0] ARMCI Warning: Freed 1 leaked allocations
