 argument  1 = /home/list1234/source/nwchem-6.8.1-release/QA/tests/He_b2plyp_cc-vqz/He_b2plyp_cc-vqz.nw



============================== echo of input deck ==============================
#
# These are the comparison numbers directly from Stefan Grimme:
#
#here it is (noFC, spherical basis, for total energies add col_1+0.27*col_2):
#      B2-LYP                unscaled RI-PT2
# He  -2.8937015127         -0.0399725506

echo

start He_b2plyp_cc-vqz

geometry
 He     0.0 0.0 0.0
end

basis "ao basis" spherical
  * library cc-pvqz
end

mp2
  freeze 0
  scratchdisk 4096
end

dft
  xc HFexch 0.53 becke88 0.47 lyp 0.73 mp2 0.27
  dftmp2 semidirect
  convergence energy 1e-8
  iterations 100
end

task dft energy

dft
  xc HFexch 0.53 becke88 0.47 lyp 0.73 mp2 0.27
  dftmp2 direct
  direct
  convergence energy 1e-8
  iterations 100
end

task dft energy

# This won't reproduce Turbomole exactly because it's not the same basis
# but it should come darn close to the complete DFT result
basis "cc-pVQZ-RI" spherical
#BASIS SET: (5s,4p,3d,2f)
He    S
     29.251976741            1.0000000
He    S
      6.3479959175           1.0000000
He    S
      3.0141166013           1.0000000
He    S
      0.83396087296          1.0000000
He    S
      0.47964730615          1.0000000
He    P
      8.6905135631           1.0000000
He    P
      2.5796767548           1.0000000
He    P
      1.1943303704           1.0000000
He    P
      0.71278867940          1.0000000
He    D
      7.2944834617           1.0000000
He    D
      4.3632208275           1.0000000
He    D
      1.7345900404           1.0000000
He    F
      4.3507069127           1.0000000
He    F
      2.7082979618           1.0000000
end

set "ri-mp2 basis" "cc-pVQZ-RI"

dft
  xc HFexch 0.53 becke88 0.47 lyp 0.73 mp2 0.27
  dftmp2 ri
  convergence energy 1e-8
  iterations 100
end

task dft energy
================================================================================


                                         
                                         


              Northwest Computational Chemistry Package (NWChem) 6.8
              ------------------------------------------------------


                    Environmental Molecular Sciences Laboratory
                       Pacific Northwest National Laboratory
                                Richland, WA 99352

                              Copyright (c) 1994-2018
                       Pacific Northwest National Laboratory
                            Battelle Memorial Institute

             NWChem is an open-source computational chemistry package
                        distributed under the terms of the
                      Educational Community License (ECL) 2.0
             A copy of the license is included with this distribution
                              in the LICENSE.TXT file

                                  ACKNOWLEDGMENT
                                  --------------

            This software and its documentation were developed at the
            EMSL at Pacific Northwest National Laboratory, a multiprogram
            national laboratory, operated for the U.S. Department of Energy
            by Battelle under Contract Number DE-AC05-76RL01830. Support
            for this work was provided by the Department of Energy Office
            of Biological and Environmental Research, Office of Basic
            Energy Sciences, and the Office of Advanced Scientific Computing.


           Job information
           ---------------

    hostname        = list1234-B360M-H
    program         = /home/list1234/source/nwchem-6.8.1-release/bin/LINUX64/nwchem
    date            = Sun Jun 30 13:59:10 2019

    compiled        = Sun_Jun_30_11:55:59_2019
    source          = /home/list1234/source/nwchem-6.8.1-release
    nwchem branch   = Development
    nwchem revision = N/A
    ga revision     = 5.6.5
    use scalapack   = T
    input           = /home/list1234/source/nwchem-6.8.1-release/QA/tests/He_b2plyp_cc-vqz/He_b2plyp_cc-vqz.nw
    prefix          = He_b2plyp_cc-vqz.
    data base       = ./He_b2plyp_cc-vqz.db
    status          = startup
    nproc           =        4
    time left       =     -1s



           Memory information
           ------------------

    heap     =   86247168 doubles =    658.0 Mbytes
    stack    =   86247165 doubles =    658.0 Mbytes
    global   =  172494336 doubles =   1316.0 Mbytes (distinct from heap & stack)
    total    =  344988669 doubles =   2632.1 Mbytes
    verify   = yes
    hardfail = no 


           Directory information
           ---------------------

  0 permanent = .
  0 scratch   = .




                                NWChem Input Module
                                -------------------



 Scaling coordinates for geometry "geometry" by  1.889725989
 (inverse scale =  0.529177249)



                             Geometry "geometry" -> ""
                             -------------------------

 Output coordinates in angstroms (scale by  1.889725989 to convert to a.u.)

  No.       Tag          Charge          X              Y              Z
 ---- ---------------- ---------- -------------- -------------- --------------
    1 He                   2.0000     0.00000000     0.00000000     0.00000000

      Atomic Mass 
      ----------- 

      He                 4.002600


 Effective nuclear repulsion energy (a.u.)       0.0000000000

            Nuclear Dipole moment (a.u.) 
            ----------------------------
        X                 Y               Z
 ---------------- ---------------- ----------------
     0.0000000000     0.0000000000     0.0000000000


            XYZ format geometry
            -------------------
     1
 geometry
 He                    0.00000000     0.00000000     0.00000000



 Summary of "ao basis" -> "" (spherical)
 ------------------------------------------------------------------------------
       Tag                 Description            Shells   Functions and Types
 ---------------- ------------------------------  ------  ---------------------
 *                          cc-pvqz                   on all atoms 



                                 NWChem DFT Module
                                 -----------------


                      Basis "ao basis" -> "ao basis" (spherical)
                      -----
  He (Helium)
  -----------
            Exponent  Coefficients 
       -------------- ---------------------------------------------------------
  1 S  5.28500000E+02  0.000940
  1 S  7.93100000E+01  0.007214
  1 S  1.80500000E+01  0.035975
  1 S  5.08500000E+00  0.127782

  2 S  1.60900000E+00  1.000000

  3 S  5.36300000E-01  1.000000

  4 S  1.83300000E-01  1.000000

  5 P  5.99400000E+00  1.000000

  6 P  1.74500000E+00  1.000000

  7 P  5.60000000E-01  1.000000

  8 D  4.29900000E+00  1.000000

  9 D  1.22300000E+00  1.000000

 10 F  2.68000000E+00  1.000000



 Summary of "ao basis" -> "ao basis" (spherical)
 ------------------------------------------------------------------------------
       Tag                 Description            Shells   Functions and Types
 ---------------- ------------------------------  ------  ---------------------
 He                         cc-pvqz                 10       30   4s3p2d1f




 Summary of "ao basis" -> "ao basis" (spherical)
 ------------------------------------------------------------------------------
       Tag                 Description            Shells   Functions and Types
 ---------------- ------------------------------  ------  ---------------------
 He                         cc-pvqz                 10       30   4s3p2d1f


  Caching 1-el integrals 
  itol2e modified to match energy
  convergence criterion.
  tol_rho modified to match energy
  convergence criterion.

            General Information
            -------------------
          SCF calculation type: DFT
          Wavefunction type:  closed shell.
          No. of atoms     :     1
          No. of electrons :     2
           Alpha electrons :     1
            Beta electrons :     1
          Charge           :     0
          Spin multiplicity:     1
          Use of symmetry is: off; symmetry adaption is: off
          Maximum number of iterations: 100
          AO basis - number of functions:    30
                     number of shells:    10
          Convergence on energy requested:  1.00D-08
          Convergence on density requested:  1.00D-05
          Convergence on gradient requested:  5.00D-04

              XC Information
              --------------
                     Hartree-Fock (Exact) Exchange  0.530          
                    Becke 1988 Exchange Functional  0.470          
              Lee-Yang-Parr Correlation Functional  0.730          

             Grid Information
             ----------------
          Grid used for XC integration:  medium    
          Radial quadrature: Mura-Knowles        
          Angular quadrature: Lebedev. 
          Tag              B.-S. Rad. Rad. Pts. Rad. Cut. Ang. Pts.
          ---              ---------- --------- --------- ---------
          He                  0.35       49           4.0       434
          Grid pruning is: on 
          Number of quadrature shells:    49
          Spatial weights used:  Erf1

          Convergence Information
          -----------------------
          Convergence aids based upon iterative change in 
          total energy or number of iterations. 
          Levelshifting, if invoked, occurs when the 
          HOMO/LUMO gap drops below (HL_TOL):  1.00D-02
          DIIS, if invoked, will attempt to extrapolate 
          using up to (NFOCK): 10 stored Fock matrices.

                    Damping( 0%)  Levelshifting(0.5)       DIIS
                  --------------- ------------------- ---------------
          dE  on:    start            ASAP                start   
          dE off:    2 iters        100 iters           100 iters 


      Screening Tolerance Information
      -------------------------------
          Density screening/tol_rho:  1.00D-11
          AO Gaussian exp screening on grid/accAOfunc:  18
          CD Gaussian exp screening on grid/accCDfunc:  20
          XC Gaussian exp screening on grid/accXCfunc:  20
          Schwarz screening/accCoul:  1.00D-09


      Superposition of Atomic Density Guess
      -------------------------------------

 Sum of atomic energies:          -2.86151418

      Non-variational initial energy
      ------------------------------

 Total energy =      -2.861514
 1-e energy   =      -3.887331
 2-e energy   =       1.025816
 HOMO         =      -0.917849
 LUMO         =       0.496529

   Time after variat. SCF:      0.1
   Time prior to 1st pass:      0.1

 #quartets = 1.540D+03 #integrals = 1.511D+04 #direct =  0.0% #cached =100.0%


 Integral file          = ./He_b2plyp_cc-vqz.aoints.0
 Record size in doubles =  65536        No. of integs per rec  =  43688
 Max. records in memory =      2        Max. records in file   = 161640
 No. of bits per label  =      8        No. of bits per value  =     64


File balance: exchanges=     0  moved=     0  time=   0.0


 Grid_pts file          = ./He_b2plyp_cc-vqz.gridpts.0
 Record size in doubles =  12289        No. of grid_pts per rec  =   3070
 Max. records in memory =      3        Max. recs in file   =    862013


           Memory utilization after 1st SCF pass: 
           Heap Space remaining (MW):       86.08            86077856
          Stack Space remaining (MW):       86.25            86246884

   convergence    iter        energy       DeltaE   RMS-Dens  Diis-err    time
 ---------------- ----- ----------------- --------- --------- ---------  ------
 d= 0,ls=0.0,diis     1     -2.8933143907 -2.89D+00  1.31D-03  9.22D-03     0.1
 d= 0,ls=0.0,diis     2     -2.8936988062 -3.84D-04  1.49D-04  3.53D-05     0.1
 d= 0,ls=0.0,diis     3     -2.8937015181 -2.71D-06  7.33D-06  3.94D-08     0.1
 d= 0,ls=0.0,diis     4     -2.8937015226 -4.47D-09  1.27D-08  1.97D-12     0.1


         Total DFT energy =       -2.893701522553
      One electron energy =       -3.882803985757
           Coulomb energy =        2.043369745274
    Exchange-Corr. energy =       -1.054267282070
 Nuclear repulsion energy =        0.000000000000

 Numeric. integr. density =        1.999999953047

     Total iterative time =      0.1s



                       DFT Final Molecular Orbital Analysis
                       ------------------------------------

 Vector    1  Occ=2.000000D+00  E=-7.678053D-01
              MO Center=  1.5D-17,  2.5D-17, -5.8D-18, r^2= 3.4D-01
   Bfn.  Coefficient  Atom+Function         Bfn.  Coefficient  Atom+Function  
  ----- ------------  ---------------      ----- ------------  ---------------
     3      0.435628  1 He s                  2      0.309512  1 He s          
     4      0.256357  1 He s                  1      0.163343  1 He s          

 Vector    2  Occ=0.000000D+00  E= 4.114852D-01
              MO Center=  7.3D-16,  6.3D-16, -7.7D-17, r^2= 1.8D+00
   Bfn.  Coefficient  Atom+Function         Bfn.  Coefficient  Atom+Function  
  ----- ------------  ---------------      ----- ------------  ---------------
     4      1.669910  1 He s                  3     -1.306012  1 He s          
     1     -0.116004  1 He s          

 Vector    3  Occ=0.000000D+00  E= 9.614474D-01
              MO Center=  2.8D-16, -2.0D-15,  5.6D-16, r^2= 6.8D-01
   Bfn.  Coefficient  Atom+Function         Bfn.  Coefficient  Atom+Function  
  ----- ------------  ---------------      ----- ------------  ---------------
    13      0.868831  1 He pz                12      0.585957  1 He py         
    11     -0.319545  1 He px                10     -0.128435  1 He pz         
     9     -0.086619  1 He py                 8      0.047237  1 He px         
     7      0.034650  1 He pz         

 Vector    4  Occ=0.000000D+00  E= 9.614474D-01
              MO Center= -1.3D-16, -2.9D-16,  1.5D-17, r^2= 6.8D-01
   Bfn.  Coefficient  Atom+Function         Bfn.  Coefficient  Atom+Function  
  ----- ------------  ---------------      ----- ------------  ---------------
    12      0.899881  1 He py                13     -0.445842  1 He pz         
    11      0.437905  1 He px                 9     -0.133025  1 He py         
    10      0.065907  1 He pz                 8     -0.064733  1 He px         
     6      0.035889  1 He py         

 Vector    5  Occ=0.000000D+00  E= 9.614474D-01
              MO Center= -3.3D-16,  1.6D-16,  1.5D-16, r^2= 6.8D-01
   Bfn.  Coefficient  Atom+Function         Bfn.  Coefficient  Atom+Function  
  ----- ------------  ---------------      ----- ------------  ---------------
    11      0.952078  1 He px                13      0.496668  1 He pz         
    12     -0.217233  1 He py                 8     -0.140741  1 He px         
    10     -0.073420  1 He pz                 5      0.037970  1 He px         
     9      0.032112  1 He py         

 Vector    6  Occ=0.000000D+00  E= 2.587113D+00
              MO Center= -3.1D-16, -2.5D-16,  8.6D-17, r^2= 7.6D-01
   Bfn.  Coefficient  Atom+Function         Bfn.  Coefficient  Atom+Function  
  ----- ------------  ---------------      ----- ------------  ---------------
     3      2.669620  1 He s                  2     -1.776737  1 He s          
     4     -1.138512  1 He s                  1     -0.103928  1 He s          

 Vector    7  Occ=0.000000D+00  E= 3.695851D+00
              MO Center=  1.3D-16, -3.3D-17, -2.3D-16, r^2= 4.2D-01
   Bfn.  Coefficient  Atom+Function         Bfn.  Coefficient  Atom+Function  
  ----- ------------  ---------------      ----- ------------  ---------------
    22     -0.710200  1 He d  1              20      0.663517  1 He d -1       
    19      0.386783  1 He d -2              23      0.087106  1 He d  2       
    17      0.071848  1 He d  1              15     -0.067126  1 He d -1       
    21     -0.060079  1 He d  0              14     -0.039129  1 He d -2       

 Vector    8  Occ=0.000000D+00  E= 3.695851D+00
              MO Center= -2.2D-17,  7.2D-17,  1.5D-16, r^2= 4.2D-01
   Bfn.  Coefficient  Atom+Function         Bfn.  Coefficient  Atom+Function  
  ----- ------------  ---------------      ----- ------------  ---------------
    22      0.701880  1 He d  1              19      0.504100  1 He d -2       
    20      0.477290  1 He d -1              21      0.350347  1 He d  0       
    23      0.090190  1 He d  2              17     -0.071007  1 He d  1       
    14     -0.050998  1 He d -2              15     -0.048286  1 He d -1       
    16     -0.035443  1 He d  0       

 Vector    9  Occ=0.000000D+00  E= 3.695851D+00
              MO Center= -4.4D-16,  4.6D-16,  9.8D-17, r^2= 4.2D-01
   Bfn.  Coefficient  Atom+Function         Bfn.  Coefficient  Atom+Function  
  ----- ------------  ---------------      ----- ------------  ---------------
    19      0.755892  1 He d -2              20     -0.590143  1 He d -1       
    23     -0.330055  1 He d  2              22     -0.196693  1 He d  1       
    21      0.195369  1 He d  0              14     -0.076471  1 He d -2       
    15      0.059703  1 He d -1              18      0.033390  1 He d  2       

 Vector   10  Occ=0.000000D+00  E= 3.695851D+00
              MO Center=  1.1D-16,  5.4D-17,  3.7D-17, r^2= 4.2D-01
   Bfn.  Coefficient  Atom+Function         Bfn.  Coefficient  Atom+Function  
  ----- ------------  ---------------      ----- ------------  ---------------
    23      0.808716  1 He d  2              21     -0.528017  1 He d  0       
    19      0.323672  1 He d -2              20     -0.243422  1 He d -1       
    22      0.092710  1 He d  1              18     -0.081815  1 He d  2       
    16      0.053418  1 He d  0              14     -0.032745  1 He d -2       

 Vector   11  Occ=0.000000D+00  E= 3.695851D+00
              MO Center= -2.2D-16,  1.3D-15, -1.4D-15, r^2= 4.2D-01
   Bfn.  Coefficient  Atom+Function         Bfn.  Coefficient  Atom+Function  
  ----- ------------  ---------------      ----- ------------  ---------------
    21      0.813703  1 He d  0              23      0.571627  1 He d  2       
    22     -0.247251  1 He d  1              20     -0.172777  1 He d -1       
    19     -0.159944  1 He d -2              16     -0.082319  1 He d  0       
    18     -0.057829  1 He d  2              17      0.025014  1 He d  1       

 Vector   12  Occ=0.000000D+00  E= 4.538568D+00
              MO Center=  5.5D-17,  1.1D-16, -1.0D-16, r^2= 3.6D-01
   Bfn.  Coefficient  Atom+Function         Bfn.  Coefficient  Atom+Function  
  ----- ------------  ---------------      ----- ------------  ---------------
    10      1.365547  1 He pz                13     -0.819965  1 He pz         
     9     -0.416081  1 He py                 8     -0.274203  1 He px         
    12      0.249843  1 He py                11      0.164650  1 He px         
     7     -0.102283  1 He pz                 6      0.031166  1 He py         

 Vector   13  Occ=0.000000D+00  E= 4.538568D+00
              MO Center=  9.7D-17,  2.6D-17,  9.5D-17, r^2= 3.6D-01
   Bfn.  Coefficient  Atom+Function         Bfn.  Coefficient  Atom+Function  
  ----- ------------  ---------------      ----- ------------  ---------------
     9      1.241933  1 He py                12     -0.745739  1 He py         
     8     -0.718177  1 He px                11      0.431242  1 He px         
    10      0.234205  1 He pz                13     -0.140632  1 He pz         
     6     -0.093024  1 He py                 5      0.053793  1 He px         

 Vector   14  Occ=0.000000D+00  E= 4.538568D+00
              MO Center=  4.3D-17,  1.6D-18,  1.2D-16, r^2= 3.6D-01
   Bfn.  Coefficient  Atom+Function         Bfn.  Coefficient  Atom+Function  
  ----- ------------  ---------------      ----- ------------  ---------------
     8      1.233719  1 He px                11     -0.740807  1 He px         
     9      0.630482  1 He py                10      0.439839  1 He pz         
    12     -0.378583  1 He py                13     -0.264109  1 He pz         
     5     -0.092409  1 He px                 6     -0.047225  1 He py         
     7     -0.032945  1 He pz         

 Vector   15  Occ=0.000000D+00  E= 1.131744D+01
              MO Center= -3.8D-17, -3.2D-16,  6.0D-16, r^2= 2.4D-01
   Bfn.  Coefficient  Atom+Function         Bfn.  Coefficient  Atom+Function  
  ----- ------------  ---------------      ----- ------------  ---------------
    25      0.812639  1 He f -2              26     -0.397134  1 He f -1       
    28      0.305182  1 He f  1              30     -0.278632  1 He f  3       
    29     -0.083743  1 He f  2              24      0.063684  1 He f -3       

 Vector   16  Occ=0.000000D+00  E= 1.131744D+01
              MO Center=  3.6D-16,  2.9D-17,  4.1D-16, r^2= 2.4D-01
   Bfn.  Coefficient  Atom+Function         Bfn.  Coefficient  Atom+Function  
  ----- ------------  ---------------      ----- ------------  ---------------
    28      0.708091  1 He f  1              24     -0.434888  1 He f -3       
    26      0.402630  1 He f -1              27     -0.319636  1 He f  0       
    30     -0.162185  1 He f  3              29      0.110011  1 He f  2       
    25     -0.082432  1 He f -2       

 Vector   17  Occ=0.000000D+00  E= 1.131744D+01
              MO Center=  5.1D-16,  2.9D-16, -1.4D-16, r^2= 2.4D-01
   Bfn.  Coefficient  Atom+Function         Bfn.  Coefficient  Atom+Function  
  ----- ------------  ---------------      ----- ------------  ---------------
    24      0.794755  1 He f -3              28      0.518510  1 He f  1       
    25     -0.259570  1 He f -2              27      0.170552  1 He f  0       
    29      0.045291  1 He f  2              30     -0.031320  1 He f  3       

 Vector   18  Occ=0.000000D+00  E= 1.131744D+01
              MO Center= -1.1D-16, -3.8D-17, -1.0D-16, r^2= 2.4D-01
   Bfn.  Coefficient  Atom+Function         Bfn.  Coefficient  Atom+Function  
  ----- ------------  ---------------      ----- ------------  ---------------
    26      0.627817  1 He f -1              30     -0.415931  1 He f  3       
    29      0.397151  1 He f  2              27      0.336626  1 He f  0       
    25      0.288831  1 He f -2              28     -0.243180  1 He f  1       
    24      0.138717  1 He f -3       

 Vector   19  Occ=0.000000D+00  E= 1.131744D+01
              MO Center=  2.6D-16, -3.6D-16,  6.9D-17, r^2= 2.4D-01
   Bfn.  Coefficient  Atom+Function         Bfn.  Coefficient  Atom+Function  
  ----- ------------  ---------------      ----- ------------  ---------------
    30      0.719249  1 He f  3              26      0.428466  1 He f -1       
    25      0.374447  1 He f -2              29     -0.309000  1 He f  2       
    27      0.212450  1 He f  0              28      0.130422  1 He f  1       
    24      0.035516  1 He f -3       

 Vector   20  Occ=0.000000D+00  E= 1.131744D+01
              MO Center= -1.5D-16, -2.0D-16,  2.3D-16, r^2= 2.4D-01
   Bfn.  Coefficient  Atom+Function         Bfn.  Coefficient  Atom+Function  
  ----- ------------  ---------------      ----- ------------  ---------------
    29      0.794294  1 He f  2              30      0.402604  1 He f  3       
    26     -0.294037  1 He f -1              27      0.258816  1 He f  0       
    24     -0.171122  1 He f -3              28      0.151822  1 He f  1       
    25      0.035092  1 He f -2       

 Vector   21  Occ=0.000000D+00  E= 1.131744D+01
              MO Center=  1.2D-16,  1.3D-16, -1.6D-16, r^2= 2.4D-01
   Bfn.  Coefficient  Atom+Function         Bfn.  Coefficient  Atom+Function  
  ----- ------------  ---------------      ----- ------------  ---------------
    27      0.802026  1 He f  0              24     -0.354111  1 He f -3       
    29     -0.307768  1 He f  2              30     -0.206572  1 He f  3       
    25     -0.201446  1 He f -2              28      0.193449  1 He f  1       
    26     -0.126349  1 He f -1       

 Vector   22  Occ=0.000000D+00  E= 1.299110D+01
              MO Center= -1.9D-17, -1.7D-17,  3.5D-17, r^2= 2.2D-01
   Bfn.  Coefficient  Atom+Function         Bfn.  Coefficient  Atom+Function  
  ----- ------------  ---------------      ----- ------------  ---------------
     2      2.387414  1 He s                  1     -1.677058  1 He s          
     3     -1.602648  1 He s                  4      0.535828  1 He s          

 Vector   23  Occ=0.000000D+00  E= 1.583967D+01
              MO Center= -4.0D-16,  2.1D-16,  1.4D-16, r^2= 1.5D-01
   Bfn.  Coefficient  Atom+Function         Bfn.  Coefficient  Atom+Function  
  ----- ------------  ---------------      ----- ------------  ---------------
    14      0.889762  1 He d -2              17      0.550822  1 He d  1       
    15      0.398419  1 He d -1              19     -0.395302  1 He d -2       
    16      0.303741  1 He d  0              22     -0.244718  1 He d  1       
    20     -0.177009  1 He d -1              21     -0.134945  1 He d  0       
    18      0.130834  1 He d  2              23     -0.058127  1 He d  2       

 Vector   24  Occ=0.000000D+00  E= 1.583967D+01
              MO Center= -1.7D-16, -3.1D-16, -3.2D-16, r^2= 1.5D-01
   Bfn.  Coefficient  Atom+Function         Bfn.  Coefficient  Atom+Function  
  ----- ------------  ---------------      ----- ------------  ---------------
    16      0.924806  1 He d  0              15      0.503658  1 He d -1       
    21     -0.410871  1 He d  0              17     -0.386978  1 He d  1       
    14     -0.277213  1 He d -2              20     -0.223765  1 He d -1       
    22      0.171926  1 He d  1              18     -0.166305  1 He d  2       
    19      0.123160  1 He d -2              23      0.073886  1 He d  2       

 Vector   25  Occ=0.000000D+00  E= 1.583967D+01
              MO Center= -2.0D-17,  3.2D-16,  3.9D-17, r^2= 1.5D-01
   Bfn.  Coefficient  Atom+Function         Bfn.  Coefficient  Atom+Function  
  ----- ------------  ---------------      ----- ------------  ---------------
    18      1.108729  1 He d  2              23     -0.492584  1 He d  2       
    15      0.275102  1 He d -1              17     -0.168646  1 He d  1       
    14     -0.158429  1 He d -2              20     -0.122222  1 He d -1       
    22      0.074926  1 He d  1              19      0.070387  1 He d -2       
    16     -0.068502  1 He d  0              21      0.030434  1 He d  0       

 Vector   26  Occ=0.000000D+00  E= 1.583967D+01
              MO Center= -6.4D-17, -1.3D-16, -2.2D-16, r^2= 1.5D-01
   Bfn.  Coefficient  Atom+Function         Bfn.  Coefficient  Atom+Function  
  ----- ------------  ---------------      ----- ------------  ---------------
    17      0.935366  1 He d  1              14     -0.647645  1 He d -2       
    22     -0.415563  1 He d  1              19      0.287735  1 He d -2       
    16      0.243247  1 He d  0              21     -0.108069  1 He d  0       
    18      0.079221  1 He d  2              15     -0.058276  1 He d -1       
    23     -0.035196  1 He d  2              20      0.025891  1 He d -1       

 Vector   27  Occ=0.000000D+00  E= 1.583967D+01
              MO Center= -5.3D-17, -2.2D-16, -4.5D-16, r^2= 1.5D-01
   Bfn.  Coefficient  Atom+Function         Bfn.  Coefficient  Atom+Function  
  ----- ------------  ---------------      ----- ------------  ---------------
    15      0.933653  1 He d -1              16     -0.593134  1 He d  0       
    20     -0.414802  1 He d -1              18     -0.287862  1 He d  2       
    21      0.263517  1 He d  0              14     -0.223890  1 He d -2       
    23      0.127891  1 He d  2              19      0.099469  1 He d -2       
    17      0.081777  1 He d  1              22     -0.036332  1 He d  1       

 Vector   28  Occ=0.000000D+00  E= 1.740003D+01
              MO Center=  1.6D-16,  2.8D-16,  2.7D-17, r^2= 1.3D-01
   Bfn.  Coefficient  Atom+Function         Bfn.  Coefficient  Atom+Function  
  ----- ------------  ---------------      ----- ------------  ---------------
     5      0.939099  1 He px                 7     -0.941659  1 He pz         
     8     -0.765565  1 He px                10      0.767652  1 He pz         
     6      0.392468  1 He py                 9     -0.319945  1 He py         
    11      0.285798  1 He px                13     -0.286577  1 He pz         
    12      0.119441  1 He py         

 Vector   29  Occ=0.000000D+00  E= 1.740003D+01
              MO Center=  2.5D-17,  1.5D-16, -9.0D-17, r^2= 1.3D-01
   Bfn.  Coefficient  Atom+Function         Bfn.  Coefficient  Atom+Function  
  ----- ------------  ---------------      ----- ------------  ---------------
     7      0.988191  1 He pz                10     -0.805585  1 He pz         
     5      0.715502  1 He px                 6      0.658937  1 He py         
     8     -0.583286  1 He px                 9     -0.537173  1 He py         
    13      0.300738  1 He pz                11      0.217750  1 He px         
    12      0.200536  1 He py         

 Vector   30  Occ=0.000000D+00  E= 1.740003D+01
              MO Center=  3.5D-17, -2.2D-17,  2.9D-16, r^2= 1.3D-01
   Bfn.  Coefficient  Atom+Function         Bfn.  Coefficient  Atom+Function  
  ----- ------------  ---------------      ----- ------------  ---------------
     6      1.155176  1 He py                 9     -0.941713  1 He py         
     5     -0.727194  1 He px                 8      0.592817  1 He px         
    12      0.351557  1 He py                 7     -0.243758  1 He pz         
    11     -0.221309  1 He px                10      0.198715  1 He pz         
    13     -0.074183  1 He pz         


 Parallel integral file used       4 records with       0 large values

                   NWChem MP2 Semi-direct Energy/Gradient Module
                   ---------------------------------------------


  Basis functions       =     30
  Molecular orbitals    =     30
  Frozen core           =      0
  Frozen virtuals       =      0
  Active alpha occupied =      1
  Active beta occupied  =      1
  Active alpha virtual  =     29
  Active beta virtual   =     29
  Use MO symmetry       = F
  Use skeleton AO sym   = F

  AO/Fock/Back tols     =   1.0D-09  1.0D-09  1.0D-09
  #avail    536870912.00000000     
  #avail    536870912.00000000     
  #avail    536870912.00000000     
  #avail    536870912.00000000     

 GA uses MA = F    GA memory limited = T

 Available: 
  local mem=  1.72D+08
 global mem=  1.72D+08
 local disk=  5.37D+08
  mp2_memr nvloc                     8
  nvloc new                     8
   1 passes of   1:         736083                       1908                     10049.

 Semi-direct pass number   1 of   1  for RHF alpha+beta  at        0.2s
  vrange nnbf                   465
Node 0 wrote      0.0 Mb in      0.0 s     Agg I/O rate:   712.9 Mb/s
 Done moints_semi at        0.2s
 Done maket at        0.2s
 Done multipass loop at        0.2s


          -------------------------------------------
          DFT energy                      -2.893701522553
          Unscaled MP2 energy             -0.039977160388
          Total DFT+MP2 energy            -2.904495355858
          -------------------------------------------

 -----------------------
 Performance information
 -----------------------

 Timer overhead =  5.23D-07 seconds/call

               Nr. of calls         CPU time (s)                 Wall time (s)                GFlops
             ---------------    -------------------     ------------------------------   -------------------
Name         Min   Avg   Max    Min     Avg     Max     Min     Avg     Max   Mx/calls   Min     Max     Sum
mp2: moin     1     1     1   1.51E-2 1.52E-2 1.52E-2  1.52E-2 1.52E-2 1.52E-2 1.52E-2   0.0     0.0     0.0   
mp2: make     1     1     1   9.97E-4 9.98E-4 1.00E-3  9.98E-4 9.99E-4 1.00E-3 1.00E-3   0.0     0.0     0.0   
mp2: tota     1     1     1   4.00E-2 4.00E-2 4.01E-2  4.01E-2 4.01E-2 4.01E-2 4.01E-2   0.0     0.0     0.0   

 The average no. of pstat calls per process was 3.00D+00
 with a timing overhead of 1.57D-06s


 Task  times  cpu:        0.1s     wall:        0.2s


                                NWChem Input Module
                                -------------------



                                 NWChem DFT Module
                                 -----------------




 Summary of "ao basis" -> "ao basis" (spherical)
 ------------------------------------------------------------------------------
       Tag                 Description            Shells   Functions and Types
 ---------------- ------------------------------  ------  ---------------------
 He                         cc-pvqz                 10       30   4s3p2d1f


  Caching 1-el integrals 

            General Information
            -------------------
          SCF calculation type: DFT
          Wavefunction type:  closed shell.
          No. of atoms     :     1
          No. of electrons :     2
           Alpha electrons :     1
            Beta electrons :     1
          Charge           :     0
          Spin multiplicity:     1
          Use of symmetry is: off; symmetry adaption is: off
          Maximum number of iterations: 100
          This is a Direct SCF calculation.
          AO basis - number of functions:    30
                     number of shells:    10
          Convergence on energy requested:  1.00D-08
          Convergence on density requested:  1.00D-05
          Convergence on gradient requested:  5.00D-04

              XC Information
              --------------
                     Hartree-Fock (Exact) Exchange  0.530          
                    Becke 1988 Exchange Functional  0.470          
              Lee-Yang-Parr Correlation Functional  0.730          

             Grid Information
             ----------------
          Grid used for XC integration:  medium    
          Radial quadrature: Mura-Knowles        
          Angular quadrature: Lebedev. 
          Tag              B.-S. Rad. Rad. Pts. Rad. Cut. Ang. Pts.
          ---              ---------- --------- --------- ---------
          He                  0.35       49           4.0       434
          Grid pruning is: on 
          Number of quadrature shells:    49
          Spatial weights used:  Erf1

          Convergence Information
          -----------------------
          Convergence aids based upon iterative change in 
          total energy or number of iterations. 
          Levelshifting, if invoked, occurs when the 
          HOMO/LUMO gap drops below (HL_TOL):  1.00D-02
          DIIS, if invoked, will attempt to extrapolate 
          using up to (NFOCK): 10 stored Fock matrices.

                    Damping( 0%)  Levelshifting(0.5)       DIIS
                  --------------- ------------------- ---------------
          dE  on:    start            ASAP                start   
          dE off:    2 iters        100 iters           100 iters 


      Screening Tolerance Information
      -------------------------------
          Density screening/tol_rho:  1.00D-11
          AO Gaussian exp screening on grid/accAOfunc:  18
          CD Gaussian exp screening on grid/accCDfunc:  20
          XC Gaussian exp screening on grid/accXCfunc:  20
          Schwarz screening/accCoul:  1.00D-09


 Loading old vectors from job with title :



   Time after variat. SCF:      0.2
   Time prior to 1st pass:      0.2

 Grid_pts file          = ./He_b2plyp_cc-vqz.gridpts.0
 Record size in doubles =  12289        No. of grid_pts per rec  =   3070
 Max. records in memory =      3        Max. recs in file   =    862003


           Memory utilization after 1st SCF pass: 
           Heap Space remaining (MW):       86.21            86208944
          Stack Space remaining (MW):       86.25            86246884

   convergence    iter        energy       DeltaE   RMS-Dens  Diis-err    time
 ---------------- ----- ----------------- --------- --------- ---------  ------
 d= 0,ls=0.0,diis     1     -2.8937015226 -2.89D+00  4.82D-10  3.58D-16     0.2
  Singularity in Pulay matrix. Error and Fock matrices removed. 
 d= 0,ls=0.0,diis     2     -2.8937015226 -8.88D-16  3.97D-11  6.87D-18     0.3


         Total DFT energy =       -2.893701522553
      One electron energy =       -3.882803789453
           Coulomb energy =        2.043369346027
    Exchange-Corr. energy =       -1.054267079128
 Nuclear repulsion energy =        0.000000000000

 Numeric. integr. density =        1.999999953047

     Total iterative time =      0.0s



                       DFT Final Molecular Orbital Analysis
                       ------------------------------------

 Vector    1  Occ=2.000000D+00  E=-7.678053D-01
              MO Center=  1.5D-17,  8.4D-18,  2.8D-18, r^2= 3.4D-01
   Bfn.  Coefficient  Atom+Function         Bfn.  Coefficient  Atom+Function  
  ----- ------------  ---------------      ----- ------------  ---------------
     3      0.435628  1 He s                  2      0.309512  1 He s          
     4      0.256357  1 He s                  1      0.163343  1 He s          

 Vector    2  Occ=0.000000D+00  E= 4.114853D-01
              MO Center=  1.3D-16,  1.1D-16,  8.1D-16, r^2= 1.8D+00
   Bfn.  Coefficient  Atom+Function         Bfn.  Coefficient  Atom+Function  
  ----- ------------  ---------------      ----- ------------  ---------------
     4      1.669910  1 He s                  3     -1.306012  1 He s          
     1     -0.116004  1 He s          

 Vector    3  Occ=0.000000D+00  E= 9.614473D-01
              MO Center= -5.7D-17, -3.0D-17,  1.6D-16, r^2= 6.8D-01
   Bfn.  Coefficient  Atom+Function         Bfn.  Coefficient  Atom+Function  
  ----- ------------  ---------------      ----- ------------  ---------------
    12      0.947685  1 He py                11     -0.547881  1 He px         
     9     -0.140091  1 He py                 8      0.080990  1 He px         
    13      0.045179  1 He pz                 6      0.037795  1 He py         

 Vector    4  Occ=0.000000D+00  E= 9.614473D-01
              MO Center= -5.6D-16, -4.7D-16,  5.2D-17, r^2= 6.8D-01
   Bfn.  Coefficient  Atom+Function         Bfn.  Coefficient  Atom+Function  
  ----- ------------  ---------------      ----- ------------  ---------------
    11      0.946316  1 He px                12      0.542105  1 He py         
     8     -0.139889  1 He px                13      0.104544  1 He pz         
     9     -0.080137  1 He py                 5      0.037741  1 He px         

 Vector    5  Occ=0.000000D+00  E= 9.614473D-01
              MO Center=  1.5D-16, -4.8D-17, -1.5D-15, r^2= 6.8D-01
   Bfn.  Coefficient  Atom+Function         Bfn.  Coefficient  Atom+Function  
  ----- ------------  ---------------      ----- ------------  ---------------
    13      1.089656  1 He pz                10     -0.161078  1 He pz         
    12     -0.091304  1 He py                11     -0.068076  1 He px         
     7      0.043457  1 He pz         

 Vector    6  Occ=0.000000D+00  E= 2.587113D+00
              MO Center=  4.0D-16,  6.3D-16,  2.3D-16, r^2= 7.6D-01
   Bfn.  Coefficient  Atom+Function         Bfn.  Coefficient  Atom+Function  
  ----- ------------  ---------------      ----- ------------  ---------------
     3      2.669620  1 He s                  2     -1.776737  1 He s          
     4     -1.138512  1 He s                  1     -0.103928  1 He s          

 Vector    7  Occ=0.000000D+00  E= 3.695851D+00
              MO Center= -4.0D-17, -3.1D-16, -1.4D-16, r^2= 4.2D-01
   Bfn.  Coefficient  Atom+Function         Bfn.  Coefficient  Atom+Function  
  ----- ------------  ---------------      ----- ------------  ---------------
    20      0.871556  1 He d -1              23     -0.446893  1 He d  2       
    19     -0.348529  1 He d -2              22     -0.150521  1 He d  1       
    15     -0.088172  1 He d -1              18      0.045211  1 He d  2       
    21     -0.044552  1 He d  0              14      0.035259  1 He d -2       

 Vector    8  Occ=0.000000D+00  E= 3.695851D+00
              MO Center= -2.3D-16,  7.0D-16, -4.7D-16, r^2= 4.2D-01
   Bfn.  Coefficient  Atom+Function         Bfn.  Coefficient  Atom+Function  
  ----- ------------  ---------------      ----- ------------  ---------------
    23      0.801358  1 He d  2              22     -0.483434  1 He d  1       
    19     -0.330128  1 He d -2              21      0.276875  1 He d  0       
    20      0.209545  1 He d -1              18     -0.081070  1 He d  2       
    17      0.048907  1 He d  1              14      0.033398  1 He d -2       
    16     -0.028010  1 He d  0       

 Vector    9  Occ=0.000000D+00  E= 3.695851D+00
              MO Center= -8.8D-17,  2.7D-16, -2.9D-16, r^2= 4.2D-01
   Bfn.  Coefficient  Atom+Function         Bfn.  Coefficient  Atom+Function  
  ----- ------------  ---------------      ----- ------------  ---------------
    22      0.663627  1 He d  1              20      0.495637  1 He d -1       
    23      0.494292  1 He d  2              19      0.348602  1 He d -2       
    21     -0.231366  1 He d  0              17     -0.067137  1 He d  1       
    15     -0.050142  1 He d -1              18     -0.050006  1 He d  2       
    14     -0.035267  1 He d -2       

 Vector   10  Occ=0.000000D+00  E= 3.695851D+00
              MO Center=  1.3D-16, -7.1D-17, -1.6D-16, r^2= 4.2D-01
   Bfn.  Coefficient  Atom+Function         Bfn.  Coefficient  Atom+Function  
  ----- ------------  ---------------      ----- ------------  ---------------
    19      0.838585  1 He d -2              22     -0.592739  1 He d  1       
    20      0.208424  1 He d -1              14     -0.084837  1 He d -2       
    21     -0.076216  1 He d  0              17      0.059965  1 He d  1       
    23     -0.040283  1 He d  2       

 Vector   11  Occ=0.000000D+00  E= 3.695851D+00
              MO Center= -2.6D-17, -3.3D-17,  2.6D-16, r^2= 4.2D-01
   Bfn.  Coefficient  Atom+Function         Bfn.  Coefficient  Atom+Function  
  ----- ------------  ---------------      ----- ------------  ---------------
    21      0.983592  1 He d  0              22      0.239438  1 He d  1       
    19      0.224122  1 He d -2              23     -0.132670  1 He d  2       
    20      0.113229  1 He d -1              16     -0.099506  1 He d  0       

 Vector   12  Occ=0.000000D+00  E= 4.538568D+00
              MO Center= -1.8D-17,  1.1D-17,  3.3D-17, r^2= 3.6D-01
   Bfn.  Coefficient  Atom+Function         Bfn.  Coefficient  Atom+Function  
  ----- ------------  ---------------      ----- ------------  ---------------
     8      1.042613  1 He px                 9     -0.806261  1 He py         
    11     -0.626055  1 He px                10     -0.613131  1 He pz         
    12      0.484133  1 He py                13      0.368164  1 He pz         
     5     -0.078095  1 He px                 6      0.060391  1 He py         
     7      0.045925  1 He pz         

 Vector   13  Occ=0.000000D+00  E= 4.538568D+00
              MO Center=  2.7D-16, -2.3D-16,  3.4D-16, r^2= 3.6D-01
   Bfn.  Coefficient  Atom+Function         Bfn.  Coefficient  Atom+Function  
  ----- ------------  ---------------      ----- ------------  ---------------
     8      1.011907  1 He px                 9      0.868212  1 He py         
    11     -0.607617  1 He px                10      0.579033  1 He pz         
    12     -0.521333  1 He py                13     -0.347690  1 He pz         
     5     -0.075795  1 He px                 6     -0.065031  1 He py         
     7     -0.043371  1 He pz         

 Vector   14  Occ=0.000000D+00  E= 4.538568D+00
              MO Center=  1.5D-16,  3.0D-17, -2.0D-17, r^2= 3.6D-01
   Bfn.  Coefficient  Atom+Function         Bfn.  Coefficient  Atom+Function  
  ----- ------------  ---------------      ----- ------------  ---------------
    10      1.183985  1 He pz                 9     -0.842128  1 He py         
    13     -0.710943  1 He pz                12      0.505670  1 He py         
     7     -0.088684  1 He pz                 6      0.063078  1 He py         
     8      0.045043  1 He px                11     -0.027047  1 He px         

 Vector   15  Occ=0.000000D+00  E= 1.131744D+01
              MO Center=  4.5D-17, -2.2D-17, -7.6D-17, r^2= 2.4D-01
   Bfn.  Coefficient  Atom+Function         Bfn.  Coefficient  Atom+Function  
  ----- ------------  ---------------      ----- ------------  ---------------
    25      0.774467  1 He f -2              26     -0.407259  1 He f -1       
    28     -0.358120  1 He f  1              30      0.280677  1 He f  3       
    27     -0.139807  1 He f  0              29      0.065057  1 He f  2       
    24      0.059432  1 He f -3       

 Vector   16  Occ=0.000000D+00  E= 1.131744D+01
              MO Center= -6.0D-17,  1.1D-16, -1.0D-16, r^2= 2.4D-01
   Bfn.  Coefficient  Atom+Function         Bfn.  Coefficient  Atom+Function  
  ----- ------------  ---------------      ----- ------------  ---------------
    27     -0.528927  1 He f  0              26      0.515137  1 He f -1       
    29      0.478605  1 He f  2              24      0.361787  1 He f -3       
    28     -0.272890  1 He f  1              30      0.127410  1 He f  3       
    25     -0.064923  1 He f -2       

 Vector   17  Occ=0.000000D+00  E= 1.131744D+01
              MO Center=  4.4D-18,  6.9D-17,  7.7D-17, r^2= 2.4D-01
   Bfn.  Coefficient  Atom+Function         Bfn.  Coefficient  Atom+Function  
  ----- ------------  ---------------      ----- ------------  ---------------
    26      0.660347  1 He f -1              29     -0.613450  1 He f  2       
    25      0.328191  1 He f -2              28     -0.242819  1 He f  1       
    27      0.130625  1 He f  0              24     -0.047985  1 He f -3       
    30     -0.039817  1 He f  3       

 Vector   18  Occ=0.000000D+00  E= 1.131744D+01
              MO Center= -8.4D-17, -4.8D-17,  8.4D-17, r^2= 2.4D-01
   Bfn.  Coefficient  Atom+Function         Bfn.  Coefficient  Atom+Function  
  ----- ------------  ---------------      ----- ------------  ---------------
    27      0.554432  1 He f  0              28     -0.521964  1 He f  1       
    30      0.486424  1 He f  3              25     -0.363616  1 He f -2       
    24      0.219111  1 He f -3              26     -0.051447  1 He f -1       
    29      0.026041  1 He f  2       

 Vector   19  Occ=0.000000D+00  E= 1.131744D+01
              MO Center=  6.3D-17,  3.6D-17,  1.9D-17, r^2= 2.4D-01
   Bfn.  Coefficient  Atom+Function         Bfn.  Coefficient  Atom+Function  
  ----- ------------  ---------------      ----- ------------  ---------------
    30      0.615404  1 He f  3              27     -0.481338  1 He f  0       
    24     -0.477644  1 He f -3              29     -0.303592  1 He f  2       
    25     -0.257500  1 He f -2              26     -0.045256  1 He f -1       
    28      0.030414  1 He f  1       

 Vector   20  Occ=0.000000D+00  E= 1.131744D+01
              MO Center= -1.3D-16,  1.1D-16,  1.0D-16, r^2= 2.4D-01
   Bfn.  Coefficient  Atom+Function         Bfn.  Coefficient  Atom+Function  
  ----- ------------  ---------------      ----- ------------  ---------------
    28      0.563230  1 He f  1              30      0.487782  1 He f  3       
    27      0.350867  1 He f  0              29      0.340247  1 He f  2       
    26      0.327863  1 He f -1              25      0.298304  1 He f -2       
    24     -0.097396  1 He f -3       

 Vector   21  Occ=0.000000D+00  E= 1.131744D+01
              MO Center=  4.7D-17, -1.2D-16,  7.0D-17, r^2= 2.4D-01
   Bfn.  Coefficient  Atom+Function         Bfn.  Coefficient  Atom+Function  
  ----- ------------  ---------------      ----- ------------  ---------------
    24      0.760024  1 He f -3              29     -0.426344  1 He f  2       
    28      0.384345  1 He f  1              30      0.223920  1 He f  3       
    27     -0.146418  1 He f  0              26     -0.143273  1 He f -1       
    25     -0.027709  1 He f -2       

 Vector   22  Occ=0.000000D+00  E= 1.299110D+01
              MO Center= -3.9D-18,  2.1D-17,  5.5D-17, r^2= 2.2D-01
   Bfn.  Coefficient  Atom+Function         Bfn.  Coefficient  Atom+Function  
  ----- ------------  ---------------      ----- ------------  ---------------
     2      2.387414  1 He s                  1     -1.677058  1 He s          
     3     -1.602648  1 He s                  4      0.535828  1 He s          

 Vector   23  Occ=0.000000D+00  E= 1.583967D+01
              MO Center=  1.2D-16,  5.9D-16,  3.0D-16, r^2= 1.5D-01
   Bfn.  Coefficient  Atom+Function         Bfn.  Coefficient  Atom+Function  
  ----- ------------  ---------------      ----- ------------  ---------------
    14      0.918368  1 He d -2              15      0.564218  1 He d -1       
    17     -0.433546  1 He d  1              19     -0.408011  1 He d -2       
    20     -0.250670  1 He d -1              22      0.192615  1 He d  1       
    16      0.115860  1 He d  0              21     -0.051474  1 He d  0       

 Vector   24  Occ=0.000000D+00  E= 1.583967D+01
              MO Center= -4.3D-17, -2.9D-17,  3.3D-16, r^2= 1.5D-01
   Bfn.  Coefficient  Atom+Function         Bfn.  Coefficient  Atom+Function  
  ----- ------------  ---------------      ----- ------------  ---------------
    16      1.121163  1 He d  0              21     -0.498108  1 He d  0       
    18     -0.249339  1 He d  2              14     -0.173073  1 He d -2       
    23      0.110776  1 He d  2              15      0.098543  1 He d -1       
    19      0.076893  1 He d -2              17      0.065983  1 He d  1       
    20     -0.043781  1 He d -1              22     -0.029315  1 He d  1       

 Vector   25  Occ=0.000000D+00  E= 1.583967D+01
              MO Center= -4.5D-17, -1.2D-17, -6.5D-17, r^2= 1.5D-01
   Bfn.  Coefficient  Atom+Function         Bfn.  Coefficient  Atom+Function  
  ----- ------------  ---------------      ----- ------------  ---------------
    15      0.887981  1 He d -1              14     -0.629804  1 He d -2       
    20     -0.394511  1 He d -1              18      0.357724  1 He d  2       
    19      0.279808  1 He d -2              17     -0.207588  1 He d  1       
    23     -0.158929  1 He d  2              22      0.092227  1 He d  1       
    16     -0.083498  1 He d  0              21      0.037096  1 He d  0       

 Vector   26  Occ=0.000000D+00  E= 1.583967D+01
              MO Center= -6.8D-17, -1.3D-16,  3.1D-17, r^2= 1.5D-01
   Bfn.  Coefficient  Atom+Function         Bfn.  Coefficient  Atom+Function  
  ----- ------------  ---------------      ----- ------------  ---------------
    18      1.049783  1 He d  2              23     -0.466396  1 He d  2       
    17      0.338410  1 He d  1              16      0.262877  1 He d  0       
    14      0.231268  1 He d -2              15     -0.155047  1 He d -1       
    22     -0.150348  1 He d  1              21     -0.116790  1 He d  0       
    19     -0.102747  1 He d -2              20      0.068884  1 He d -1       

 Vector   27  Occ=0.000000D+00  E= 1.583967D+01
              MO Center=  5.3D-17, -9.6D-17,  1.8D-16, r^2= 1.5D-01
   Bfn.  Coefficient  Atom+Function         Bfn.  Coefficient  Atom+Function  
  ----- ------------  ---------------      ----- ------------  ---------------
    17      1.006610  1 He d  1              15      0.471797  1 He d -1       
    22     -0.447215  1 He d  1              18     -0.266357  1 He d  2       
    20     -0.209609  1 He d -1              14      0.199254  1 He d -2       
    16     -0.129187  1 He d  0              23      0.118337  1 He d  2       
    19     -0.088524  1 He d -2              21      0.057395  1 He d  0       

 Vector   28  Occ=0.000000D+00  E= 1.740003D+01
              MO Center=  1.1D-16, -6.1D-17,  4.1D-17, r^2= 1.3D-01
   Bfn.  Coefficient  Atom+Function         Bfn.  Coefficient  Atom+Function  
  ----- ------------  ---------------      ----- ------------  ---------------
     6      1.008077  1 He py                 9     -0.821796  1 He py         
     7      0.697537  1 He pz                 5     -0.647986  1 He px         
    10     -0.568640  1 He pz                 8      0.528246  1 He px         
    12      0.306790  1 He py                13      0.212283  1 He pz         
    11     -0.197203  1 He px         

 Vector   29  Occ=0.000000D+00  E= 1.740003D+01
              MO Center= -2.6D-17, -2.2D-16, -4.2D-16, r^2= 1.3D-01
   Bfn.  Coefficient  Atom+Function         Bfn.  Coefficient  Atom+Function  
  ----- ------------  ---------------      ----- ------------  ---------------
     7      1.152241  1 He pz                10     -0.939321  1 He pz         
     5      0.683178  1 He px                 8     -0.556935  1 He px         
     6     -0.358148  1 He py                13      0.350664  1 He pz         
     9      0.291967  1 He py                11      0.207913  1 He px         
    12     -0.108996  1 He py         

 Vector   30  Occ=0.000000D+00  E= 1.740003D+01
              MO Center= -1.5D-16, -2.3D-16, -1.9D-16, r^2= 1.3D-01
   Bfn.  Coefficient  Atom+Function         Bfn.  Coefficient  Atom+Function  
  ----- ------------  ---------------      ----- ------------  ---------------
     5      1.017863  1 He px                 6      0.882141  1 He py         
     8     -0.829774  1 He px                 9     -0.719132  1 He py         
     7     -0.329309  1 He pz                11      0.309768  1 He px         
    10      0.268457  1 He pz                12      0.268464  1 He py         
    13     -0.100219  1 He pz         

                          Direct MP2
                          ----------
          Basis functions:                       30
          Shells:                                10
          Block length:                          32
          Active occupied range:           1 -    1
          Active virtual range:            2 -   30
          MO coefficients read from:  ./He_b2plyp_cc-vqz.movecs
          Operator matrices in core:              1
          AO passes required:                     1
          Use AO Integral blocking
          Twofold algorithm used

     Pass:    1     Index range:    1  -    1     Time:      0.01


          -------------------------------------------
          DFT energy                      -2.893701522553
          Unscaled MP2 energy             -0.039977160233
          Total DFT+MP2 energy            -2.904495355816
          -------------------------------------------


          Total MP2 time:           0.02

 Task  times  cpu:        0.1s     wall:        0.1s


                                NWChem Input Module
                                -------------------


                      Basis "cc-pVQZ-RI" -> "" (spherical)
                      -----
  He (Helium)
  -----------
            Exponent  Coefficients 
       -------------- ---------------------------------------------------------
  1 S  2.92519767E+01  1.000000

  2 S  6.34799592E+00  1.000000

  3 S  3.01411660E+00  1.000000

  4 S  8.33960873E-01  1.000000

  5 S  4.79647306E-01  1.000000

  6 P  8.69051356E+00  1.000000

  7 P  2.57967675E+00  1.000000

  8 P  1.19433037E+00  1.000000

  9 P  7.12788679E-01  1.000000

 10 D  7.29448346E+00  1.000000

 11 D  4.36322083E+00  1.000000

 12 D  1.73459004E+00  1.000000

 13 F  4.35070691E+00  1.000000

 14 F  2.70829796E+00  1.000000



 Summary of "cc-pVQZ-RI" -> "" (spherical)
 ------------------------------------------------------------------------------
       Tag                 Description            Shells   Functions and Types
 ---------------- ------------------------------  ------  ---------------------
 He                      user specified             14       46   5s4p3d2f



                                 NWChem DFT Module
                                 -----------------




 Summary of "ao basis" -> "ao basis" (spherical)
 ------------------------------------------------------------------------------
       Tag                 Description            Shells   Functions and Types
 ---------------- ------------------------------  ------  ---------------------
 He                         cc-pvqz                 10       30   4s3p2d1f


  Caching 1-el integrals 

            General Information
            -------------------
          SCF calculation type: DFT
          Wavefunction type:  closed shell.
          No. of atoms     :     1
          No. of electrons :     2
           Alpha electrons :     1
            Beta electrons :     1
          Charge           :     0
          Spin multiplicity:     1
          Use of symmetry is: off; symmetry adaption is: off
          Maximum number of iterations: 100
          This is a Direct SCF calculation.
          AO basis - number of functions:    30
                     number of shells:    10
          Convergence on energy requested:  1.00D-08
          Convergence on density requested:  1.00D-05
          Convergence on gradient requested:  5.00D-04

              XC Information
              --------------
                     Hartree-Fock (Exact) Exchange  0.530          
                    Becke 1988 Exchange Functional  0.470          
              Lee-Yang-Parr Correlation Functional  0.730          

             Grid Information
             ----------------
          Grid used for XC integration:  medium    
          Radial quadrature: Mura-Knowles        
          Angular quadrature: Lebedev. 
          Tag              B.-S. Rad. Rad. Pts. Rad. Cut. Ang. Pts.
          ---              ---------- --------- --------- ---------
          He                  0.35       49           4.0       434
          Grid pruning is: on 
          Number of quadrature shells:    49
          Spatial weights used:  Erf1

          Convergence Information
          -----------------------
          Convergence aids based upon iterative change in 
          total energy or number of iterations. 
          Levelshifting, if invoked, occurs when the 
          HOMO/LUMO gap drops below (HL_TOL):  1.00D-02
          DIIS, if invoked, will attempt to extrapolate 
          using up to (NFOCK): 10 stored Fock matrices.

                    Damping( 0%)  Levelshifting(0.5)       DIIS
                  --------------- ------------------- ---------------
          dE  on:    start            ASAP                start   
          dE off:    2 iters        100 iters           100 iters 


      Screening Tolerance Information
      -------------------------------
          Density screening/tol_rho:  1.00D-11
          AO Gaussian exp screening on grid/accAOfunc:  18
          CD Gaussian exp screening on grid/accCDfunc:  20
          XC Gaussian exp screening on grid/accXCfunc:  20
          Schwarz screening/accCoul:  1.00D-09


 Loading old vectors from job with title :



   Time after variat. SCF:      0.3
   Time prior to 1st pass:      0.3

 Grid_pts file          = ./He_b2plyp_cc-vqz.gridpts.0
 Record size in doubles =  12289        No. of grid_pts per rec  =   3070
 Max. records in memory =      3        Max. recs in file   =    862003


           Memory utilization after 1st SCF pass: 
           Heap Space remaining (MW):       86.21            86208944
          Stack Space remaining (MW):       86.25            86246884

   convergence    iter        energy       DeltaE   RMS-Dens  Diis-err    time
 ---------------- ----- ----------------- --------- --------- ---------  ------
 d= 0,ls=0.0,diis     1     -2.8937015226 -2.89D+00  5.14D-12  1.82D-20     0.3
  Singularity in Pulay matrix. Error and Fock matrices removed. 
 d= 0,ls=0.0,diis     2     -2.8937015226  1.33D-15  3.94D-13  6.87D-22     0.3


         Total DFT energy =       -2.893701522553
      One electron energy =       -3.882803789559
           Coulomb energy =        2.043369346275
    Exchange-Corr. energy =       -1.054267079269
 Nuclear repulsion energy =        0.000000000000

 Numeric. integr. density =        1.999999953047

     Total iterative time =      0.0s



                       DFT Final Molecular Orbital Analysis
                       ------------------------------------

 Vector    1  Occ=2.000000D+00  E=-7.678053D-01
              MO Center=  4.4D-18,  2.9D-18,  2.8D-18, r^2= 3.4D-01
   Bfn.  Coefficient  Atom+Function         Bfn.  Coefficient  Atom+Function  
  ----- ------------  ---------------      ----- ------------  ---------------
     3      0.435628  1 He s                  2      0.309512  1 He s          
     4      0.256357  1 He s                  1      0.163343  1 He s          

 Vector    2  Occ=0.000000D+00  E= 4.114853D-01
              MO Center=  2.6D-16,  4.0D-17,  3.9D-16, r^2= 1.8D+00
   Bfn.  Coefficient  Atom+Function         Bfn.  Coefficient  Atom+Function  
  ----- ------------  ---------------      ----- ------------  ---------------
     4      1.669910  1 He s                  3     -1.306012  1 He s          
     1     -0.116004  1 He s          

 Vector    3  Occ=0.000000D+00  E= 9.614473D-01
              MO Center= -3.1D-16, -2.1D-16,  2.2D-16, r^2= 6.8D-01
   Bfn.  Coefficient  Atom+Function         Bfn.  Coefficient  Atom+Function  
  ----- ------------  ---------------      ----- ------------  ---------------
    11      0.928575  1 He px                12      0.497072  1 He py         
    13     -0.301645  1 He pz                 8     -0.137267  1 He px         
     9     -0.073480  1 He py                10      0.044591  1 He pz         
     5      0.037033  1 He px         

 Vector    4  Occ=0.000000D+00  E= 9.614473D-01
              MO Center=  9.3D-16, -6.6D-17, -4.5D-16, r^2= 6.8D-01
   Bfn.  Coefficient  Atom+Function         Bfn.  Coefficient  Atom+Function  
  ----- ------------  ---------------      ----- ------------  ---------------
    12      0.926158  1 He py                13      0.475442  1 He pz         
    11     -0.341332  1 He px                 9     -0.136909  1 He py         
    10     -0.070282  1 He pz                 8      0.050457  1 He px         
     6      0.036937  1 He py         

 Vector    5  Occ=0.000000D+00  E= 9.614473D-01
              MO Center=  1.8D-16,  5.6D-16,  5.7D-17, r^2= 6.8D-01
   Bfn.  Coefficient  Atom+Function         Bfn.  Coefficient  Atom+Function  
  ----- ------------  ---------------      ----- ------------  ---------------
    13      0.939833  1 He pz                11      0.470704  1 He px         
    12     -0.308986  1 He py                10     -0.138931  1 He pz         
     8     -0.069582  1 He px                 9      0.045676  1 He py         
     7      0.037482  1 He pz         

 Vector    6  Occ=0.000000D+00  E= 2.587113D+00
              MO Center=  8.4D-17, -5.3D-17,  3.1D-16, r^2= 7.6D-01
   Bfn.  Coefficient  Atom+Function         Bfn.  Coefficient  Atom+Function  
  ----- ------------  ---------------      ----- ------------  ---------------
     3      2.669620  1 He s                  2     -1.776737  1 He s          
     4     -1.138512  1 He s                  1     -0.103928  1 He s          

 Vector    7  Occ=0.000000D+00  E= 3.695851D+00
              MO Center=  6.7D-18,  3.4D-16,  1.9D-17, r^2= 4.2D-01
   Bfn.  Coefficient  Atom+Function         Bfn.  Coefficient  Atom+Function  
  ----- ------------  ---------------      ----- ------------  ---------------
    19      0.996765  1 He d -2              20     -0.281693  1 He d -1       
    22      0.149127  1 He d  1              14     -0.100839  1 He d -2       
    21     -0.081590  1 He d  0              23      0.060408  1 He d  2       
    15      0.028498  1 He d -1       

 Vector    8  Occ=0.000000D+00  E= 3.695851D+00
              MO Center=  2.1D-16, -6.3D-17, -4.0D-16, r^2= 4.2D-01
   Bfn.  Coefficient  Atom+Function         Bfn.  Coefficient  Atom+Function  
  ----- ------------  ---------------      ----- ------------  ---------------
    21      1.005095  1 He d  0              22      0.302368  1 He d  1       
    16     -0.101682  1 He d  0              23      0.050304  1 He d  2       
    17     -0.030589  1 He d  1              19      0.027675  1 He d -2       

 Vector    9  Occ=0.000000D+00  E= 3.695851D+00
              MO Center= -5.5D-16, -4.8D-16,  2.5D-16, r^2= 4.2D-01
   Bfn.  Coefficient  Atom+Function         Bfn.  Coefficient  Atom+Function  
  ----- ------------  ---------------      ----- ------------  ---------------
    23      1.008922  1 He d  2              20      0.215698  1 He d -1       
    22      0.174274  1 He d  1              18     -0.102069  1 He d  2       
    21     -0.097189  1 He d  0              19     -0.034215  1 He d -2       

 Vector   10  Occ=0.000000D+00  E= 3.695851D+00
              MO Center= -1.8D-16, -3.8D-16, -1.5D-16, r^2= 4.2D-01
   Bfn.  Coefficient  Atom+Function         Bfn.  Coefficient  Atom+Function  
  ----- ------------  ---------------      ----- ------------  ---------------
    20      0.850951  1 He d -1              22     -0.490604  1 He d  1       
    19      0.331324  1 He d -2              21      0.160899  1 He d  0       
    15     -0.086088  1 He d -1              23     -0.070446  1 He d  2       
    17      0.049633  1 He d  1              14     -0.033519  1 He d -2       

 Vector   11  Occ=0.000000D+00  E= 3.695851D+00
              MO Center= -9.7D-16,  6.0D-16, -1.6D-16, r^2= 4.2D-01
   Bfn.  Coefficient  Atom+Function         Bfn.  Coefficient  Atom+Function  
  ----- ------------  ---------------      ----- ------------  ---------------
    22      0.848945  1 He d  1              20      0.504920  1 He d -1       
    23     -0.276353  1 He d  2              21     -0.230716  1 He d  0       
    17     -0.085885  1 He d  1              15     -0.051081  1 He d -1       
    18      0.027958  1 He d  2       

 Vector   12  Occ=0.000000D+00  E= 4.538568D+00
              MO Center=  1.8D-16, -1.7D-16,  8.1D-17, r^2= 3.6D-01
   Bfn.  Coefficient  Atom+Function         Bfn.  Coefficient  Atom+Function  
  ----- ------------  ---------------      ----- ------------  ---------------
     8      1.016373  1 He px                10      0.943850  1 He pz         
    11     -0.610298  1 He px                13     -0.566750  1 He pz         
     9      0.434927  1 He py                12     -0.261159  1 He py         
     5     -0.076129  1 He px                 7     -0.070697  1 He pz         
     6     -0.032577  1 He py         

 Vector   13  Occ=0.000000D+00  E= 4.538568D+00
              MO Center=  2.5D-18,  4.3D-17,  6.4D-17, r^2= 3.6D-01
   Bfn.  Coefficient  Atom+Function         Bfn.  Coefficient  Atom+Function  
  ----- ------------  ---------------      ----- ------------  ---------------
     9      1.347715  1 He py                12     -0.809258  1 He py         
     8     -0.543520  1 He px                11      0.326366  1 He px         
     6     -0.100948  1 He py                 5      0.040711  1 He px         
    10     -0.035746  1 He pz         

 Vector   14  Occ=0.000000D+00  E= 4.538568D+00
              MO Center= -3.0D-17, -1.4D-16, -2.4D-17, r^2= 3.6D-01
   Bfn.  Coefficient  Atom+Function         Bfn.  Coefficient  Atom+Function  
  ----- ------------  ---------------      ----- ------------  ---------------
    10      1.104943  1 He pz                 8     -0.885776  1 He px         
    13     -0.663481  1 He pz                11      0.531879  1 He px         
     9     -0.327918  1 He py                12      0.196904  1 He py         
     7     -0.082763  1 He pz                 5      0.066347  1 He px         

 Vector   15  Occ=0.000000D+00  E= 1.131744D+01
              MO Center= -9.5D-18, -1.5D-16,  2.7D-17, r^2= 2.4D-01
   Bfn.  Coefficient  Atom+Function         Bfn.  Coefficient  Atom+Function  
  ----- ------------  ---------------      ----- ------------  ---------------
    25      0.843337  1 He f -2              27     -0.432906  1 He f  0       
    26      0.236590  1 He f -1              28     -0.193532  1 He f  1       
    24      0.070911  1 He f -3              29     -0.052342  1 He f  2       

 Vector   16  Occ=0.000000D+00  E= 1.131744D+01
              MO Center=  2.0D-16,  2.0D-16, -5.7D-17, r^2= 2.4D-01
   Bfn.  Coefficient  Atom+Function         Bfn.  Coefficient  Atom+Function  
  ----- ------------  ---------------      ----- ------------  ---------------
    29      0.807976  1 He f  2              26      0.555810  1 He f -1       
    27      0.158452  1 He f  0              28     -0.078655  1 He f  1       
    30      0.070858  1 He f  3              25     -0.043878  1 He f -2       

 Vector   17  Occ=0.000000D+00  E= 1.131744D+01
              MO Center=  5.7D-17, -2.8D-16, -1.5D-16, r^2= 2.4D-01
   Bfn.  Coefficient  Atom+Function         Bfn.  Coefficient  Atom+Function  
  ----- ------------  ---------------      ----- ------------  ---------------
    30      0.737660  1 He f  3              28      0.435510  1 He f  1       
    26     -0.299256  1 He f -1              24      0.259270  1 He f -3       
    27     -0.232732  1 He f  0              29      0.230646  1 He f  2       
    25      0.045301  1 He f -2       

 Vector   18  Occ=0.000000D+00  E= 1.131744D+01
              MO Center=  2.6D-17, -7.9D-17, -3.6D-16, r^2= 2.4D-01
   Bfn.  Coefficient  Atom+Function         Bfn.  Coefficient  Atom+Function  
  ----- ------------  ---------------      ----- ------------  ---------------
    28      0.614609  1 He f  1              30     -0.611194  1 He f  3       
    29      0.321776  1 He f  2              27     -0.284961  1 He f  0       
    26     -0.213757  1 He f -1              24     -0.098410  1 He f -3       
    25      0.092624  1 He f -2       

 Vector   19  Occ=0.000000D+00  E= 1.131744D+01
              MO Center=  1.5D-17, -4.8D-17,  7.8D-17, r^2= 2.4D-01
   Bfn.  Coefficient  Atom+Function         Bfn.  Coefficient  Atom+Function  
  ----- ------------  ---------------      ----- ------------  ---------------
    27      0.784645  1 He f  0              25      0.524019  1 He f -2       
    26     -0.283106  1 He f -1              28      0.142660  1 He f  1       
    29      0.082758  1 He f  2              24     -0.048296  1 He f -3       

 Vector   20  Occ=0.000000D+00  E= 1.131744D+01
              MO Center=  2.1D-16,  1.1D-16,  4.3D-17, r^2= 2.4D-01
   Bfn.  Coefficient  Atom+Function         Bfn.  Coefficient  Atom+Function  
  ----- ------------  ---------------      ----- ------------  ---------------
    24      0.943584  1 He f -3              30     -0.274380  1 He f  3       
    28     -0.133437  1 He f  1              26     -0.082677  1 He f -1       
    27      0.076889  1 He f  0              29      0.046984  1 He f  2       
    25     -0.040052  1 He f -2       

 Vector   21  Occ=0.000000D+00  E= 1.131744D+01
              MO Center= -1.7D-16,  1.1D-16, -6.3D-17, r^2= 2.4D-01
   Bfn.  Coefficient  Atom+Function         Bfn.  Coefficient  Atom+Function  
  ----- ------------  ---------------      ----- ------------  ---------------
    26      0.642550  1 He f -1              28      0.592274  1 He f  1       
    29     -0.422659  1 He f  2              27      0.174752  1 He f  0       
    24      0.159287  1 He f -3              30      0.041988  1 He f  3       

 Vector   22  Occ=0.000000D+00  E= 1.299110D+01
              MO Center= -1.7D-17,  6.6D-18,  1.0D-17, r^2= 2.2D-01
   Bfn.  Coefficient  Atom+Function         Bfn.  Coefficient  Atom+Function  
  ----- ------------  ---------------      ----- ------------  ---------------
     2      2.387414  1 He s                  1     -1.677058  1 He s          
     3     -1.602648  1 He s                  4      0.535828  1 He s          

 Vector   23  Occ=0.000000D+00  E= 1.583967D+01
              MO Center= -5.5D-17,  2.4D-17, -8.7D-17, r^2= 1.5D-01
   Bfn.  Coefficient  Atom+Function         Bfn.  Coefficient  Atom+Function  
  ----- ------------  ---------------      ----- ------------  ---------------
    16      0.876771  1 He d  0              18      0.614382  1 He d  2       
    21     -0.389531  1 He d  0              15      0.346482  1 He d -1       
    14      0.303878  1 He d -2              23     -0.272956  1 He d  2       
    20     -0.153935  1 He d -1              19     -0.135006  1 He d -2       
    17      0.067895  1 He d  1              22     -0.030164  1 He d  1       

 Vector   24  Occ=0.000000D+00  E= 1.583967D+01
              MO Center=  1.0D-16, -4.8D-17,  5.9D-17, r^2= 1.5D-01
   Bfn.  Coefficient  Atom+Function         Bfn.  Coefficient  Atom+Function  
  ----- ------------  ---------------      ----- ------------  ---------------
    16      0.679256  1 He d  0              18     -0.583489  1 He d  2       
    17     -0.552142  1 He d  1              15     -0.498714  1 He d -1       
    21     -0.301779  1 He d  0              23      0.259232  1 He d  2       
    22      0.245305  1 He d  1              20      0.221568  1 He d -1       
    14     -0.088141  1 He d -2              19      0.039159  1 He d -2       

 Vector   25  Occ=0.000000D+00  E= 1.583967D+01
              MO Center= -1.2D-16,  4.1D-17, -1.0D-16, r^2= 1.5D-01
   Bfn.  Coefficient  Atom+Function         Bfn.  Coefficient  Atom+Function  
  ----- ------------  ---------------      ----- ------------  ---------------
    14      0.868267  1 He d -2              18     -0.596758  1 He d  2       
    15      0.495317  1 He d -1              19     -0.385752  1 He d -2       
    23      0.265126  1 He d  2              20     -0.220059  1 He d -1       
    16     -0.074831  1 He d  0              17     -0.047415  1 He d  1       
    21      0.033246  1 He d  0       

 Vector   26  Occ=0.000000D+00  E= 1.583967D+01
              MO Center= -1.9D-16, -1.4D-19,  9.2D-18, r^2= 1.5D-01
   Bfn.  Coefficient  Atom+Function         Bfn.  Coefficient  Atom+Function  
  ----- ------------  ---------------      ----- ------------  ---------------
    15     -0.710637  1 He d -1              14      0.690767  1 He d -2       
    18      0.472085  1 He d  2              20      0.315721  1 He d -1       
    19     -0.306893  1 He d -2              17     -0.295175  1 He d  1       
    16     -0.266529  1 He d  0              23     -0.209737  1 He d  2       
    22      0.131140  1 He d  1              21      0.118413  1 He d  0       

 Vector   27  Occ=0.000000D+00  E= 1.583967D+01
              MO Center= -2.6D-17,  6.4D-17,  1.3D-16, r^2= 1.5D-01
   Bfn.  Coefficient  Atom+Function         Bfn.  Coefficient  Atom+Function  
  ----- ------------  ---------------      ----- ------------  ---------------
    17      0.982012  1 He d  1              15     -0.494049  1 He d -1       
    22     -0.436287  1 He d  1              18     -0.257461  1 He d  2       
    16      0.237570  1 He d  0              20      0.219495  1 He d -1       
    14      0.178988  1 He d -2              23      0.114384  1 He d  2       
    21     -0.105547  1 He d  0              19     -0.079520  1 He d -2       

 Vector   28  Occ=0.000000D+00  E= 1.740003D+01
              MO Center= -1.1D-16,  4.9D-17, -1.2D-16, r^2= 1.3D-01
   Bfn.  Coefficient  Atom+Function         Bfn.  Coefficient  Atom+Function  
  ----- ------------  ---------------      ----- ------------  ---------------
     7      0.992703  1 He pz                 5      0.968049  1 He px         
    10     -0.809263  1 He pz                 8     -0.789165  1 He px         
    13      0.302111  1 He pz                11      0.294608  1 He px         

 Vector   29  Occ=0.000000D+00  E= 1.740003D+01
              MO Center= -3.9D-17,  1.6D-16,  1.8D-16, r^2= 1.3D-01
   Bfn.  Coefficient  Atom+Function         Bfn.  Coefficient  Atom+Function  
  ----- ------------  ---------------      ----- ------------  ---------------
     5      0.980680  1 He px                 7     -0.958237  1 He pz         
     8     -0.799462  1 He px                10      0.781166  1 He pz         
    11      0.298452  1 He px                13     -0.291622  1 He pz         
     6     -0.206666  1 He py                 9      0.168477  1 He py         
    12     -0.062895  1 He py         

 Vector   30  Occ=0.000000D+00  E= 1.740003D+01
              MO Center=  1.8D-16,  1.4D-16,  9.8D-17, r^2= 1.3D-01
   Bfn.  Coefficient  Atom+Function         Bfn.  Coefficient  Atom+Function  
  ----- ------------  ---------------      ----- ------------  ---------------
     6      1.371082  1 He py                 9     -1.117722  1 He py         
    12      0.417264  1 He py                 5      0.154307  1 He px         
     7     -0.137785  1 He pz                 8     -0.125793  1 He px         
    10      0.112324  1 He pz                11      0.046960  1 He px         
    13     -0.041933  1 He pz         

                               NWChem RI-MP2 Module
                               --------------------



 Corr_Mk_Ref: MO vectors './He_b2plyp_cc-vqz.movecs' don't exist or aren't converged.
 DFT Reference Information:
            File: './He_b2plyp_cc-vqz.movecs'
           Title: ''
    Size (AOxMO):     30 x     30
       Total Occ:               2.00
 RI-MP2 Calculation Information:
          Nr. of AO basis functions:         30
     Nr. of fitting basis functions:         46
               Nr. of MO spin cases:          1
        Nr. of MOs to be correlated:         30
     Nr. of occupied MOs correlated:          1
      Nr. of virtual MOs correlated:         29

          RI integral approximation: 'V'
    Threshold for Schwarz screening:  1.000E-09
 Smallest eigenvalue retained in fit  1.000E-08
     Base file name for MO integrals 'mo3cint'
    Type of storage for MO integrals 'EAF library'

 Transformation block size    1, requiring     1 integral passes.
 XForm_3cInts: Completed     1:    1 pass.             @Sun Jun 30 13:59:10 2019
 Energy evaluation using block sizes     1    1
 RIMP2_V_E2: Approx. ints. done (    1:    1,    1:    1) @Sun Jun 30 13:59:10 2019
 RIMP2_V_E2: Copy to B done (    1:    1,    1:    1)  @Sun Jun 30 13:59:10 2019
 RIMP2_V_E2: Denominators done (    1:    1,    1:    1) @Sun Jun 30 13:59:10 2019
 RIMP2_V_E2: Completed block (    1:    1,    1:    1) @Sun Jun 30 13:59:10 2019


          -------------------------------------------
          DFT energy                      -2.893701522553
          Unscaled MP2 energy             -0.039972551959
          Total DFT+MP2 energy            -2.904494111582
          -------------------------------------------

 -----------------------
 Performance information
 -----------------------

 Timer overhead =  1.71D-07 seconds/call

               Nr. of calls         CPU time (s)                 Wall time (s)                GFlops
             ---------------    -------------------     ------------------------------   -------------------
Name         Min   Avg   Max    Min     Avg     Max     Min     Avg     Max   Mx/calls   Min     Max     Sum
Overall       1     1     1   5.89E-2 6.69E-2 6.97E-2  8.17E-2 8.17E-2 8.17E-2 8.17E-2   0.0     0.0     0.0   
3c integr     1     1     1   2.66E-3 2.69E-3 2.70E-3  2.70E-3 2.70E-3 2.70E-3 2.70E-3   0.0     0.0     0.0   
Energy        1     1     1   1.11E-3 1.11E-3 1.11E-3  1.11E-3 1.11E-3 1.11E-3 1.11E-3   0.0     0.0     0.0   
3c integr     1     1     1   1.05E-3 1.55E-3 2.30E-3  1.05E-3 1.55E-3 2.30E-3 2.30E-3   0.0     0.0     0.0   
First 2/3     3     3     3   8.00E-6 8.75E-6 9.00E-6  8.77E-6 9.47E-6 1.01E-5 3.36E-6   0.0     0.0     0.0   
Final 1/3     1     1     1   1.02E-4 1.02E-4 1.02E-4  1.02E-4 1.02E-4 1.02E-4 1.02E-4   0.0     0.0     0.0   
Write 3c      1     1     1   2.00E-5 2.00E-5 2.00E-5  1.97E-5 2.00E-5 2.05E-5 2.05E-5   0.0     0.0     0.0   
Read 3c i     1     1     1   1.30E-5 1.78E-5 2.20E-5  1.24E-5 1.79E-5 2.41E-5 2.41E-5   0.0     0.0     0.0   
Fitting b     1     1     1   1.37E-3 1.69E-3 1.80E-3  1.80E-3 1.80E-3 1.80E-3 1.80E-3   0.0     0.0     0.0   
Schwarz i     1     1     1   2.07E-3 2.08E-3 2.09E-3  2.07E-3 2.08E-3 2.09E-3 2.09E-3   0.0     0.0     0.0   
Form 4ci      1     1     1   7.90E-5 7.98E-5 8.00E-5  7.92E-5 7.94E-5 7.97E-5 7.97E-5   0.0     0.0     0.0   
Form A &      1     1     1   1.22E-4 1.25E-4 1.26E-4  1.25E-4 1.26E-4 1.26E-4 1.26E-4   0.0     0.0     0.0   
Denominat     1     1     1   2.00E-6 2.25E-6 3.00E-6  1.78E-6 1.86E-6 1.93E-6 1.93E-6   0.0     0.0     0.0   
Pair Ener     1     1     1   1.10E-5 1.10E-5 1.10E-5  1.07E-5 1.11E-5 1.15E-5 1.15E-5   0.0     0.0     0.0   

 The average no. of pstat calls per process was 1.60D+01
 with a timing overhead of 2.73D-06s


 Task  times  cpu:        0.1s     wall:        0.1s


                                NWChem Input Module
                                -------------------


 Summary of allocated global arrays
-----------------------------------
  No active global arrays



                         GA Statistics for process    0
                         ------------------------------

       create   destroy   get      put      acc     scatter   gather  read&inc
calls:  279      279     1476      802      504        1        0      192     
number of processes/call 1.05e+00 1.07e+00 1.11e+00 0.00e+00 0.00e+00
bytes total:             3.17e+06 1.15e+06 1.40e+06 1.80e+03 0.00e+00 1.54e+03
bytes remote:            1.73e+05 1.28e+05 1.02e+05 0.00e+00 0.00e+00 0.00e+00
Max memory consumed for GA by this process: 259200 bytes

MA_summarize_allocated_blocks: starting scan ...
MA_summarize_allocated_blocks: scan completed: 0 heap blocks, 0 stack blocks
MA usage statistics:

	allocation statistics:
					      heap	     stack
					      ----	     -----
	current number of blocks	         0	         0
	maximum number of blocks	        23	        53
	current total bytes		         0	         0
	maximum total bytes		   1354320	  22510856
	maximum total K-bytes		      1355	     22511
	maximum total M-bytes		         2	        23


                                     CITATION
                                     --------
                Please cite the following reference when publishing
                           results obtained with NWChem:

                 M. Valiev, E.J. Bylaska, N. Govind, K. Kowalski,
              T.P. Straatsma, H.J.J. van Dam, D. Wang, J. Nieplocha,
                        E. Apra, T.L. Windus, W.A. de Jong
                 "NWChem: a comprehensive and scalable open-source
                  solution for large scale molecular simulations"
                      Comput. Phys. Commun. 181, 1477 (2010)
                           doi:10.1016/j.cpc.2010.04.018

                                      AUTHORS
                                      -------
          E. Apra, E. J. Bylaska, W. A. de Jong, N. Govind, K. Kowalski,
       T. P. Straatsma, M. Valiev, H. J. J. van Dam, D. Wang, T. L. Windus,
        J. Hammond, J. Autschbach, K. Bhaskaran-Nair, J. Brabec, K. Lopata,
    S. A. Fischer, S. Krishnamoorthy, M. Jacquelin, W. Ma, M. Klemm, O. Villa,
      Y. Chen, V. Anisimov, F. Aquino, S. Hirata, M. T. Hackler, V. Konjkov,
            D. Mejia-Rodriguez, T. Risthaus, M. Malagoli, A. Marenich,
   A. Otero-de-la-Roza, J. Mullin, P. Nichols, R. Peverati, J. Pittner, Y. Zhao,
        P.-D. Fan, A. Fonari, M. J. Williamson, R. J. Harrison, J. R. Rehr,
      M. Dupuis, D. Silverstein, D. M. A. Smith, J. Nieplocha, V. Tipparaju,
    M. Krishnan, B. E. Van Kuiken, A. Vazquez-Mayagoitia, L. Jensen, M. Swart,
      Q. Wu, T. Van Voorhis, A. A. Auer, M. Nooijen, L. D. Crosby, E. Brown,
      G. Cisneros, G. I. Fann, H. Fruchtl, J. Garza, K. Hirao, R. A. Kendall,
      J. A. Nichols, K. Tsemekhman, K. Wolinski, J. Anchell, D. E. Bernholdt,
      P. Borowski, T. Clark, D. Clerc, H. Dachsel, M. J. O. Deegan, K. Dyall,
    D. Elwood, E. Glendening, M. Gutowski, A. C. Hess, J. Jaffe, B. G. Johnson,
     J. Ju, R. Kobayashi, R. Kutteh, Z. Lin, R. Littlefield, X. Long, B. Meng,
      T. Nakajima, S. Niu, L. Pollack, M. Rosing, K. Glaesemann, G. Sandrone,
      M. Stave, H. Taylor, G. Thomas, J. H. van Lenthe, A. T. Wong, Z. Zhang.

 Total times  cpu:        0.3s     wall:        0.4s
[0] ARMCI Warning: Freed 1 leaked allocations
