 argument  1 = /home/list1234/source/nwchem-6.8.1-release/QA/tests/hess_nh3_ub3lyp/hess_nh3_ub3lyp.nw



============================== echo of input deck ==============================
echo

start hess_nh3_dat

# This input tests the accuracy of the finite difference
# MP2 hessian.  The original calculation was compared with
# analytic results supplied by the original reporter of
# the problem.  The lowest frequency computed by NWChem 3.2.1
# differed only by 0.1 wavenumbers whereas the highest differed
# only by 0.02 wavenumbers.

# On the IBM SP it took 5600s on 27 nodes.

title "hessian calculation for (NH3)3- DFT(B3LYP)/aug-cc-pVDZ"

geometry
  symmetry C3v
  n      0.00000000     0.00000000     0.11528732
  h      0.66613072     0.66613072    -0.29294900
  h     -0.90995149     0.24382077    -0.29294900
  h      0.24382077    -0.90995149    -0.29294900
end
charge -1

basis spherical
 n   library aug-cc-pvdz
 h   library aug-cc-pvdz
end

dft
  xc b3lyp
  odft
  mult 2
end

task dft freq
================================================================================


                                         
                                         


              Northwest Computational Chemistry Package (NWChem) 6.8
              ------------------------------------------------------


                    Environmental Molecular Sciences Laboratory
                       Pacific Northwest National Laboratory
                                Richland, WA 99352

                              Copyright (c) 1994-2018
                       Pacific Northwest National Laboratory
                            Battelle Memorial Institute

             NWChem is an open-source computational chemistry package
                        distributed under the terms of the
                      Educational Community License (ECL) 2.0
             A copy of the license is included with this distribution
                              in the LICENSE.TXT file

                                  ACKNOWLEDGMENT
                                  --------------

            This software and its documentation were developed at the
            EMSL at Pacific Northwest National Laboratory, a multiprogram
            national laboratory, operated for the U.S. Department of Energy
            by Battelle under Contract Number DE-AC05-76RL01830. Support
            for this work was provided by the Department of Energy Office
            of Biological and Environmental Research, Office of Basic
            Energy Sciences, and the Office of Advanced Scientific Computing.


           Job information
           ---------------

    hostname        = list1234-B360M-H
    program         = /home/list1234/source/nwchem-6.8.1-release/bin/LINUX64/nwchem
    date            = Sun Jun 30 12:46:56 2019

    compiled        = Sun_Jun_30_11:55:59_2019
    source          = /home/list1234/source/nwchem-6.8.1-release
    nwchem branch   = Development
    nwchem revision = N/A
    ga revision     = 5.6.5
    use scalapack   = T
    input           = /home/list1234/source/nwchem-6.8.1-release/QA/tests/hess_nh3_ub3lyp/hess_nh3_ub3lyp.nw
    prefix          = hess_nh3_dat.
    data base       = ./hess_nh3_dat.db
    status          = startup
    nproc           =        4
    time left       =     -1s



           Memory information
           ------------------

    heap     =   86247162 doubles =    658.0 Mbytes
    stack    =   86247167 doubles =    658.0 Mbytes
    global   =  172494336 doubles =   1316.0 Mbytes (distinct from heap & stack)
    total    =  344988665 doubles =   2632.1 Mbytes
    verify   = yes
    hardfail = no 


           Directory information
           ---------------------

  0 permanent = .
  0 scratch   = .




                                NWChem Input Module
                                -------------------


              hessian calculation for (NH3)3- DFT(B3LYP)/aug-cc-pVDZ
              ------------------------------------------------------

 Scaling coordinates for geometry "geometry" by  1.889725989
 (inverse scale =  0.529177249)

 Turning off AUTOSYM since
 SYMMETRY directive was detected!


          ------
          auto-z
          ------
  Looking for out-of-plane bends
  no constraints, skipping    0.0000000000000000     
  no constraints, skipping    0.0000000000000000     


                             Geometry "geometry" -> ""
                             -------------------------

 Output coordinates in angstroms (scale by  1.889725989 to convert to a.u.)

  No.       Tag          Charge          X              Y              Z
 ---- ---------------- ---------- -------------- -------------- --------------
    1 n                    7.0000    -0.00000000    -0.00000000     0.12247090
    2 h                    1.0000     0.66613072     0.66613072    -0.28576542
    3 h                    1.0000    -0.90995149     0.24382077    -0.28576542
    4 h                    1.0000     0.24382077    -0.90995149    -0.28576542

      Atomic Mass 
      ----------- 

      n                 14.003070
      h                  1.007825


 Effective nuclear repulsion energy (a.u.)      11.7966495381

            Nuclear Dipole moment (a.u.) 
            ----------------------------
        X                 Y               Z
 ---------------- ---------------- ----------------
     0.0000000000    -0.0000000000     0.0000000000

      Symmetry information
      --------------------

 Group name             C3v       
 Group number             17
 Group order               6
 No. of unique centers     2

      Symmetry unique atoms

     1    2



                                Z-matrix (autoz)
                                -------- 

 Units are Angstrom for bonds and degrees for angles

      Type          Name      I     J     K     L     M      Value
      ----------- --------  ----- ----- ----- ----- ----- ----------
    1 Stretch                  1     2                       1.02670
    2 Stretch                  1     3                       1.02670
    3 Stretch                  1     4                       1.02670
    4 Bend                     2     1     3               105.23916
    5 Bend                     2     1     4               105.23916
    6 Bend                     3     1     4               105.23916


            XYZ format geometry
            -------------------
     4
 geometry
 n                    -0.00000000    -0.00000000     0.12247090
 h                     0.66613072     0.66613072    -0.28576542
 h                    -0.90995149     0.24382077    -0.28576542
 h                     0.24382077    -0.90995149    -0.28576542

 ==============================================================================
                                internuclear distances
 ------------------------------------------------------------------------------
       center one      |      center two      | atomic units |  angstroms
 ------------------------------------------------------------------------------
    2 h                |   1 n                |     1.94019  |     1.02670
    3 h                |   1 n                |     1.94019  |     1.02670
    4 h                |   1 n                |     1.94019  |     1.02670
 ------------------------------------------------------------------------------
                         number of included internuclear distances:          3
 ==============================================================================



 ==============================================================================
                                 internuclear angles
 ------------------------------------------------------------------------------
        center 1       |       center 2       |       center 3       |  degrees
 ------------------------------------------------------------------------------
    2 h                |   1 n                |   3 h                |   105.24
    2 h                |   1 n                |   4 h                |   105.24
    3 h                |   1 n                |   4 h                |   105.24
 ------------------------------------------------------------------------------
                            number of included internuclear angles:          3
 ==============================================================================



                      Basis "ao basis" -> "" (spherical)
                      -----
  n (Nitrogen)
  ------------
            Exponent  Coefficients 
       -------------- ---------------------------------------------------------
  1 S  9.04600000E+03  0.000700
  1 S  1.35700000E+03  0.005389
  1 S  3.09300000E+02  0.027406
  1 S  8.77300000E+01  0.103207
  1 S  2.85600000E+01  0.278723
  1 S  1.02100000E+01  0.448540
  1 S  3.83800000E+00  0.278238
  1 S  7.46600000E-01  0.015440

  2 S  9.04600000E+03 -0.000153
  2 S  1.35700000E+03 -0.001208
  2 S  3.09300000E+02 -0.005992
  2 S  8.77300000E+01 -0.024544
  2 S  2.85600000E+01 -0.067459
  2 S  1.02100000E+01 -0.158078
  2 S  3.83800000E+00 -0.121831
  2 S  7.46600000E-01  0.549003

  3 S  2.24800000E-01  1.000000

  4 S  6.12400000E-02  1.000000

  5 P  1.35500000E+01  0.039919
  5 P  2.91700000E+00  0.217169
  5 P  7.97300000E-01  0.510319

  6 P  2.18500000E-01  1.000000

  7 P  5.61100000E-02  1.000000

  8 D  8.17000000E-01  1.000000

  9 D  2.30000000E-01  1.000000

  h (Hydrogen)
  ------------
            Exponent  Coefficients 
       -------------- ---------------------------------------------------------
  1 S  1.30100000E+01  0.019685
  1 S  1.96200000E+00  0.137977
  1 S  4.44600000E-01  0.478148

  2 S  1.22000000E-01  1.000000

  3 S  2.97400000E-02  1.000000

  4 P  7.27000000E-01  1.000000

  5 P  1.41000000E-01  1.000000



 Summary of "ao basis" -> "" (spherical)
 ------------------------------------------------------------------------------
       Tag                 Description            Shells   Functions and Types
 ---------------- ------------------------------  ------  ---------------------
 n                        aug-cc-pvdz                9       23   4s3p2d
 h                        aug-cc-pvdz                5        9   3s2p




                   NWChem Nuclear Hessian and Frequency Analysis
                   ---------------------------------------------



                              NWChem Analytic Hessian
                              -----------------------


                                 NWChem DFT Module
                                 -----------------


              hessian calculation for (NH3)3- DFT(B3LYP)/aug-cc-pVDZ




 Summary of "ao basis" -> "ao basis" (spherical)
 ------------------------------------------------------------------------------
       Tag                 Description            Shells   Functions and Types
 ---------------- ------------------------------  ------  ---------------------
 n                        aug-cc-pvdz                9       23   4s3p2d
 h                        aug-cc-pvdz                5        9   3s2p


  Caching 1-el integrals 

            General Information
            -------------------
          SCF calculation type: DFT
          Wavefunction type:  spin polarized.
          No. of atoms     :     4
          No. of electrons :    11
           Alpha electrons :     6
            Beta electrons :     5
          Charge           :    -1
          Spin multiplicity:     2
          Use of symmetry is: off; symmetry adaption is: off
          Maximum number of iterations:  30
          AO basis - number of functions:    50
                     number of shells:    24
          Convergence on energy requested:  1.00D-07
          Convergence on density requested:  1.00D-05
          Convergence on gradient requested:  1.00D-06

              XC Information
              --------------
                         B3LYP Method XC Potential
                     Hartree-Fock (Exact) Exchange  0.200          
                        Slater Exchange Functional  0.800 local    
                    Becke 1988 Exchange Functional  0.720 non-local
              Lee-Yang-Parr Correlation Functional  0.810          
                  VWN I RPA Correlation Functional  0.190 local    

             Grid Information
             ----------------
          Grid used for XC integration:  fine      
          Radial quadrature: Mura-Knowles        
          Angular quadrature: Lebedev. 
          Tag              B.-S. Rad. Rad. Pts. Rad. Cut. Ang. Pts.
          ---              ---------- --------- --------- ---------
          n                   0.65       70          13.0       590
          h                   0.35       60          15.0       590
          Grid pruning is: on 
          Number of quadrature shells:   250
          Spatial weights used:  Erf1

          Convergence Information
          -----------------------
          Convergence aids based upon iterative change in 
          total energy or number of iterations. 
          Levelshifting, if invoked, occurs when the 
          HOMO/LUMO gap drops below (HL_TOL):  1.00D-02
          DIIS, if invoked, will attempt to extrapolate 
          using up to (NFOCK): 10 stored Fock matrices.

                    Damping( 0%)  Levelshifting(0.5)       DIIS
                  --------------- ------------------- ---------------
          dE  on:    start            ASAP                start   
          dE off:    2 iters         30 iters            30 iters 


      Screening Tolerance Information
      -------------------------------
          Density screening/tol_rho:  1.00D-11
          AO Gaussian exp screening on grid/accAOfunc:  16
          CD Gaussian exp screening on grid/accCDfunc:  20
          XC Gaussian exp screening on grid/accXCfunc:  20
          Schwarz screening/accCoul:  1.00D-12


      Superposition of Atomic Density Guess
      -------------------------------------

 Sum of atomic energies:         -55.80071540

 Renormalizing density from      10.00 to     11

      Non-variational initial energy
      ------------------------------

 Total energy =     -59.687536
 1-e energy   =    -107.669154
 2-e energy   =      36.184969
 HOMO         =       0.184720
 LUMO         =       0.198858

   Time after variat. SCF:      0.1
   Time prior to 1st pass:      0.1

 Integral file          = ./hess_nh3_dat.aoints.0
 Record size in doubles =  65536        No. of integs per rec  =  43688
 Max. records in memory =      8        Max. records in file   = 161698
 No. of bits per label  =      8        No. of bits per value  =     64


 #quartets = 4.515D+04 #integrals = 7.951D+05 #direct =  0.0% #cached =100.0%


File balance: exchanges=     0  moved=     0  time=   0.0


 Grid_pts file          = ./hess_nh3_dat.gridpts.0
 Record size in doubles =  12289        No. of grid_pts per rec  =   3070
 Max. records in memory =     15        Max. recs in file   =    862327

 Grid integrated density:      10.999999819210
 Requested integration accuracy:   0.10E-13

           Memory utilization after 1st SCF pass: 
           Heap Space remaining (MW):       85.54            85536074
          Stack Space remaining (MW):       86.25            86246588

   convergence    iter        energy       DeltaE   RMS-Dens  Diis-err    time
 ---------------- ----- ----------------- --------- --------- ---------  ------
 d= 0,ls=0.0,diis     1    -56.2207556322 -6.80D+01  2.94D-01  6.25D-01     0.3
                                                     1.58D-02  6.18D-01
 Grid integrated density:      11.000000014637
 Requested integration accuracy:   0.10E-13
 d= 0,ls=0.0,diis     2    -55.9294341292  2.91D-01  6.26D-02  1.46D+00     0.4
                                                     8.85D-03  1.42D+00
 Grid integrated density:      11.000000007867
 Requested integration accuracy:   0.10E-13
 d= 0,ls=0.0,diis     3    -56.5462446015 -6.17D-01  6.68D-03  5.21D-03     0.5
                                                     9.96D-04  4.76D-03
 Grid integrated density:      10.999999994911
 Requested integration accuracy:   0.10E-13
 d= 0,ls=0.0,diis     4    -56.5494005671 -3.16D-03  4.27D-03  1.18D-04     0.6
                                                     1.38D-04  1.20D-04
 Grid integrated density:      11.000000228803
 Requested integration accuracy:   0.10E-13
 d= 0,ls=0.0,diis     5    -56.5494770314 -7.65D-05  1.17D-03  9.31D-06     0.7
                                                     3.40D-05  7.52D-06
 Grid integrated density:      11.000000228583
 Requested integration accuracy:   0.10E-13
  Resetting Diis
 d= 0,ls=0.0,diis     6    -56.5494825075 -5.48D-06  3.86D-04  5.47D-08     0.9
                                                     1.04D-05  7.33D-08
 Grid integrated density:      11.000000228759
 Requested integration accuracy:   0.10E-13
 d= 0,ls=0.0,diis     7    -56.5494826634 -1.56D-07  1.71D-05  1.25D-09     1.0
                                                     1.58D-06  3.77D-09
 Grid integrated density:      11.000000228765
 Requested integration accuracy:   0.10E-13
 d= 0,ls=0.0,diis     8    -56.5494826659 -2.51D-09  7.30D-06  3.25D-09     1.1
                                                     3.79D-07  1.11D-09


         Total DFT energy =      -56.549482665871
      One electron energy =     -100.988734969981
           Coulomb energy =       40.734231361716
    Exchange-Corr. energy =       -8.091628595715
 Nuclear repulsion energy =       11.796649538108

 Numeric. integr. density =       11.000000228765

     Total iterative time =      1.0s



                    DFT Final Alpha Molecular Orbital Analysis
                    ------------------------------------------

 Vector    1  Occ=1.000000D+00  E=-1.415187D+01
              MO Center=  8.0D-11,  8.0D-11,  1.2D-01, r^2= 2.0D-02
   Bfn.  Coefficient  Atom+Function         Bfn.  Coefficient  Atom+Function  
  ----- ------------  ---------------      ----- ------------  ---------------
     1      1.006037  1 N  s                  3     -0.025385  1 N  s          

 Vector    2  Occ=1.000000D+00  E=-6.867548D-01
              MO Center=  7.4D-08,  7.4D-08, -8.1D-02, r^2= 6.9D-01
   Bfn.  Coefficient  Atom+Function         Bfn.  Coefficient  Atom+Function  
  ----- ------------  ---------------      ----- ------------  ---------------
     2      0.421460  1 N  s                  3      0.251602  1 N  s          
    24      0.198960  2 H  s                 33      0.198960  3 H  s          
    42      0.198960  4 H  s                  7     -0.097328  1 N  pz         
     4      0.035153  1 N  s                 36      0.031314  3 H  px         
    46      0.031314  4 H  py         

 Vector    3  Occ=1.000000D+00  E=-2.913036D-01
              MO Center=  1.3D-01,  1.3D-01, -5.8D-02, r^2= 1.0D+00
   Bfn.  Coefficient  Atom+Function         Bfn.  Coefficient  Atom+Function  
  ----- ------------  ---------------      ----- ------------  ---------------
    24      0.395788  2 H  s                  5      0.335445  1 N  px         
     6      0.335445  1 N  py                25      0.263025  2 H  s          
    33     -0.197894  3 H  s                 42     -0.197894  4 H  s          
    34     -0.131513  3 H  s                 43     -0.131513  4 H  s          
     8      0.085207  1 N  px                 9      0.085207  1 N  py         

 Vector    4  Occ=1.000000D+00  E=-2.913036D-01
              MO Center= -1.3D-01, -1.3D-01, -5.8D-02, r^2= 1.0D+00
   Bfn.  Coefficient  Atom+Function         Bfn.  Coefficient  Atom+Function  
  ----- ------------  ---------------      ----- ------------  ---------------
    33     -0.342762  3 H  s                 42      0.342762  4 H  s          
     5      0.335445  1 N  px                 6     -0.335445  1 N  py         
    34     -0.227786  3 H  s                 43      0.227786  4 H  s          
     8      0.085207  1 N  px                 9     -0.085207  1 N  py         
    23      0.038140  1 N  d  2              39     -0.035702  3 H  px         

 Vector    5  Occ=1.000000D+00  E=-1.127899D-01
              MO Center=  1.0D-07,  1.0D-07,  2.5D-01, r^2= 1.1D+00
   Bfn.  Coefficient  Atom+Function         Bfn.  Coefficient  Atom+Function  
  ----- ------------  ---------------      ----- ------------  ---------------
     7      0.539862  1 N  pz                10      0.338524  1 N  pz         
     3      0.285815  1 N  s                  2      0.148202  1 N  s          
    13      0.121498  1 N  pz                24     -0.104043  2 H  s          
    33     -0.104043  3 H  s                 42     -0.104043  4 H  s          
     4      0.102694  1 N  s                 25     -0.048465  2 H  s          

 Vector    6  Occ=1.000000D+00  E= 6.493284D-02
              MO Center= -8.9D-06, -8.9D-06, -5.3D-01, r^2= 1.2D+01
   Bfn.  Coefficient  Atom+Function         Bfn.  Coefficient  Atom+Function  
  ----- ------------  ---------------      ----- ------------  ---------------
     4      1.970318  1 N  s                 26     -0.696922  2 H  s          
    35     -0.696942  3 H  s                 44     -0.696942  4 H  s          
    25     -0.425736  2 H  s                 34     -0.425740  3 H  s          
    43     -0.425740  4 H  s                  3      0.419400  1 N  s          
    13     -0.206921  1 N  pz                10     -0.137770  1 N  pz         

 Vector    7  Occ=0.000000D+00  E= 1.132286D-01
              MO Center= -5.8D-01, -5.8D-01, -6.1D-01, r^2= 1.6D+01
   Bfn.  Coefficient  Atom+Function         Bfn.  Coefficient  Atom+Function  
  ----- ------------  ---------------      ----- ------------  ---------------
    35      3.117484  3 H  s                 44     -3.117483  4 H  s          
    11      0.667860  1 N  px                12     -0.667860  1 N  py         
    34      0.337141  3 H  s                 43     -0.337141  4 H  s          
     8      0.114168  1 N  px                 9     -0.114168  1 N  py         
    39      0.080819  3 H  px                49     -0.080819  4 H  py         

 Vector    8  Occ=0.000000D+00  E= 1.132287D-01
              MO Center=  5.8D-01,  5.8D-01, -6.1D-01, r^2= 1.6D+01
   Bfn.  Coefficient  Atom+Function         Bfn.  Coefficient  Atom+Function  
  ----- ------------  ---------------      ----- ------------  ---------------
    26      3.599761  2 H  s                 35     -1.799878  3 H  s          
    44     -1.799878  4 H  s                 11     -0.667860  1 N  px         
    12     -0.667860  1 N  py                25      0.389299  2 H  s          
    34     -0.194649  3 H  s                 43     -0.194649  4 H  s          
     8     -0.114168  1 N  px                 9     -0.114168  1 N  py         

 Vector    9  Occ=0.000000D+00  E= 2.031528D-01
              MO Center=  9.5D-07,  9.5D-07,  2.8D-01, r^2= 9.8D+00
   Bfn.  Coefficient  Atom+Function         Bfn.  Coefficient  Atom+Function  
  ----- ------------  ---------------      ----- ------------  ---------------
     4      3.801802  1 N  s                 13     -1.757400  1 N  pz         
    25     -0.997657  2 H  s                 34     -0.997655  3 H  s          
    43     -0.997655  4 H  s                 26     -0.581918  2 H  s          
    35     -0.581916  3 H  s                 44     -0.581916  4 H  s          
     3      0.418752  1 N  s                  7      0.236924  1 N  pz         

 Vector   10  Occ=0.000000D+00  E= 2.374480D-01
              MO Center=  1.0D-05,  1.0D-05, -6.1D-03, r^2= 9.4D+00
   Bfn.  Coefficient  Atom+Function         Bfn.  Coefficient  Atom+Function  
  ----- ------------  ---------------      ----- ------------  ---------------
     4      3.873835  1 N  s                 26     -0.695798  2 H  s          
    35     -0.695764  3 H  s                 44     -0.695764  4 H  s          
    25     -0.621147  2 H  s                 34     -0.621128  3 H  s          
    43     -0.621128  4 H  s                 13      0.360358  1 N  pz         
     3      0.349363  1 N  s                 39     -0.294075  3 H  px         

 Vector   11  Occ=0.000000D+00  E= 2.574911D-01
              MO Center=  1.6D-01,  1.6D-01,  3.2D-01, r^2= 1.1D+01
   Bfn.  Coefficient  Atom+Function         Bfn.  Coefficient  Atom+Function  
  ----- ------------  ---------------      ----- ------------  ---------------
    35      3.092218  3 H  s                 44     -3.092218  4 H  s          
    11      2.244282  1 N  px                12     -2.244282  1 N  py         
    34      2.129070  3 H  s                 43     -2.129069  4 H  s          
    39      0.402077  3 H  px                49     -0.402077  4 H  py         
     8      0.325292  1 N  px                 9     -0.325292  1 N  py         

 Vector   12  Occ=0.000000D+00  E= 2.574913D-01
              MO Center= -1.6D-01, -1.6D-01,  3.2D-01, r^2= 1.1D+01
   Bfn.  Coefficient  Atom+Function         Bfn.  Coefficient  Atom+Function  
  ----- ------------  ---------------      ----- ------------  ---------------
    26      3.570585  2 H  s                 25      2.458432  2 H  s          
    11     -2.244282  1 N  px                12     -2.244283  1 N  py         
    35     -1.785297  3 H  s                 44     -1.785297  4 H  s          
    34     -1.229219  3 H  s                 43     -1.229219  4 H  s          
    30     -0.333854  2 H  px                31     -0.333854  2 H  py         

 Vector   13  Occ=0.000000D+00  E= 3.101119D-01
              MO Center=  3.8D-01,  3.8D-01, -3.9D-01, r^2= 4.3D+00
   Bfn.  Coefficient  Atom+Function         Bfn.  Coefficient  Atom+Function  
  ----- ------------  ---------------      ----- ------------  ---------------
    26      1.112644  2 H  s                 25     -0.644465  2 H  s          
    35     -0.556323  3 H  s                 44     -0.556323  4 H  s          
    30     -0.404955  2 H  px                31     -0.404955  2 H  py         
    34      0.322229  3 H  s                 43      0.322229  4 H  s          
    32      0.298646  2 H  pz                40      0.268214  3 H  py         

 Vector   14  Occ=0.000000D+00  E= 3.101120D-01
              MO Center= -3.8D-01, -3.8D-01, -3.9D-01, r^2= 4.3D+00
   Bfn.  Coefficient  Atom+Function         Bfn.  Coefficient  Atom+Function  
  ----- ------------  ---------------      ----- ------------  ---------------
    35      0.963583  3 H  s                 44     -0.963582  4 H  s          
    34     -0.558117  3 H  s                 43      0.558117  4 H  s          
    39      0.509094  3 H  px                49     -0.509094  4 H  py         
    41      0.258635  3 H  pz                50     -0.258635  4 H  pz         
     5     -0.235601  1 N  px                 6      0.235601  1 N  py         

 Vector   15  Occ=0.000000D+00  E= 3.756939D-01
              MO Center=  8.2D-07,  8.2D-07, -2.0D-01, r^2= 5.1D+00
   Bfn.  Coefficient  Atom+Function         Bfn.  Coefficient  Atom+Function  
  ----- ------------  ---------------      ----- ------------  ---------------
     4      4.710073  1 N  s                 25     -1.782477  2 H  s          
    34     -1.782478  3 H  s                 43     -1.782478  4 H  s          
     3      0.593363  1 N  s                 32     -0.391728  2 H  pz         
    41     -0.391724  3 H  pz                50     -0.391724  4 H  pz         
    13     -0.372917  1 N  pz                26     -0.348401  2 H  s          

 Vector   16  Occ=0.000000D+00  E= 3.834853D-01
              MO Center=  2.6D-02,  2.6D-02, -2.1D-01, r^2= 4.6D+00
   Bfn.  Coefficient  Atom+Function         Bfn.  Coefficient  Atom+Function  
  ----- ------------  ---------------      ----- ------------  ---------------
    32      0.886054  2 H  pz                40     -0.763787  3 H  py         
    48     -0.763787  4 H  px                25      0.674608  2 H  s          
    11      0.497261  1 N  px                12      0.497261  1 N  py         
    41     -0.443027  3 H  pz                50     -0.443027  4 H  pz         
    39     -0.359168  3 H  px                49     -0.359168  4 H  py         

 Vector   17  Occ=0.000000D+00  E= 3.834854D-01
              MO Center= -2.6D-02, -2.6D-02, -2.1D-01, r^2= 4.6D+00
   Bfn.  Coefficient  Atom+Function         Bfn.  Coefficient  Atom+Function  
  ----- ------------  ---------------      ----- ------------  ---------------
    41      0.767344  3 H  pz                50     -0.767344  4 H  pz         
    30      0.678283  2 H  px                31     -0.678283  2 H  py         
    34      0.584229  3 H  s                 43     -0.584229  4 H  s          
    40     -0.530180  3 H  py                48      0.530180  4 H  px         
    11     -0.497265  1 N  px                12      0.497265  1 N  py         

 Vector   18  Occ=0.000000D+00  E= 4.880135D-01
              MO Center= -7.6D-07, -7.6D-07, -1.9D-01, r^2= 6.1D+00
   Bfn.  Coefficient  Atom+Function         Bfn.  Coefficient  Atom+Function  
  ----- ------------  ---------------      ----- ------------  ---------------
     4      5.476571  1 N  s                 25     -2.018170  2 H  s          
    34     -2.018170  3 H  s                 43     -2.018170  4 H  s          
    13     -1.865935  1 N  pz                10     -1.172590  1 N  pz         
    32      0.745234  2 H  pz                41      0.745233  3 H  pz         
    50      0.745233  4 H  pz                 3      0.581909  1 N  s          

 Vector   19  Occ=0.000000D+00  E= 5.644284D-01
              MO Center= -1.5D-02, -1.5D-02,  1.3D-02, r^2= 6.1D+00
   Bfn.  Coefficient  Atom+Function         Bfn.  Coefficient  Atom+Function  
  ----- ------------  ---------------      ----- ------------  ---------------
    11      1.965899  1 N  px                12      1.965899  1 N  py         
    26     -1.930751  2 H  s                 32     -1.240310  2 H  pz         
    25     -1.192780  2 H  s                 35      0.965375  3 H  s          
    44      0.965375  4 H  s                 40     -0.903340  3 H  py         
    48     -0.903340  4 H  px                39     -0.686280  3 H  px         

 Vector   20  Occ=0.000000D+00  E= 5.644285D-01
              MO Center=  1.5D-02,  1.5D-02,  1.3D-02, r^2= 6.1D+00
   Bfn.  Coefficient  Atom+Function         Bfn.  Coefficient  Atom+Function  
  ----- ------------  ---------------      ----- ------------  ---------------
    11      1.965900  1 N  px                12     -1.965899  1 N  py         
    35      1.672080  3 H  s                 44     -1.672080  4 H  s          
    41      1.074142  3 H  pz                50     -1.074142  4 H  pz         
    34      1.032987  3 H  s                 43     -1.032987  4 H  s          
    30     -0.857548  2 H  px                31      0.857548  2 H  py         

 Vector   21  Occ=0.000000D+00  E= 5.648853D-01
              MO Center= -2.9D-05, -2.9D-05, -2.9D-01, r^2= 5.0D+00
   Bfn.  Coefficient  Atom+Function         Bfn.  Coefficient  Atom+Function  
  ----- ------------  ---------------      ----- ------------  ---------------
    40      1.478207  3 H  py                48     -1.478207  4 H  px         
    30      1.082018  2 H  px                31     -1.082018  2 H  py         
    39      0.396031  3 H  px                49     -0.396031  4 H  py         

 Vector   22  Occ=0.000000D+00  E= 6.284621D-01
              MO Center=  3.7D-06,  3.7D-06, -3.0D-01, r^2= 5.5D+00
   Bfn.  Coefficient  Atom+Function         Bfn.  Coefficient  Atom+Function  
  ----- ------------  ---------------      ----- ------------  ---------------
     3      4.705115  1 N  s                  4      3.748760  1 N  s          
    25     -1.976930  2 H  s                 34     -1.976892  3 H  s          
    43     -1.976892  4 H  s                 39     -1.227220  3 H  px         
    49     -1.227220  4 H  py                30      0.898403  2 H  px         
    31      0.898403  2 H  py                32     -0.756758  2 H  pz         

 Vector   23  Occ=0.000000D+00  E= 6.651802D-01
              MO Center=  3.9D-01,  3.9D-01, -2.7D-01, r^2= 4.8D+00
   Bfn.  Coefficient  Atom+Function         Bfn.  Coefficient  Atom+Function  
  ----- ------------  ---------------      ----- ------------  ---------------
    25      8.623289  2 H  s                 34     -4.311659  3 H  s          
    43     -4.311647  4 H  s                 30     -3.194474  2 H  px         
    31     -3.194473  2 H  py                39     -2.353780  3 H  px         
    49     -2.353774  4 H  py                 8     -1.618506  1 N  px         
     9     -1.618503  1 N  py                26      1.171955  2 H  s          

 Vector   24  Occ=0.000000D+00  E= 6.651805D-01
              MO Center= -3.9D-01, -3.9D-01, -2.7D-01, r^2= 4.8D+00
   Bfn.  Coefficient  Atom+Function         Bfn.  Coefficient  Atom+Function  
  ----- ------------  ---------------      ----- ------------  ---------------
    34      7.467976  3 H  s                 43     -7.467983  4 H  s          
    39      3.679851  3 H  px                49     -3.679855  4 H  py         
     8      1.618501  1 N  px                 9     -1.618503  1 N  py         
    40     -1.383012  3 H  py                48      1.383012  4 H  px         
    35      1.014942  3 H  s                 44     -1.014943  4 H  s          

 Vector   25  Occ=0.000000D+00  E= 6.910390D-01
              MO Center=  4.1D-02,  4.1D-02, -2.3D-01, r^2= 3.9D+00
   Bfn.  Coefficient  Atom+Function         Bfn.  Coefficient  Atom+Function  
  ----- ------------  ---------------      ----- ------------  ---------------
    25      6.432259  2 H  s                 34     -3.216131  3 H  s          
    43     -3.216126  4 H  s                 30     -1.586192  2 H  px         
    31     -1.586191  2 H  py                39     -1.305219  3 H  px         
    49     -1.305217  4 H  py                19     -0.826967  1 N  d -2       
     8     -0.804362  1 N  px                 9     -0.804361  1 N  py         

 Vector   26  Occ=0.000000D+00  E= 6.910391D-01
              MO Center= -4.1D-02, -4.1D-02, -2.3D-01, r^2= 3.9D+00
   Bfn.  Coefficient  Atom+Function         Bfn.  Coefficient  Atom+Function  
  ----- ------------  ---------------      ----- ------------  ---------------
    34      5.570510  3 H  s                 43     -5.570513  4 H  s          
    39      1.748418  3 H  px                49     -1.748419  4 H  py         
    40     -0.980783  3 H  py                48      0.980782  4 H  px         
    23     -0.826967  1 N  d  2               8      0.804364  1 N  px         
     9     -0.804364  1 N  py                30      0.699805  2 H  px         

 Vector   27  Occ=0.000000D+00  E= 8.341438D-01
              MO Center= -3.4D-09, -3.4D-09,  3.1D-01, r^2= 3.3D+00
   Bfn.  Coefficient  Atom+Function         Bfn.  Coefficient  Atom+Function  
  ----- ------------  ---------------      ----- ------------  ---------------
     4      3.866681  1 N  s                 25     -1.768390  2 H  s          
    34     -1.768394  3 H  s                 43     -1.768394  4 H  s          
    21     -1.351662  1 N  d  0               3      1.076482  1 N  s          
    32     -0.595930  2 H  pz                41     -0.595931  3 H  pz         
    50     -0.595931  4 H  pz                26     -0.271897  2 H  s          

 Vector   28  Occ=0.000000D+00  E= 9.063954D-01
              MO Center=  8.8D-03,  8.8D-03,  7.4D-02, r^2= 3.0D+00
   Bfn.  Coefficient  Atom+Function         Bfn.  Coefficient  Atom+Function  
  ----- ------------  ---------------      ----- ------------  ---------------
    25      2.375708  2 H  s                 19     -1.214130  1 N  d -2       
    34     -1.187853  3 H  s                 43     -1.187853  4 H  s          
    32      0.994201  2 H  pz                40     -0.886614  3 H  py         
    48     -0.886614  4 H  px                20     -0.850676  1 N  d -1       
    22      0.850676  1 N  d  1              39     -0.726735  3 H  px         

 Vector   29  Occ=0.000000D+00  E= 9.063955D-01
              MO Center= -8.8D-03, -8.8D-03,  7.4D-02, r^2= 3.0D+00
   Bfn.  Coefficient  Atom+Function         Bfn.  Coefficient  Atom+Function  
  ----- ------------  ---------------      ----- ------------  ---------------
    34      2.057420  3 H  s                 43     -2.057420  4 H  s          
    23     -1.214130  1 N  d  2              41      0.861002  3 H  pz         
    50     -0.861002  4 H  pz                20     -0.850676  1 N  d -1       
    22     -0.850676  1 N  d  1              30      0.852828  2 H  px         
    31     -0.852828  2 H  py                40     -0.794308  3 H  py         

 Vector   30  Occ=0.000000D+00  E= 1.057699D+00
              MO Center=  2.8D-07,  2.8D-07, -1.8D-01, r^2= 2.8D+00
   Bfn.  Coefficient  Atom+Function         Bfn.  Coefficient  Atom+Function  
  ----- ------------  ---------------      ----- ------------  ---------------
     4      3.443521  1 N  s                 25     -2.068514  2 H  s          
    34     -2.068510  3 H  s                 43     -2.068510  4 H  s          
     3      1.974183  1 N  s                 13     -0.918520  1 N  pz         
    24      0.790462  2 H  s                 33      0.790462  3 H  s          
    42      0.790462  4 H  s                 21      0.604766  1 N  d  0       

 Vector   31  Occ=0.000000D+00  E= 1.129635D+00
              MO Center= -3.9D-02, -3.9D-02,  1.8D-01, r^2= 2.4D+00
   Bfn.  Coefficient  Atom+Function         Bfn.  Coefficient  Atom+Function  
  ----- ------------  ---------------      ----- ------------  ---------------
    25      4.406032  2 H  s                 34     -2.203020  3 H  s          
    43     -2.203017  4 H  s                  8     -1.640715  1 N  px         
     9     -1.640714  1 N  py                30     -1.099499  2 H  px         
    31     -1.099499  2 H  py                32      0.826406  2 H  pz         
    19      0.766068  1 N  d -2              39     -0.696080  3 H  px         

 Vector   32  Occ=0.000000D+00  E= 1.129635D+00
              MO Center=  3.9D-02,  3.9D-02,  1.8D-01, r^2= 2.4D+00
   Bfn.  Coefficient  Atom+Function         Bfn.  Coefficient  Atom+Function  
  ----- ------------  ---------------      ----- ------------  ---------------
    34      3.815739  3 H  s                 43     -3.815741  4 H  s          
     8      1.640714  1 N  px                 9     -1.640716  1 N  py         
    39      1.332414  3 H  px                49     -1.332415  4 H  py         
    23      0.766067  1 N  d  2              41      0.715689  3 H  pz         
    50     -0.715689  4 H  pz                33     -0.482857  3 H  s          

 Vector   33  Occ=0.000000D+00  E= 1.251296D+00
              MO Center= -1.3D-07, -1.3D-07,  6.4D-02, r^2= 2.4D+00
   Bfn.  Coefficient  Atom+Function         Bfn.  Coefficient  Atom+Function  
  ----- ------------  ---------------      ----- ------------  ---------------
     4      3.154074  1 N  s                 10     -2.509955  1 N  pz         
    25     -1.251610  2 H  s                 34     -1.251611  3 H  s          
    43     -1.251611  4 H  s                  7      1.000391  1 N  pz         
    13     -0.827242  1 N  pz                32      0.643340  2 H  pz         
    41      0.643340  3 H  pz                50      0.643340  4 H  pz         

 Vector   34  Occ=0.000000D+00  E= 1.714263D+00
              MO Center= -2.9D-02, -2.9D-02,  9.7D-02, r^2= 2.4D+00
   Bfn.  Coefficient  Atom+Function         Bfn.  Coefficient  Atom+Function  
  ----- ------------  ---------------      ----- ------------  ---------------
    25      4.982030  2 H  s                 34     -2.491091  3 H  s          
    43     -2.490939  4 H  s                  8     -2.318231  1 N  px         
     9     -2.318149  1 N  py                19     -1.263237  1 N  d -2       
    24      1.193739  2 H  s                 11     -1.120498  1 N  px         
    12     -1.120459  1 N  py                26      1.014976  2 H  s          

 Vector   35  Occ=0.000000D+00  E= 1.714263D+00
              MO Center=  2.9D-02,  2.9D-02,  9.7D-02, r^2= 2.4D+00
   Bfn.  Coefficient  Atom+Function         Bfn.  Coefficient  Atom+Function  
  ----- ------------  ---------------      ----- ------------  ---------------
    34      4.314522  3 H  s                 43     -4.314609  4 H  s          
     8      2.318150  1 N  px                 9     -2.318231  1 N  py         
    23     -1.263238  1 N  d  2              11      1.120458  1 N  px         
    12     -1.120498  1 N  py                39      1.044027  3 H  px         
    49     -1.044047  4 H  py                33      1.033797  3 H  s          

 Vector   36  Occ=0.000000D+00  E= 1.846817D+00
              MO Center=  5.3D-09,  5.3D-09, -2.9D-01, r^2= 1.8D+00
   Bfn.  Coefficient  Atom+Function         Bfn.  Coefficient  Atom+Function  
  ----- ------------  ---------------      ----- ------------  ---------------
    37      0.658954  3 H  py                45     -0.658954  4 H  px         
    40     -0.617014  3 H  py                48      0.617014  4 H  px         
    27      0.482388  2 H  px                28     -0.482388  2 H  py         
    30     -0.451686  2 H  px                31      0.451686  2 H  py         
    36      0.176566  3 H  px                46     -0.176566  4 H  py         

 Vector   37  Occ=0.000000D+00  E= 1.963098D+00
              MO Center=  2.0D-01,  2.0D-01, -1.2D-01, r^2= 1.9D+00
   Bfn.  Coefficient  Atom+Function         Bfn.  Coefficient  Atom+Function  
  ----- ------------  ---------------      ----- ------------  ---------------
    25      4.239935  2 H  s                 34     -2.119965  3 H  s          
    43     -2.119964  4 H  s                 19     -1.506601  1 N  d -2       
    30     -1.255831  2 H  px                31     -1.255831  2 H  py         
     8     -1.150353  1 N  px                 9     -1.150353  1 N  py         
    39     -1.056411  3 H  px                49     -1.056411  4 H  py         

 Vector   38  Occ=0.000000D+00  E= 1.963098D+00
              MO Center= -2.0D-01, -2.0D-01, -1.2D-01, r^2= 1.9D+00
   Bfn.  Coefficient  Atom+Function         Bfn.  Coefficient  Atom+Function  
  ----- ------------  ---------------      ----- ------------  ---------------
    34      3.671887  3 H  s                 43     -3.671888  4 H  s          
    23     -1.506600  1 N  d  2              39      1.370965  3 H  px         
    49     -1.370965  4 H  py                 8      1.150352  1 N  px         
     9     -1.150352  1 N  py                40     -0.826142  3 H  py         
    48      0.826142  4 H  px                38      0.770347  3 H  pz         

 Vector   39  Occ=0.000000D+00  E= 2.012437D+00
              MO Center= -7.1D-07, -7.1D-07, -2.7D-01, r^2= 1.8D+00
   Bfn.  Coefficient  Atom+Function         Bfn.  Coefficient  Atom+Function  
  ----- ------------  ---------------      ----- ------------  ---------------
     3      3.843327  1 N  s                  4      2.184657  1 N  s          
    25     -1.466748  2 H  s                 34     -1.466757  3 H  s          
    43     -1.466757  4 H  s                 21     -1.156789  1 N  d  0       
     2     -0.962344  1 N  s                 29     -0.673119  2 H  pz         
    38     -0.673121  3 H  pz                47     -0.673121  4 H  pz         

 Vector   40  Occ=0.000000D+00  E= 2.194776D+00
              MO Center=  9.5D-02,  9.5D-02, -1.8D-01, r^2= 1.6D+00
   Bfn.  Coefficient  Atom+Function         Bfn.  Coefficient  Atom+Function  
  ----- ------------  ---------------      ----- ------------  ---------------
    25      1.384907  2 H  s                  8     -0.912774  1 N  px         
     9     -0.912774  1 N  py                34     -0.692455  3 H  s          
    43     -0.692455  4 H  s                 20      0.686966  1 N  d -1       
    22     -0.686966  1 N  d  1              24      0.662792  2 H  s          
    37      0.603170  3 H  py                45      0.603170  4 H  px         

 Vector   41  Occ=0.000000D+00  E= 2.194776D+00
              MO Center= -9.5D-02, -9.5D-02, -1.8D-01, r^2= 1.6D+00
   Bfn.  Coefficient  Atom+Function         Bfn.  Coefficient  Atom+Function  
  ----- ------------  ---------------      ----- ------------  ---------------
    34      1.199369  3 H  s                 43     -1.199369  4 H  s          
     8      0.912776  1 N  px                 9     -0.912776  1 N  py         
    20      0.686967  1 N  d -1              22      0.686967  1 N  d  1       
    36      0.582627  3 H  px                46     -0.582627  4 H  py         
    33      0.573996  3 H  s                 42     -0.573996  4 H  s          

 Vector   42  Occ=0.000000D+00  E= 2.243909D+00
              MO Center=  9.9D-02,  9.9D-02, -1.9D-01, r^2= 1.7D+00
   Bfn.  Coefficient  Atom+Function         Bfn.  Coefficient  Atom+Function  
  ----- ------------  ---------------      ----- ------------  ---------------
    25      4.148431  2 H  s                  8     -2.189727  1 N  px         
     9     -2.189727  1 N  py                34     -2.074205  3 H  s          
    43     -2.074205  4 H  s                 30     -1.273017  2 H  px         
    31     -1.273017  2 H  py                24      0.931969  2 H  s          
    39     -0.882631  3 H  px                49     -0.882632  4 H  py         

 Vector   43  Occ=0.000000D+00  E= 2.243909D+00
              MO Center= -9.9D-02, -9.9D-02, -1.9D-01, r^2= 1.7D+00
   Bfn.  Coefficient  Atom+Function         Bfn.  Coefficient  Atom+Function  
  ----- ------------  ---------------      ----- ------------  ---------------
    34      3.592640  3 H  s                 43     -3.592640  4 H  s          
     8      2.189727  1 N  px                 9     -2.189726  1 N  py         
    39      1.498401  3 H  px                49     -1.498401  4 H  py         
    33      0.807107  3 H  s                 42     -0.807107  4 H  s          
    20      0.741934  1 N  d -1              22      0.741934  1 N  d  1       

 Vector   44  Occ=0.000000D+00  E= 2.251656D+00
              MO Center= -2.1D-06, -2.1D-06, -1.4D-01, r^2= 2.1D+00
   Bfn.  Coefficient  Atom+Function         Bfn.  Coefficient  Atom+Function  
  ----- ------------  ---------------      ----- ------------  ---------------
     3      7.235050  1 N  s                  4      2.835781  1 N  s          
     2     -2.433059  1 N  s                 25     -2.071090  2 H  s          
    34     -2.071111  3 H  s                 43     -2.071111  4 H  s          
    10     -1.483151  1 N  pz                 1     -1.195483  1 N  s          
    39     -0.892555  3 H  px                49     -0.892555  4 H  py         

 Vector   45  Occ=0.000000D+00  E= 2.518134D+00
              MO Center= -1.1D-07, -1.1D-07, -2.5D-02, r^2= 1.6D+00
   Bfn.  Coefficient  Atom+Function         Bfn.  Coefficient  Atom+Function  
  ----- ------------  ---------------      ----- ------------  ---------------
     3      3.565353  1 N  s                  4      2.519277  1 N  s          
    25     -1.519169  2 H  s                 34     -1.519169  3 H  s          
    43     -1.519169  4 H  s                 10     -1.139115  1 N  pz         
    16      0.818681  1 N  d  0              36     -0.638287  3 H  px         
    46     -0.638287  4 H  py                24     -0.570878  2 H  s          

 Vector   46  Occ=0.000000D+00  E= 2.726518D+00
              MO Center= -4.2D-02, -4.2D-02,  1.1D-02, r^2= 1.2D+00
   Bfn.  Coefficient  Atom+Function         Bfn.  Coefficient  Atom+Function  
  ----- ------------  ---------------      ----- ------------  ---------------
    25      1.369109  2 H  s                 14      0.936468  1 N  d -2       
    34     -0.684555  3 H  s                 43     -0.684555  4 H  s          
     8     -0.667546  1 N  px                 9     -0.667546  1 N  py         
    15      0.551647  1 N  d -1              17     -0.551647  1 N  d  1       
    37      0.551924  3 H  py                45      0.551924  4 H  px         

 Vector   47  Occ=0.000000D+00  E= 2.726518D+00
              MO Center=  4.2D-02,  4.2D-02,  1.1D-02, r^2= 1.2D+00
   Bfn.  Coefficient  Atom+Function         Bfn.  Coefficient  Atom+Function  
  ----- ------------  ---------------      ----- ------------  ---------------
    34      1.185684  3 H  s                 43     -1.185684  4 H  s          
    18      0.936468  1 N  d  2               8      0.667546  1 N  px         
     9     -0.667546  1 N  py                15      0.551647  1 N  d -1       
    17      0.551647  1 N  d  1              27     -0.462768  2 H  px         
    28      0.462768  2 H  py                23     -0.414684  1 N  d  2       

 Vector   48  Occ=0.000000D+00  E= 2.894991D+00
              MO Center= -3.7D-08, -3.7D-08, -1.8D-01, r^2= 1.5D+00
   Bfn.  Coefficient  Atom+Function         Bfn.  Coefficient  Atom+Function  
  ----- ------------  ---------------      ----- ------------  ---------------
     3      4.968718  1 N  s                  4      2.337830  1 N  s          
    25     -1.608846  2 H  s                 34     -1.608846  3 H  s          
    43     -1.608846  4 H  s                 10     -1.586122  1 N  pz         
    24     -1.076904  2 H  s                 33     -1.076903  3 H  s          
    42     -1.076903  4 H  s                 16     -0.974428  1 N  d  0       

 Vector   49  Occ=0.000000D+00  E= 3.300911D+00
              MO Center=  6.0D-02,  6.0D-02,  3.3D-02, r^2= 1.3D+00
   Bfn.  Coefficient  Atom+Function         Bfn.  Coefficient  Atom+Function  
  ----- ------------  ---------------      ----- ------------  ---------------
    25      3.617703  2 H  s                  8     -2.384152  1 N  px         
     9     -2.384151  1 N  py                24      2.027448  2 H  s          
    34     -1.808852  3 H  s                 43     -1.808851  4 H  s          
    14     -1.106863  1 N  d -2              33     -1.013725  3 H  s          
    42     -1.013724  4 H  s                 30     -0.777987  2 H  px         

 Vector   50  Occ=0.000000D+00  E= 3.300911D+00
              MO Center= -6.0D-02, -6.0D-02,  3.3D-02, r^2= 1.3D+00
   Bfn.  Coefficient  Atom+Function         Bfn.  Coefficient  Atom+Function  
  ----- ------------  ---------------      ----- ------------  ---------------
    34      3.133023  3 H  s                 43     -3.133024  4 H  s          
     8      2.384151  1 N  px                 9     -2.384152  1 N  py         
    33      1.755822  3 H  s                 42     -1.755822  4 H  s          
    18     -1.106863  1 N  d  2              39      0.941398  3 H  px         
    49     -0.941398  4 H  py                36      0.930228  3 H  px         


                     DFT Final Beta Molecular Orbital Analysis
                     -----------------------------------------

 Vector    1  Occ=1.000000D+00  E=-1.415062D+01
              MO Center=  9.1D-11,  9.1D-11,  1.2D-01, r^2= 2.0D-02
   Bfn.  Coefficient  Atom+Function         Bfn.  Coefficient  Atom+Function  
  ----- ------------  ---------------      ----- ------------  ---------------
     1      1.006033  1 N  s                  3     -0.025354  1 N  s          

 Vector    2  Occ=1.000000D+00  E=-6.836073D-01
              MO Center=  8.7D-08,  8.7D-08, -7.9D-02, r^2= 7.0D-01
   Bfn.  Coefficient  Atom+Function         Bfn.  Coefficient  Atom+Function  
  ----- ------------  ---------------      ----- ------------  ---------------
     2      0.419535  1 N  s                  3      0.251288  1 N  s          
    24      0.199568  2 H  s                 33      0.199568  3 H  s          
    42      0.199568  4 H  s                  7     -0.093540  1 N  pz         
     4      0.036209  1 N  s                 36      0.031567  3 H  px         
    46      0.031567  4 H  py         

 Vector    3  Occ=1.000000D+00  E=-2.897342D-01
              MO Center=  1.3D-01,  1.3D-01, -5.7D-02, r^2= 1.0D+00
   Bfn.  Coefficient  Atom+Function         Bfn.  Coefficient  Atom+Function  
  ----- ------------  ---------------      ----- ------------  ---------------
    24      0.396822  2 H  s                  5      0.335668  1 N  px         
     6      0.335668  1 N  py                25      0.268373  2 H  s          
    33     -0.198411  3 H  s                 42     -0.198411  4 H  s          
    34     -0.134186  3 H  s                 43     -0.134186  4 H  s          
     8      0.084225  1 N  px                 9      0.084225  1 N  py         

 Vector    4  Occ=1.000000D+00  E=-2.897341D-01
              MO Center= -1.3D-01, -1.3D-01, -5.7D-02, r^2= 1.0D+00
   Bfn.  Coefficient  Atom+Function         Bfn.  Coefficient  Atom+Function  
  ----- ------------  ---------------      ----- ------------  ---------------
    33     -0.343658  3 H  s                 42      0.343658  4 H  s          
     5      0.335668  1 N  px                 6     -0.335668  1 N  py         
    34     -0.232418  3 H  s                 43      0.232418  4 H  s          
     8      0.084225  1 N  px                 9     -0.084225  1 N  py         
    39     -0.039135  3 H  px                49      0.039135  4 H  py         

 Vector    5  Occ=1.000000D+00  E=-1.114109D-01
              MO Center=  1.0D-07,  1.0D-07,  2.5D-01, r^2= 1.1D+00
   Bfn.  Coefficient  Atom+Function         Bfn.  Coefficient  Atom+Function  
  ----- ------------  ---------------      ----- ------------  ---------------
     7      0.539270  1 N  pz                10      0.337626  1 N  pz         
     3      0.291506  1 N  s                  2      0.148560  1 N  s          
    13      0.116003  1 N  pz                 4      0.114755  1 N  s          
    24     -0.105649  2 H  s                 33     -0.105649  3 H  s          
    42     -0.105649  4 H  s                 25     -0.055453  2 H  s          

 Vector    6  Occ=0.000000D+00  E= 1.036674D-01
              MO Center=  1.8D-05,  1.8D-05, -4.3D-01, r^2= 1.2D+01
   Bfn.  Coefficient  Atom+Function         Bfn.  Coefficient  Atom+Function  
  ----- ------------  ---------------      ----- ------------  ---------------
     4      2.002115  1 N  s                 26     -0.697975  2 H  s          
    35     -0.697944  3 H  s                 44     -0.697944  4 H  s          
    25     -0.449943  2 H  s                 34     -0.449941  3 H  s          
    43     -0.449941  4 H  s                  3      0.446640  1 N  s          
    13     -0.270276  1 N  pz                10     -0.143506  1 N  pz         

 Vector    7  Occ=0.000000D+00  E= 1.319068D-01
              MO Center=  5.9D-01,  5.9D-01, -6.2D-01, r^2= 1.6D+01
   Bfn.  Coefficient  Atom+Function         Bfn.  Coefficient  Atom+Function  
  ----- ------------  ---------------      ----- ------------  ---------------
    26      3.632056  2 H  s                 35     -1.816034  3 H  s          
    44     -1.816035  4 H  s                 11     -0.699549  1 N  px         
    12     -0.699549  1 N  py                25      0.482441  2 H  s          
    34     -0.241225  3 H  s                 43     -0.241225  4 H  s          
     8     -0.135810  1 N  px                 9     -0.135810  1 N  py         

 Vector    8  Occ=0.000000D+00  E= 1.319070D-01
              MO Center= -5.9D-01, -5.9D-01, -6.2D-01, r^2= 1.6D+01
   Bfn.  Coefficient  Atom+Function         Bfn.  Coefficient  Atom+Function  
  ----- ------------  ---------------      ----- ------------  ---------------
    35      3.145456  3 H  s                 44     -3.145455  4 H  s          
    11      0.699549  1 N  px                12     -0.699549  1 N  py         
    34      0.417808  3 H  s                 43     -0.417808  4 H  s          
     8      0.135810  1 N  px                 9     -0.135810  1 N  py         
    39      0.100202  3 H  px                49     -0.100202  4 H  py         

 Vector    9  Occ=0.000000D+00  E= 2.111860D-01
              MO Center=  1.1D-06,  1.1D-06,  2.9D-01, r^2= 9.3D+00
   Bfn.  Coefficient  Atom+Function         Bfn.  Coefficient  Atom+Function  
  ----- ------------  ---------------      ----- ------------  ---------------
     4      3.391850  1 N  s                 13     -1.745639  1 N  pz         
    25     -0.897962  2 H  s                 34     -0.897961  3 H  s          
    43     -0.897961  4 H  s                 26     -0.510451  2 H  s          
    35     -0.510449  3 H  s                 44     -0.510449  4 H  s          
     3      0.351006  1 N  s                  7      0.239724  1 N  pz         

 Vector   10  Occ=0.000000D+00  E= 2.438328D-01
              MO Center=  7.7D-06,  7.7D-06, -5.1D-02, r^2= 9.9D+00
   Bfn.  Coefficient  Atom+Function         Bfn.  Coefficient  Atom+Function  
  ----- ------------  ---------------      ----- ------------  ---------------
     4      4.343249  1 N  s                 25     -0.767947  2 H  s          
    34     -0.767934  3 H  s                 43     -0.767934  4 H  s          
    26     -0.760311  2 H  s                 35     -0.760288  3 H  s          
    44     -0.760288  4 H  s                  3      0.409560  1 N  s          
    39     -0.299356  3 H  px                49     -0.299356  4 H  py         

 Vector   11  Occ=0.000000D+00  E= 2.623171D-01
              MO Center=  1.7D-01,  1.7D-01,  3.4D-01, r^2= 1.1D+01
   Bfn.  Coefficient  Atom+Function         Bfn.  Coefficient  Atom+Function  
  ----- ------------  ---------------      ----- ------------  ---------------
    35      3.042283  3 H  s                 44     -3.042283  4 H  s          
    11      2.221289  1 N  px                12     -2.221290  1 N  py         
    34      2.031044  3 H  s                 43     -2.031045  4 H  s          
    39      0.359626  3 H  px                49     -0.359626  4 H  py         
     8      0.301711  1 N  px                 9     -0.301711  1 N  py         

 Vector   12  Occ=0.000000D+00  E= 2.623172D-01
              MO Center= -1.7D-01, -1.7D-01,  3.4D-01, r^2= 1.1D+01
   Bfn.  Coefficient  Atom+Function         Bfn.  Coefficient  Atom+Function  
  ----- ------------  ---------------      ----- ------------  ---------------
    26      3.512924  2 H  s                 25      2.345241  2 H  s          
    11     -2.221290  1 N  px                12     -2.221290  1 N  py         
    35     -1.756467  3 H  s                 44     -1.756466  4 H  s          
    34     -1.172626  3 H  s                 43     -1.172625  4 H  s          
     8     -0.301710  1 N  px                 9     -0.301710  1 N  py         

 Vector   13  Occ=0.000000D+00  E= 3.150879D-01
              MO Center=  3.8D-01,  3.8D-01, -4.0D-01, r^2= 4.4D+00
   Bfn.  Coefficient  Atom+Function         Bfn.  Coefficient  Atom+Function  
  ----- ------------  ---------------      ----- ------------  ---------------
    26      1.194969  2 H  s                 25     -0.608049  2 H  s          
    35     -0.597486  3 H  s                 44     -0.597487  4 H  s          
    30     -0.402689  2 H  px                31     -0.402689  2 H  py         
    32      0.304634  2 H  pz                34      0.304020  3 H  s          
    43      0.304020  4 H  s                 40      0.273816  3 H  py         

 Vector   14  Occ=0.000000D+00  E= 3.150881D-01
              MO Center= -3.8D-01, -3.8D-01, -4.0D-01, r^2= 4.4D+00
   Bfn.  Coefficient  Atom+Function         Bfn.  Coefficient  Atom+Function  
  ----- ------------  ---------------      ----- ------------  ---------------
    35      1.034878  3 H  s                 44     -1.034878  4 H  s          
    34     -0.526581  3 H  s                 43      0.526581  4 H  s          
    39      0.507345  3 H  px                49     -0.507345  4 H  py         
    41      0.263820  3 H  pz                50     -0.263820  4 H  pz         
     5     -0.236338  1 N  px                 6      0.236338  1 N  py         

 Vector   15  Occ=0.000000D+00  E= 3.780213D-01
              MO Center=  1.6D-06,  1.6D-06, -2.3D-01, r^2= 5.0D+00
   Bfn.  Coefficient  Atom+Function         Bfn.  Coefficient  Atom+Function  
  ----- ------------  ---------------      ----- ------------  ---------------
     4      4.586956  1 N  s                 25     -1.754780  2 H  s          
    34     -1.754778  3 H  s                 43     -1.754778  4 H  s          
     3      0.592966  1 N  s                 32     -0.394699  2 H  pz         
    41     -0.394692  3 H  pz                50     -0.394692  4 H  pz         
    13     -0.371557  1 N  pz                26     -0.332674  2 H  s          

 Vector   16  Occ=0.000000D+00  E= 3.856487D-01
              MO Center=  2.4D-02,  2.4D-02, -2.1D-01, r^2= 4.6D+00
   Bfn.  Coefficient  Atom+Function         Bfn.  Coefficient  Atom+Function  
  ----- ------------  ---------------      ----- ------------  ---------------
    32      0.891153  2 H  pz                40     -0.762001  3 H  py         
    48     -0.762001  4 H  px                25      0.728279  2 H  s          
    11      0.478496  1 N  px                12      0.478496  1 N  py         
    41     -0.445578  3 H  pz                50     -0.445578  4 H  pz         
    39     -0.370068  3 H  px                49     -0.370068  4 H  py         

 Vector   17  Occ=0.000000D+00  E= 3.856487D-01
              MO Center= -2.4D-02, -2.4D-02, -2.1D-01, r^2= 4.6D+00
   Bfn.  Coefficient  Atom+Function         Bfn.  Coefficient  Atom+Function  
  ----- ------------  ---------------      ----- ------------  ---------------
    41      0.771761  3 H  pz                50     -0.771761  4 H  pz         
    30      0.679178  2 H  px                31     -0.679178  2 H  py         
    34      0.630715  3 H  s                 43     -0.630715  4 H  s          
    40     -0.535720  3 H  py                48      0.535720  4 H  px         
    11     -0.478501  1 N  px                12      0.478501  1 N  py         

 Vector   18  Occ=0.000000D+00  E= 4.932051D-01
              MO Center= -5.0D-07, -5.0D-07, -2.0D-01, r^2= 6.1D+00
   Bfn.  Coefficient  Atom+Function         Bfn.  Coefficient  Atom+Function  
  ----- ------------  ---------------      ----- ------------  ---------------
     4      5.444977  1 N  s                 25     -2.008844  2 H  s          
    34     -2.008842  3 H  s                 43     -2.008842  4 H  s          
    13     -1.886670  1 N  pz                10     -1.162735  1 N  pz         
    32      0.753696  2 H  pz                41      0.753696  3 H  pz         
    50      0.753696  4 H  pz                 3      0.524659  1 N  s          

 Vector   19  Occ=0.000000D+00  E= 5.682384D-01
              MO Center=  8.2D-05,  8.2D-05, -2.9D-01, r^2= 5.0D+00
   Bfn.  Coefficient  Atom+Function         Bfn.  Coefficient  Atom+Function  
  ----- ------------  ---------------      ----- ------------  ---------------
    40      1.478045  3 H  py                48     -1.478045  4 H  px         
    30      1.082310  2 H  px                31     -1.082310  2 H  py         
    39      0.396215  3 H  px                49     -0.396215  4 H  py         

 Vector   20  Occ=0.000000D+00  E= 5.684559D-01
              MO Center= -1.4D-02, -1.4D-02,  1.2D-02, r^2= 6.2D+00
   Bfn.  Coefficient  Atom+Function         Bfn.  Coefficient  Atom+Function  
  ----- ------------  ---------------      ----- ------------  ---------------
    11      1.964512  1 N  px                12      1.964513  1 N  py         
    26     -1.913942  2 H  s                 32     -1.233640  2 H  pz         
    25     -1.102502  2 H  s                 35      0.956970  3 H  s          
    44      0.956970  4 H  s                 40     -0.905736  3 H  py         
    48     -0.905736  4 H  px                39     -0.710952  3 H  px         

 Vector   21  Occ=0.000000D+00  E= 5.684560D-01
              MO Center=  1.4D-02,  1.4D-02,  1.2D-02, r^2= 6.2D+00
   Bfn.  Coefficient  Atom+Function         Bfn.  Coefficient  Atom+Function  
  ----- ------------  ---------------      ----- ------------  ---------------
    11      1.964514  1 N  px                12     -1.964514  1 N  py         
    35      1.657523  3 H  s                 44     -1.657523  4 H  s          
    41      1.068366  3 H  pz                50     -1.068365  4 H  pz         
    34      0.954807  3 H  s                 43     -0.954807  4 H  s          
    30     -0.864344  2 H  px                31      0.864344  2 H  py         

 Vector   22  Occ=0.000000D+00  E= 6.324966D-01
              MO Center=  5.2D-06,  5.2D-06, -3.0D-01, r^2= 5.6D+00
   Bfn.  Coefficient  Atom+Function         Bfn.  Coefficient  Atom+Function  
  ----- ------------  ---------------      ----- ------------  ---------------
     3      4.712412  1 N  s                  4      3.817459  1 N  s          
    25     -2.004038  2 H  s                 34     -2.003986  3 H  s          
    43     -2.003986  4 H  s                 39     -1.229181  3 H  px         
    49     -1.229181  4 H  py                30      0.899844  2 H  px         
    31      0.899844  2 H  py                32     -0.749368  2 H  pz         

 Vector   23  Occ=0.000000D+00  E= 6.685863D-01
              MO Center=  3.9D-01,  3.9D-01, -2.7D-01, r^2= 4.8D+00
   Bfn.  Coefficient  Atom+Function         Bfn.  Coefficient  Atom+Function  
  ----- ------------  ---------------      ----- ------------  ---------------
    25      8.534279  2 H  s                 34     -4.267158  3 H  s          
    43     -4.267145  4 H  s                 30     -3.166654  2 H  px         
    31     -3.166653  2 H  py                39     -2.328895  3 H  px         
    49     -2.328889  4 H  py                 8     -1.611115  1 N  px         
     9     -1.611112  1 N  py                26      1.187884  2 H  s          

 Vector   24  Occ=0.000000D+00  E= 6.685865D-01
              MO Center= -3.9D-01, -3.9D-01, -2.7D-01, r^2= 4.8D+00
   Bfn.  Coefficient  Atom+Function         Bfn.  Coefficient  Atom+Function  
  ----- ------------  ---------------      ----- ------------  ---------------
    34      7.390894  3 H  s                 43     -7.390901  4 H  s          
    39      3.650339  3 H  px                49     -3.650343  4 H  py         
     8      1.611110  1 N  px                 9     -1.611112  1 N  py         
    40     -1.361512  3 H  py                48      1.361512  4 H  px         
    35      1.028737  3 H  s                 44     -1.028738  4 H  s          

 Vector   25  Occ=0.000000D+00  E= 6.935835D-01
              MO Center=  3.4D-02,  3.4D-02, -2.2D-01, r^2= 3.9D+00
   Bfn.  Coefficient  Atom+Function         Bfn.  Coefficient  Atom+Function  
  ----- ------------  ---------------      ----- ------------  ---------------
    25      6.593869  2 H  s                 34     -3.296936  3 H  s          
    43     -3.296931  4 H  s                 30     -1.634968  2 H  px         
    31     -1.634968  2 H  py                39     -1.339085  3 H  px         
    49     -1.339083  4 H  py                 8     -0.835965  1 N  px         
     9     -0.835964  1 N  py                19     -0.823729  1 N  d -2       

 Vector   26  Occ=0.000000D+00  E= 6.935837D-01
              MO Center= -3.4D-02, -3.4D-02, -2.2D-01, r^2= 3.9D+00
   Bfn.  Coefficient  Atom+Function         Bfn.  Coefficient  Atom+Function  
  ----- ------------  ---------------      ----- ------------  ---------------
    34      5.710469  3 H  s                 43     -5.710472  4 H  s          
    39      1.805803  3 H  px                49     -1.805804  4 H  py         
    40     -0.997432  3 H  py                48      0.997431  4 H  px         
     8      0.835966  1 N  px                 9     -0.835967  1 N  py         
    23     -0.823730  1 N  d  2              30      0.701543  2 H  px         

 Vector   27  Occ=0.000000D+00  E= 8.353178D-01
              MO Center=  2.0D-08,  2.0D-08,  3.0D-01, r^2= 3.3D+00
   Bfn.  Coefficient  Atom+Function         Bfn.  Coefficient  Atom+Function  
  ----- ------------  ---------------      ----- ------------  ---------------
     4      3.835824  1 N  s                 25     -1.752796  2 H  s          
    34     -1.752800  3 H  s                 43     -1.752800  4 H  s          
    21     -1.353126  1 N  d  0               3      1.049403  1 N  s          
    32     -0.593425  2 H  pz                41     -0.593426  3 H  pz         
    50     -0.593426  4 H  pz                26     -0.268961  2 H  s          

 Vector   28  Occ=0.000000D+00  E= 9.079068D-01
              MO Center=  8.7D-03,  8.7D-03,  7.4D-02, r^2= 3.0D+00
   Bfn.  Coefficient  Atom+Function         Bfn.  Coefficient  Atom+Function  
  ----- ------------  ---------------      ----- ------------  ---------------
    25      2.368066  2 H  s                 19     -1.213599  1 N  d -2       
    34     -1.184033  3 H  s                 43     -1.184032  4 H  s          
    32      0.992960  2 H  pz                40     -0.887508  3 H  py         
    48     -0.887508  4 H  px                20     -0.850275  1 N  d -1       
    22      0.850276  1 N  d  1              39     -0.724219  3 H  px         

 Vector   29  Occ=0.000000D+00  E= 9.079069D-01
              MO Center= -8.7D-03, -8.7D-03,  7.4D-02, r^2= 3.0D+00
   Bfn.  Coefficient  Atom+Function         Bfn.  Coefficient  Atom+Function  
  ----- ------------  ---------------      ----- ------------  ---------------
    34      2.050800  3 H  s                 43     -2.050801  4 H  s          
    23     -1.213599  1 N  d  2              41      0.859927  3 H  pz         
    50     -0.859928  4 H  pz                20     -0.850276  1 N  d -1       
    22     -0.850275  1 N  d  1              30      0.853000  2 H  px         
    31     -0.853001  2 H  py                40     -0.793233  3 H  py         

 Vector   30  Occ=0.000000D+00  E= 1.059890D+00
              MO Center=  3.6D-07,  3.6D-07, -1.8D-01, r^2= 2.8D+00
   Bfn.  Coefficient  Atom+Function         Bfn.  Coefficient  Atom+Function  
  ----- ------------  ---------------      ----- ------------  ---------------
     4      3.439516  1 N  s                 25     -2.066073  2 H  s          
    34     -2.066069  3 H  s                 43     -2.066069  4 H  s          
     3      1.960537  1 N  s                 13     -0.922957  1 N  pz         
    24      0.792320  2 H  s                 33      0.792319  3 H  s          
    42      0.792319  4 H  s                 21      0.600464  1 N  d  0       

 Vector   31  Occ=0.000000D+00  E= 1.130713D+00
              MO Center= -3.9D-02, -3.9D-02,  1.8D-01, r^2= 2.4D+00
   Bfn.  Coefficient  Atom+Function         Bfn.  Coefficient  Atom+Function  
  ----- ------------  ---------------      ----- ------------  ---------------
    25      4.399579  2 H  s                 34     -2.199795  3 H  s          
    43     -2.199790  4 H  s                  8     -1.639968  1 N  px         
     9     -1.639966  1 N  py                30     -1.097562  2 H  px         
    31     -1.097562  2 H  py                32      0.825365  2 H  pz         
    19      0.766794  1 N  d -2              39     -0.694307  3 H  px         

 Vector   32  Occ=0.000000D+00  E= 1.130713D+00
              MO Center=  3.9D-02,  3.9D-02,  1.8D-01, r^2= 2.4D+00
   Bfn.  Coefficient  Atom+Function         Bfn.  Coefficient  Atom+Function  
  ----- ------------  ---------------      ----- ------------  ---------------
    34      3.810150  3 H  s                 43     -3.810153  4 H  s          
     8      1.639966  1 N  px                 9     -1.639968  1 N  py         
    39      1.330384  3 H  px                49     -1.330384  4 H  py         
    23      0.766793  1 N  d  2              41      0.714787  3 H  pz         
    50     -0.714788  4 H  pz                33     -0.482781  3 H  s          

 Vector   33  Occ=0.000000D+00  E= 1.252379D+00
              MO Center= -8.3D-08, -8.3D-08,  6.3D-02, r^2= 2.4D+00
   Bfn.  Coefficient  Atom+Function         Bfn.  Coefficient  Atom+Function  
  ----- ------------  ---------------      ----- ------------  ---------------
     4      3.167780  1 N  s                 10     -2.509134  1 N  pz         
    25     -1.259899  2 H  s                 34     -1.259899  3 H  s          
    43     -1.259899  4 H  s                  7      1.001031  1 N  pz         
    13     -0.833820  1 N  pz                32      0.644530  2 H  pz         
    41      0.644531  3 H  pz                50      0.644531  4 H  pz         

 Vector   34  Occ=0.000000D+00  E= 1.715531D+00
              MO Center= -3.0D-02, -3.0D-02,  9.7D-02, r^2= 2.5D+00
   Bfn.  Coefficient  Atom+Function         Bfn.  Coefficient  Atom+Function  
  ----- ------------  ---------------      ----- ------------  ---------------
    25      4.994104  2 H  s                 34     -2.497059  3 H  s          
    43     -2.497045  4 H  s                  8     -2.320370  1 N  px         
     9     -2.320362  1 N  py                19     -1.265312  1 N  d -2       
    24      1.193823  2 H  s                 11     -1.125202  1 N  px         
    12     -1.125198  1 N  py                26      1.018842  2 H  s          

 Vector   35  Occ=0.000000D+00  E= 1.715531D+00
              MO Center=  3.0D-02,  3.0D-02,  9.7D-02, r^2= 2.5D+00
   Bfn.  Coefficient  Atom+Function         Bfn.  Coefficient  Atom+Function  
  ----- ------------  ---------------      ----- ------------  ---------------
    34      4.325018  3 H  s                 43     -4.325026  4 H  s          
     8      2.320362  1 N  px                 9     -2.320370  1 N  py         
    23     -1.265313  1 N  d  2              11      1.125198  1 N  px         
    12     -1.125202  1 N  py                39      1.046457  3 H  px         
    49     -1.046459  4 H  py                33      1.033880  3 H  s          

 Vector   36  Occ=0.000000D+00  E= 1.848008D+00
              MO Center= -2.3D-08, -2.3D-08, -2.9D-01, r^2= 1.8D+00
   Bfn.  Coefficient  Atom+Function         Bfn.  Coefficient  Atom+Function  
  ----- ------------  ---------------      ----- ------------  ---------------
    37      0.658953  3 H  py                45     -0.658953  4 H  px         
    40     -0.616863  3 H  py                48      0.616863  4 H  px         
    27      0.482387  2 H  px                28     -0.482387  2 H  py         
    30     -0.451575  2 H  px                31      0.451575  2 H  py         
    36      0.176566  3 H  px                46     -0.176566  4 H  py         

 Vector   37  Occ=0.000000D+00  E= 1.964332D+00
              MO Center=  2.0D-01,  2.0D-01, -1.2D-01, r^2= 1.9D+00
   Bfn.  Coefficient  Atom+Function         Bfn.  Coefficient  Atom+Function  
  ----- ------------  ---------------      ----- ------------  ---------------
    25      4.243655  2 H  s                 34     -2.121825  3 H  s          
    43     -2.121822  4 H  s                 19     -1.507162  1 N  d -2       
    30     -1.256736  2 H  px                31     -1.256736  2 H  py         
     8     -1.150391  1 N  px                 9     -1.150390  1 N  py         
    39     -1.057278  3 H  px                49     -1.057278  4 H  py         

 Vector   38  Occ=0.000000D+00  E= 1.964332D+00
              MO Center= -2.0D-01, -2.0D-01, -1.2D-01, r^2= 1.9D+00
   Bfn.  Coefficient  Atom+Function         Bfn.  Coefficient  Atom+Function  
  ----- ------------  ---------------      ----- ------------  ---------------
    34      3.675108  3 H  s                 43     -3.675109  4 H  s          
    23     -1.507161  1 N  d  2              39      1.371892  3 H  px         
    49     -1.371892  4 H  py                 8      1.150389  1 N  px         
     9     -1.150389  1 N  py                40     -0.826966  3 H  py         
    48      0.826965  4 H  px                38      0.770558  3 H  pz         

 Vector   39  Occ=0.000000D+00  E= 2.013749D+00
              MO Center= -1.0D-06, -1.0D-06, -2.7D-01, r^2= 1.8D+00
   Bfn.  Coefficient  Atom+Function         Bfn.  Coefficient  Atom+Function  
  ----- ------------  ---------------      ----- ------------  ---------------
     3      3.842256  1 N  s                  4      2.190364  1 N  s          
    25     -1.468931  2 H  s                 34     -1.468945  3 H  s          
    43     -1.468945  4 H  s                 21     -1.156887  1 N  d  0       
     2     -0.961363  1 N  s                 29     -0.673250  2 H  pz         
    38     -0.673252  3 H  pz                47     -0.673252  4 H  pz         

 Vector   40  Occ=0.000000D+00  E= 2.196604D+00
              MO Center=  9.1D-02,  9.1D-02, -1.8D-01, r^2= 1.6D+00
   Bfn.  Coefficient  Atom+Function         Bfn.  Coefficient  Atom+Function  
  ----- ------------  ---------------      ----- ------------  ---------------
    25      1.435893  2 H  s                  8     -0.939658  1 N  px         
     9     -0.939658  1 N  py                34     -0.717948  3 H  s          
    43     -0.717948  4 H  s                 20      0.696430  1 N  d -1       
    22     -0.696430  1 N  d  1              24      0.673087  2 H  s          
    37      0.608029  3 H  py                45      0.608029  4 H  px         

 Vector   41  Occ=0.000000D+00  E= 2.196605D+00
              MO Center= -9.1D-02, -9.1D-02, -1.8D-01, r^2= 1.6D+00
   Bfn.  Coefficient  Atom+Function         Bfn.  Coefficient  Atom+Function  
  ----- ------------  ---------------      ----- ------------  ---------------
    34      1.243526  3 H  s                 43     -1.243526  4 H  s          
     8      0.939661  1 N  px                 9     -0.939661  1 N  py         
    20      0.696431  1 N  d -1              22      0.696431  1 N  d  1       
    33      0.582911  3 H  s                 42     -0.582911  4 H  s          
    36      0.577461  3 H  px                46     -0.577461  4 H  py         

 Vector   42  Occ=0.000000D+00  E= 2.245674D+00
              MO Center=  1.0D-01,  1.0D-01, -1.9D-01, r^2= 1.7D+00
   Bfn.  Coefficient  Atom+Function         Bfn.  Coefficient  Atom+Function  
  ----- ------------  ---------------      ----- ------------  ---------------
    25      4.132720  2 H  s                  8     -2.179881  1 N  px         
     9     -2.179880  1 N  py                34     -2.066346  3 H  s          
    43     -2.066343  4 H  s                 30     -1.270999  2 H  px         
    31     -1.270999  2 H  py                24      0.925577  2 H  s          
    39     -0.881043  3 H  px                49     -0.881042  4 H  py         

 Vector   43  Occ=0.000000D+00  E= 2.245675D+00
              MO Center= -1.0D-01, -1.0D-01, -1.9D-01, r^2= 1.7D+00
   Bfn.  Coefficient  Atom+Function         Bfn.  Coefficient  Atom+Function  
  ----- ------------  ---------------      ----- ------------  ---------------
    34      3.579030  3 H  s                 43     -3.579032  4 H  s          
     8      2.179879  1 N  px                 9     -2.179880  1 N  py         
    39      1.496133  3 H  px                49     -1.496134  4 H  py         
    33      0.801570  3 H  s                 42     -0.801570  4 H  s          
    20      0.734317  1 N  d -1              22      0.734316  1 N  d  1       

 Vector   44  Occ=0.000000D+00  E= 2.253891D+00
              MO Center= -2.9D-06, -2.9D-06, -1.4D-01, r^2= 2.1D+00
   Bfn.  Coefficient  Atom+Function         Bfn.  Coefficient  Atom+Function  
  ----- ------------  ---------------      ----- ------------  ---------------
     3      7.261325  1 N  s                  4      2.860510  1 N  s          
[...]
 d_dipole_z/<atom=   2,x> =    -0.1045     [   -0.5017]
 d_dipole_z/<atom=   2,y> =    -0.1045     [   -0.5017]
 d_dipole_z/<atom=   2,z> =    -0.2851     [   -1.3693]
 d_dipole_z/<atom=   3,x> =     0.1427     [    0.6854]
 d_dipole_z/<atom=   3,y> =    -0.0382     [   -0.1836]
 d_dipole_z/<atom=   3,z> =    -0.2851     [   -1.3694]
 d_dipole_z/<atom=   4,x> =    -0.0382     [   -0.1836]
 d_dipole_z/<atom=   4,y> =     0.1427     [    0.6854]
 d_dipole_z/<atom=   4,z> =    -0.2851     [   -1.3694]
  
  
 HESSIAN: the Hessian is done


  Vibrational analysis via the FX method 

  See chapter 2 in "Molecular Vibrations" by Wilson, Decius and Cross

  Vib: Default input used 

  Nuclear Hessian passed symmetry test 



 ---------------------------- Atom information ----------------------------
     atom    #        X              Y              Z            mass
 --------------------------------------------------------------------------
    N        1 -1.4254745D-50 -7.1273726D-51  2.3143644D-01  1.4003070D+01
    H        2  1.2588045D+00  1.2588045D+00 -5.4001835D-01  1.0078250D+00
    H        3 -1.7195590D+00  4.6075444D-01 -5.4001835D-01  1.0078250D+00
    H        4  4.6075444D-01 -1.7195590D+00 -5.4001835D-01  1.0078250D+00
 --------------------------------------------------------------------------




          ----------------------------------------------------
          MASS-WEIGHTED NUCLEAR HESSIAN (Hartree/Bohr/Bohr/Kamu)
          ----------------------------------------------------


               1            2            3            4            5            6            7            8            9           10
   ----- ----- ----- ----- -----
    1    4.11953D+01
    2    2.41235D-05  4.11953D+01
    3   -3.40847D-05 -3.39676D-05  1.58526D+01
    4   -5.11910D+01 -3.69018D+01  2.14963D+01  2.06093D+02
    5   -3.69018D+01 -5.11910D+01  2.14963D+01  1.53368D+02  2.06093D+02
    6    3.13735D+01  3.13735D+01 -1.97038D+01 -9.37913D+01 -9.37913D+01  7.22605D+01
    7   -8.31489D+01  1.84509D+01 -2.93645D+01 -2.13319D+01  8.68453D+00 -1.27815D+01  3.38914D+02
    8    1.84509D+01 -1.92331D+01  7.86819D+00 -2.44986D+01  6.05907D+00 -1.03735D+01 -7.66839D+01  7.32731D+01
    9   -4.28570D+01  1.14835D+01 -1.97038D+01  1.62557D+01 -2.59286D+00  5.94504D-01  1.28121D+02 -3.43300D+01  7.22604D+01
   10   -1.92331D+01  1.84509D+01  7.86819D+00  6.05907D+00 -2.44986D+01 -1.03735D+01 -7.63633D+00  3.24057D+01  1.53744D+01  7.32731D+01
   11    1.84509D+01 -8.31489D+01 -2.93645D+01  8.68453D+00 -2.13319D+01 -1.27815D+01 -7.77394D-01 -7.63649D+00 -5.88233D+00 -7.66839D+01
   12    1.14835D+01 -4.28570D+01 -1.97038D+01 -2.59286D+00  1.62557D+01  5.94504D-01 -5.88237D+00  1.53743D+01  5.94505D-01 -3.43300D+01


              11           12
   ----- ----- ----- ----- -----
   11    3.38914D+02
   12    1.28121D+02  7.22604D+01



          -------------------------------------------------
          NORMAL MODE EIGENVECTORS IN CARTESIAN COORDINATES
          -------------------------------------------------
                 (Frequencies expressed in cm-1)

                    1           2           3           4           5           6
 
 Frequency        -12.22      -12.17      -10.15       -9.64       -7.22       -7.12
 
           1    -0.13478    -0.09146     0.00039    -0.00607    -0.12792     0.13710
           2     0.09343    -0.13488    -0.00086     0.00407     0.13534     0.12833
           3    -0.00121    -0.00526    -0.24195    -0.01180    -0.00068    -0.00517
           4     0.07724     0.05999    -0.02597     0.40530    -0.23518     0.24182
           5    -0.04653     0.09071     0.01238    -0.40404     0.24897     0.22915
           6     0.11637     0.60994    -0.26332    -0.00648     0.00971     0.33023
           7     0.08469     0.06111    -0.01350     0.14793    -0.23149     0.24192
           8    -0.07434     0.08653    -0.03421     0.55649     0.23517     0.22880
           9    -0.59058    -0.21309    -0.23089    -0.02513     0.28980    -0.17881
          10     0.10505     0.06418     0.02061    -0.55523    -0.22137     0.24216
          11    -0.05397     0.08958    -0.00012    -0.14667     0.24528     0.22906
          12     0.47057    -0.41261    -0.23151    -0.00380    -0.30155    -0.16694

                    7           8           9          10          11          12
 
 Frequency       1050.21     1599.92     1599.92     3321.71     3445.61     3445.61
 
           1    -0.00000    -0.02667     0.05737    -0.00000     0.05613    -0.05035
           2    -0.00000     0.05737     0.02667    -0.00000     0.05035     0.05613
           3    -0.10523     0.00000    -0.00000     0.04006     0.00000     0.00000
           4     0.14468     0.52304    -0.07997     0.38006    -0.50680    -0.04195
           5     0.14468    -0.45144     0.27598     0.38006    -0.50836    -0.01310
           6     0.48744     0.08713     0.23855    -0.18555     0.30223     0.01639
           7    -0.19763    -0.23707    -0.01259    -0.51916    -0.37482     0.58456
           8     0.05296    -0.51882    -0.48413     0.13911     0.11814    -0.14509
           9     0.48744     0.16302    -0.19473    -0.18555    -0.16531     0.25355
          10     0.05296     0.08463    -0.70456     0.13911     0.10176     0.15701
          11    -0.19763     0.17314    -0.16243    -0.51916    -0.30941    -0.62167
          12     0.48744    -0.25015    -0.04381    -0.18555    -0.13692    -0.26994



 ----------------------------------------------------------------------------
 Normal Eigenvalue ||         Derivative Dipole Moments (debye/angs)
  Mode   [cm**-1]  ||      [d/dqX]             [d/dqY]           [d/dqZ]
 ------ ---------- || ------------------ ------------------ -----------------
    1      -12.221 ||      -0.135               0.082             0.006
    2      -12.174 ||      -0.096              -0.135             0.025
    3      -10.154 ||      -0.021              -0.027            -1.162
    4       -9.637 ||       0.010              -0.012             0.057
    5       -7.221 ||      -0.969               1.027            -0.003
    6       -7.125 ||      -1.025              -0.968             0.025
    7     1050.213 ||       0.000               0.000            -2.365
    8     1599.917 ||      -1.283               2.760             0.000
    9     1599.917 ||      -2.760              -1.283            -0.000
   10     3321.705 ||       0.000               0.000             0.410
   11     3445.611 ||      -3.050              -2.737            -0.000
   12     3445.612 ||       2.737              -3.050            -0.000
 ----------------------------------------------------------------------------



  
  
 ----------------------------------------------------------------------------
 Normal Eigenvalue ||                 Infra Red Intensities
  Mode   [cm**-1]  || [atomic units] [(debye/angs)**2] [(KM/mol)] [arbitrary]
 ------ ---------- || -------------- ----------------- ---------- -----------
    1      -12.221 ||    0.001081           0.025         1.054       0.047
    2      -12.174 ||    0.001217           0.028         1.186       0.053
    3      -10.154 ||    0.058559           1.351        57.086       2.563
    4       -9.637 ||    0.000150           0.003         0.146       0.007
    5       -7.221 ||    0.086397           1.993        84.224       3.781
    6       -7.125 ||    0.086207           1.989        84.039       3.772
    7     1050.213 ||    0.242415           5.593       236.318      10.608
    8     1599.917 ||    0.401519           9.263       391.420      17.570
    9     1599.917 ||    0.401518           9.263       391.419      17.570
   10     3321.705 ||    0.007274           0.168         7.091       0.318
   11     3445.611 ||    0.727966          16.795       709.658      31.855
   12     3445.612 ||    0.727962          16.795       709.653      31.855
 ----------------------------------------------------------------------------





        Vibrational analysis via the FX method 
  --- with translations and rotations projected out ---
  --- via the Eckart algorithm                      ---
 Projected Nuclear Hessian trans-rot subspace norm:5.6863D-33
                         (should be close to zero!) 

          --------------------------------------------------------
          MASS-WEIGHTED PROJECTED HESSIAN (Hartree/Bohr/Bohr/Kamu)
          --------------------------------------------------------


               1            2            3            4            5            6            7            8            9           10
   ----- ----- ----- ----- -----
    1    4.11980D+01
    2    1.10435D-05  4.11980D+01
    3   -1.63768D-05 -1.66501D-05  1.58551D+01
    4   -5.11887D+01 -3.69019D+01  2.14964D+01  2.06089D+02
    5   -3.69019D+01 -5.11887D+01  2.14964D+01  1.53366D+02  2.06089D+02
    6    3.13709D+01  3.13709D+01 -1.97000D+01 -9.37873D+01 -9.37873D+01  7.22530D+01
    7   -8.31467D+01  1.84509D+01 -2.93645D+01 -2.13367D+01  8.68407D+00 -1.27780D+01  3.38909D+02
    8    1.84509D+01 -1.92307D+01  7.86824D+00 -2.44980D+01  6.05396D+00 -1.03701D+01 -7.66831D+01  7.32703D+01
    9   -4.28534D+01  1.14825D+01 -1.97000D+01  1.62511D+01 -2.59175D+00  5.89506D-01  1.28116D+02 -3.43285D+01  7.22529D+01
   10   -1.92307D+01  1.84509D+01  7.86824D+00  6.05393D+00 -2.44980D+01 -1.03701D+01 -7.64138D+00  3.24050D+01  1.53697D+01  7.32703D+01
   11    1.84509D+01 -8.31467D+01 -2.93645D+01  8.68411D+00 -2.13367D+01 -1.27780D+01 -7.77063D-01 -7.64143D+00 -5.88104D+00 -7.66832D+01
   12    1.14825D+01 -4.28534D+01 -1.97000D+01 -2.59174D+00  1.62511D+01  5.89508D-01 -5.88105D+00  1.53697D+01  5.89479D-01 -3.43285D+01


              11           12
   ----- ----- ----- ----- -----
   11    3.38909D+02
   12    1.28116D+02  7.22529D+01

 center of mass
 --------------
 x =   0.00000000 y =  -0.00000000 z =   0.09444597

 moments of inertia (a.u.)
 ------------------
           6.270836513213           0.000000000000           0.000000000000
           0.000000000000           6.270836513213           0.000000000000
           0.000000000000           0.000000000000           9.581929636545

 Rotational Constants
 --------------------
 A=   9.600023 cm-1  ( 13.811983 K)
 B=   9.600023 cm-1  ( 13.811983 K)
 C=   6.282678 cm-1  (  9.039170 K)


 Temperature                      =   298.15K
 frequency scaling parameter      =   1.0000

 Zero-Point correction to Energy  =   20.665 kcal/mol  (  0.032932 au)
 Thermal correction to Energy     =   22.465 kcal/mol  (  0.035800 au)
 Thermal correction to Enthalpy   =   23.057 kcal/mol  (  0.036744 au)

 Total Entropy                    =   46.026 cal/mol-K
   - Translational                =   34.425 cal/mol-K (mol. weight =  17.0265)
   - Rotational                   =   11.508 cal/mol-K (symmetry #  =        3)
   - Vibrational                  =    0.092 cal/mol-K

 Cv (constant volume heat capacity) =    6.390 cal/mol-K
   - Translational                  =    2.979 cal/mol-K
   - Rotational                     =    2.979 cal/mol-K
   - Vibrational                    =    0.431 cal/mol-K



          -------------------------------------------------
          NORMAL MODE EIGENVECTORS IN CARTESIAN COORDINATES
          -------------------------------------------------
             (Projected Frequencies expressed in cm-1)

                    1           2           3           4           5           6
 
 P.Frequency       -0.00       -0.00       -0.00       -0.00       -0.00        0.00
 
           1    -0.00084     0.03288    -0.01893    -0.24282     0.03473     0.01084
           2     0.24238    -0.00250     0.00558    -0.00060     0.02250    -0.04934
           3    -0.00116    -0.00098    -0.20701    -0.00180    -0.10113    -0.07514
           4     0.00091    -0.38128     0.12837    -0.27935    -0.21293    -0.05540
           5     0.24500     0.40536    -0.03709     0.05289    -0.09815     0.22395
           6     0.00598    -0.01126    -0.03629     0.02585    -0.70210     0.26273
           7     0.00281    -0.12578     0.13162    -0.24605    -0.21821    -0.06143
           8     0.23790    -0.54817    -0.04924    -0.07143    -0.07844     0.24647
           9    -0.01198     0.02675    -0.57534    -0.03692     0.40238     0.26262
          10     0.00801     0.57225     0.14052    -0.15504    -0.23264    -0.07791
          11     0.24309     0.14986    -0.04035     0.01958    -0.09287     0.22998
          12     0.00253    -0.01844    -0.00940     0.00565    -0.00366    -0.75076

                    7           8           9          10          11          12
 
 P.Frequency     1050.01     1599.85     1599.85     3321.69     3445.56     3445.56
 
           1    -0.00000     0.06263     0.00900    -0.00000     0.07119    -0.02485
           2    -0.00000    -0.00900     0.06263    -0.00000     0.02485     0.07119
           3    -0.10524    -0.00000    -0.00000     0.04006    -0.00000     0.00000
           4     0.14467    -0.35271     0.39440     0.38006    -0.45155    -0.23390
           5     0.14467     0.47776    -0.22739     0.38006    -0.46411    -0.20786
           6     0.48743     0.15222     0.20330    -0.18554     0.27260     0.13152
           7    -0.19762     0.11894    -0.20545    -0.51917    -0.57104     0.39513
           8     0.05295    -0.12210    -0.69903     0.13911     0.16492    -0.08838
           9     0.48743    -0.25217     0.03017    -0.18554    -0.25020     0.17032
          10     0.05295    -0.63638    -0.31398     0.13911     0.03347     0.18409
          11    -0.19762    -0.23063     0.05628    -0.51917    -0.04612    -0.69288
          12     0.48743     0.09995    -0.23347    -0.18554    -0.02240    -0.30184



 ----------------------------------------------------------------------------
 Normal Eigenvalue ||    Projected Derivative Dipole Moments (debye/angs)
  Mode   [cm**-1]  ||      [d/dqX]             [d/dqY]           [d/dqZ]
 ------ ---------- || ------------------ ------------------ -----------------
    1       -0.000 ||      -0.013              -1.163             0.006
    2       -0.000 ||      -0.119              -0.005             0.005
    3       -0.000 ||      -0.442               0.140             0.994
    4       -0.000 ||       1.110              -0.000             0.009
    5       -0.000 ||       0.728               0.285             0.486
    6        0.000 ||      -0.213               0.752            -0.361
    7     1050.010 ||       0.000               0.000            -2.365
    8     1599.854 ||       3.013              -0.433             0.000
    9     1599.855 ||      -0.433              -3.013            -0.000
   10     3321.694 ||       0.000               0.000             0.410
   11     3445.559 ||      -3.869              -1.351            -0.000
   12     3445.559 ||       1.351              -3.869            -0.000
 ----------------------------------------------------------------------------



  
  
 ----------------------------------------------------------------------------
 Normal Eigenvalue ||           Projected Infra Red Intensities
  Mode   [cm**-1]  || [atomic units] [(debye/angs)**2] [(KM/mol)] [arbitrary]
 ------ ---------- || -------------- ----------------- ---------- -----------
    1       -0.000 ||    0.058610           1.352        57.136       2.565
    2       -0.000 ||    0.000615           0.014         0.600       0.027
    3       -0.000 ||    0.052168           1.204        50.856       2.283
    4       -0.000 ||    0.053433           1.233        52.089       2.338
    5       -0.000 ||    0.036715           0.847        35.791       1.607
    6        0.000 ||    0.032101           0.741        31.294       1.405
    7     1050.010 ||    0.242396           5.592       236.299      10.607
    8     1599.854 ||    0.401546           9.264       391.447      17.571
    9     1599.855 ||    0.401546           9.264       391.447      17.571
   10     3321.694 ||    0.007276           0.168         7.093       0.318
   11     3445.559 ||    0.727932          16.794       709.624      31.854
   12     3445.559 ||    0.727929          16.794       709.621      31.854
 ----------------------------------------------------------------------------



 vib:animation  F

 Task  times  cpu:       13.3s     wall:       13.4s


                                NWChem Input Module
                                -------------------


 Summary of allocated global arrays
-----------------------------------
  No active global arrays



                         GA Statistics for process    0
                         ------------------------------

       create   destroy   get      put      acc     scatter   gather  read&inc
calls: 1654     1654     1.63e+05 2.29e+04 1.50e+05 1026        0      423     
number of processes/call 1.15e+00 1.79e+00 1.37e+00 0.00e+00 0.00e+00
bytes total:             2.80e+08 2.31e+07 3.36e+08 0.00e+00 0.00e+00 3.38e+03
bytes remote:            1.07e+08 6.52e+06 1.01e+08 -8.00e+02 0.00e+00 0.00e+00
Max memory consumed for GA by this process: 2894128 bytes

MA_summarize_allocated_blocks: starting scan ...
MA_summarize_allocated_blocks: scan completed: 0 heap blocks, 0 stack blocks
MA usage statistics:

	allocation statistics:
					      heap	     stack
					      ----	     -----
	current number of blocks	         0	         0
	maximum number of blocks	        26	        54
	current total bytes		         0	         0
	maximum total bytes		   5688720	  82447512
	maximum total K-bytes		      5689	     82448
	maximum total M-bytes		         6	        83


                                     CITATION
                                     --------
                Please cite the following reference when publishing
                           results obtained with NWChem:

                 M. Valiev, E.J. Bylaska, N. Govind, K. Kowalski,
              T.P. Straatsma, H.J.J. van Dam, D. Wang, J. Nieplocha,
                        E. Apra, T.L. Windus, W.A. de Jong
                 "NWChem: a comprehensive and scalable open-source
                  solution for large scale molecular simulations"
                      Comput. Phys. Commun. 181, 1477 (2010)
                           doi:10.1016/j.cpc.2010.04.018

                                      AUTHORS
                                      -------
          E. Apra, E. J. Bylaska, W. A. de Jong, N. Govind, K. Kowalski,
       T. P. Straatsma, M. Valiev, H. J. J. van Dam, D. Wang, T. L. Windus,
        J. Hammond, J. Autschbach, K. Bhaskaran-Nair, J. Brabec, K. Lopata,
    S. A. Fischer, S. Krishnamoorthy, M. Jacquelin, W. Ma, M. Klemm, O. Villa,
      Y. Chen, V. Anisimov, F. Aquino, S. Hirata, M. T. Hackler, V. Konjkov,
            D. Mejia-Rodriguez, T. Risthaus, M. Malagoli, A. Marenich,
   A. Otero-de-la-Roza, J. Mullin, P. Nichols, R. Peverati, J. Pittner, Y. Zhao,
        P.-D. Fan, A. Fonari, M. J. Williamson, R. J. Harrison, J. R. Rehr,
      M. Dupuis, D. Silverstein, D. M. A. Smith, J. Nieplocha, V. Tipparaju,
    M. Krishnan, B. E. Van Kuiken, A. Vazquez-Mayagoitia, L. Jensen, M. Swart,
      Q. Wu, T. Van Voorhis, A. A. Auer, M. Nooijen, L. D. Crosby, E. Brown,
      G. Cisneros, G. I. Fann, H. Fruchtl, J. Garza, K. Hirao, R. A. Kendall,
      J. A. Nichols, K. Tsemekhman, K. Wolinski, J. Anchell, D. E. Bernholdt,
      P. Borowski, T. Clark, D. Clerc, H. Dachsel, M. J. O. Deegan, K. Dyall,
    D. Elwood, E. Glendening, M. Gutowski, A. C. Hess, J. Jaffe, B. G. Johnson,
     J. Ju, R. Kobayashi, R. Kutteh, Z. Lin, R. Littlefield, X. Long, B. Meng,
      T. Nakajima, S. Niu, L. Pollack, M. Rosing, K. Glaesemann, G. Sandrone,
      M. Stave, H. Taylor, G. Thomas, J. H. van Lenthe, A. T. Wong, Z. Zhang.

 Total times  cpu:       13.3s     wall:       13.4s
[0] ARMCI Warning: Freed 1 leaked allocations
