 argument  1 = /home/list1234/source/nwchem-6.8.1-release/QA/tests/m08hx_ch3/m08hx_ch3.nw



============================== echo of input deck ==============================
echo
title m08hx_ch3

start m08hx_ch3

geometry units angstroms
C 0.000000 0.000000 0.000000
H 0.000000 1.078000 0.000000
H 0.933000 -0.539000 0.000000
H -0.933000 -0.539000 0.000000
end

basis
 H library 6-31+G*
 C library 6-31+G*
end

dft
 mult 2
 iterations 50
 print intermediate energy info
 xc m08-hx
 decomp
 grid lebedev 99 14
 direct
end
task dft
================================================================================


                                         
                                         


              Northwest Computational Chemistry Package (NWChem) 6.8
              ------------------------------------------------------


                    Environmental Molecular Sciences Laboratory
                       Pacific Northwest National Laboratory
                                Richland, WA 99352

                              Copyright (c) 1994-2018
                       Pacific Northwest National Laboratory
                            Battelle Memorial Institute

             NWChem is an open-source computational chemistry package
                        distributed under the terms of the
                      Educational Community License (ECL) 2.0
             A copy of the license is included with this distribution
                              in the LICENSE.TXT file

                                  ACKNOWLEDGMENT
                                  --------------

            This software and its documentation were developed at the
            EMSL at Pacific Northwest National Laboratory, a multiprogram
            national laboratory, operated for the U.S. Department of Energy
            by Battelle under Contract Number DE-AC05-76RL01830. Support
            for this work was provided by the Department of Energy Office
            of Biological and Environmental Research, Office of Basic
            Energy Sciences, and the Office of Advanced Scientific Computing.


           Job information
           ---------------

    hostname        = list1234-B360M-H
    program         = /home/list1234/source/nwchem-6.8.1-release/bin/LINUX64/nwchem
    date            = Sun Jun 30 13:53:01 2019

    compiled        = Sun_Jun_30_11:55:59_2019
    source          = /home/list1234/source/nwchem-6.8.1-release
    nwchem branch   = Development
    nwchem revision = N/A
    ga revision     = 5.6.5
    use scalapack   = T
    input           = /home/list1234/source/nwchem-6.8.1-release/QA/tests/m08hx_ch3/m08hx_ch3.nw
    prefix          = m08hx_ch3.
    data base       = ./m08hx_ch3.db
    status          = startup
    nproc           =        4
    time left       =     -1s



           Memory information
           ------------------

    heap     =   86247162 doubles =    658.0 Mbytes
    stack    =   86247167 doubles =    658.0 Mbytes
    global   =  172494336 doubles =   1316.0 Mbytes (distinct from heap & stack)
    total    =  344988665 doubles =   2632.1 Mbytes
    verify   = yes
    hardfail = no 


           Directory information
           ---------------------

  0 permanent = .
  0 scratch   = .




                                NWChem Input Module
                                -------------------


                                     m08hx_ch3
                                     ---------

 Scaling coordinates for geometry "geometry" by  1.889725989
 (inverse scale =  0.529177249)

 D3H symmetry detected

          ------
          auto-z
          ------
  Looking for out-of-plane bends
  no constraints, skipping    0.0000000000000000     
  no constraints, skipping    0.0000000000000000     


                             Geometry "geometry" -> ""
                             -------------------------

 Output coordinates in angstroms (scale by  1.889725989 to convert to a.u.)

  No.       Tag          Charge          X              Y              Z
 ---- ---------------- ---------- -------------- -------------- --------------
    1 C                    6.0000     0.00000000     0.00000000     0.00000000
    2 H                    1.0000     0.76202621     0.76202621     0.00000000
    3 H                    1.0000     0.27892095    -1.04094716     0.00000000
    4 H                    1.0000    -1.04094716     0.27892095     0.00000000

      Atomic Mass 
      ----------- 

      C                 12.000000
      H                  1.007825


 Effective nuclear repulsion energy (a.u.)       9.6892125313

            Nuclear Dipole moment (a.u.) 
            ----------------------------
        X                 Y               Z
 ---------------- ---------------- ----------------
     0.0000000000     0.0000000000     0.0000000000

      Symmetry information
      --------------------

 Group name             D3h       
 Group number             27
 Group order              12
 No. of unique centers     2

      Symmetry unique atoms

     1    2



                                Z-matrix (autoz)
                                -------- 

 Units are Angstrom for bonds and degrees for angles

      Type          Name      I     J     K     L     M      Value
      ----------- --------  ----- ----- ----- ----- ----- ----------
    1 Stretch                  1     2                       1.07767
    2 Stretch                  1     3                       1.07767
    3 Stretch                  1     4                       1.07767
    4 Bend                     2     1     3               120.00000
    5 Bend                     2     1     4               120.00000
    6 Bend                     3     1     4               120.00000
    7 Torsion                  2     1     3     4         180.00000
    8 Torsion                  2     1     4     3         180.00000
    9 Torsion                  3     1     2     4         180.00000
   10 Torsion                  2     4     1     3         180.00000
   11 Torsion                  3     2     1     4         180.00000
   12 Torsion                  2     3     1     4         180.00000


            XYZ format geometry
            -------------------
     4
 geometry
 C                     0.00000000     0.00000000     0.00000000
 H                     0.76202621     0.76202621     0.00000000
 H                     0.27892095    -1.04094716     0.00000000
 H                    -1.04094716     0.27892095     0.00000000

 ==============================================================================
                                internuclear distances
 ------------------------------------------------------------------------------
       center one      |      center two      | atomic units |  angstroms
 ------------------------------------------------------------------------------
    2 H                |   1 C                |     2.03650  |     1.07767
    3 H                |   1 C                |     2.03650  |     1.07767
    4 H                |   1 C                |     2.03650  |     1.07767
 ------------------------------------------------------------------------------
                         number of included internuclear distances:          3
 ==============================================================================



 ==============================================================================
                                 internuclear angles
 ------------------------------------------------------------------------------
        center 1       |       center 2       |       center 3       |  degrees
 ------------------------------------------------------------------------------
    2 H                |   1 C                |   3 H                |   120.00
    2 H                |   1 C                |   4 H                |   120.00
    3 H                |   1 C                |   4 H                |   120.00
 ------------------------------------------------------------------------------
                            number of included internuclear angles:          3
 ==============================================================================



                      Basis "ao basis" -> "" (cartesian)
                      -----
  H (Hydrogen)
  ------------
            Exponent  Coefficients 
       -------------- ---------------------------------------------------------
  1 S  1.87311370E+01  0.033495
  1 S  2.82539370E+00  0.234727
  1 S  6.40121700E-01  0.813757

  2 S  1.61277800E-01  1.000000

  C (Carbon)
  ----------
            Exponent  Coefficients 
       -------------- ---------------------------------------------------------
  1 S  3.04752490E+03  0.001835
  1 S  4.57369510E+02  0.014037
  1 S  1.03948690E+02  0.068843
  1 S  2.92101550E+01  0.232184
  1 S  9.28666300E+00  0.467941
  1 S  3.16392700E+00  0.362312

  2 S  7.86827240E+00 -0.119332
  2 S  1.88128850E+00 -0.160854
  2 S  5.44249300E-01  1.143456

  3 P  7.86827240E+00  0.068999
  3 P  1.88128850E+00  0.316424
  3 P  5.44249300E-01  0.744308

  4 S  1.68714400E-01  1.000000

  5 P  1.68714400E-01  1.000000

  6 S  4.38000000E-02  1.000000

  7 P  4.38000000E-02  1.000000

  8 D  8.00000000E-01  1.000000



 Summary of "ao basis" -> "" (cartesian)
 ------------------------------------------------------------------------------
       Tag                 Description            Shells   Functions and Types
 ---------------- ------------------------------  ------  ---------------------
 H                          6-31+G*                  2        2   2s
 C                          6-31+G*                  8       19   4s3p1d



                                 NWChem DFT Module
                                 -----------------


                                     m08hx_ch3




 Summary of "ao basis" -> "ao basis" (cartesian)
 ------------------------------------------------------------------------------
       Tag                 Description            Shells   Functions and Types
 ---------------- ------------------------------  ------  ---------------------
 H                          6-31+G*                  2        2   2s
 C                          6-31+G*                  8       19   4s3p1d


      Symmetry analysis of basis
      --------------------------

        a1'         8
        a1"         0
        a2'         0
        a2"         3
        e'         12
        e"          2

  Caching 1-el integrals 
  Rotation of axis 

            General Information
            -------------------
          SCF calculation type: DFT
          Wavefunction type:  spin polarized.
          No. of atoms     :     4
          No. of electrons :     9
           Alpha electrons :     5
            Beta electrons :     4
          Charge           :     0
          Spin multiplicity:     2
          Use of symmetry is: on ; symmetry adaption is: on 
          Maximum number of iterations:  50
          This is a Direct SCF calculation.
          AO basis - number of functions:    25
                     number of shells:    14
          Convergence on energy requested:  1.00D-06
          Convergence on density requested:  1.00D-05
          Convergence on gradient requested:  5.00D-04

              XC Information
              --------------
                       M08-HX Method XC Functional
                     Hartree-Fock (Exact) Exchange  0.522          
                        M08-HX gradient correction  1.000          
                      M08-HX Correlation Potential  1.000          

             Grid Information
             ----------------
          Grid used for XC integration:  lebedev   
          Radial quadrature: Mura-Knowles        
          Angular quadrature: Lebedev. 
          Tag              B.-S. Rad. Rad. Pts. Rad. Cut. Ang. Pts.
          ---              ---------- --------- --------- ---------
          C                   0.70       99           7.0       590
          H                   0.35       99           6.0       590
          Grid pruning is: on 
          Number of quadrature shells:   198
          Spatial weights used:  Erf1

          Convergence Information
          -----------------------
          Convergence aids based upon iterative change in 
          total energy or number of iterations. 
          Levelshifting, if invoked, occurs when the 
          HOMO/LUMO gap drops below (HL_TOL):  1.00D-02
          DIIS, if invoked, will attempt to extrapolate 
          using up to (NFOCK): 10 stored Fock matrices.

                    Damping( 0%)  Levelshifting(0.5)       DIIS
                  --------------- ------------------- ---------------
          dE  on:    start            ASAP                start   
          dE off:    2 iters         50 iters            50 iters 


      Screening Tolerance Information
      -------------------------------
          Density screening/tol_rho:  1.00D-10
          AO Gaussian exp screening on grid/accAOfunc:  14
          CD Gaussian exp screening on grid/accCDfunc:  20
          XC Gaussian exp screening on grid/accXCfunc:  20
          Schwarz screening/accCoul:  1.00D-08


      Superposition of Atomic Density Guess
      -------------------------------------

 Sum of atomic energies:         -39.15818925

      Non-variational initial energy
      ------------------------------

 Total energy =     -39.482930
 1-e energy   =     -70.490914
 2-e energy   =      21.318771
 HOMO         =      -0.169567
 LUMO         =       0.073149


   Symmetry analysis of molecular orbitals - initial alpha
   -------------------------------------------------------

  Numbering of irreducible representations: 

     1 a1'         2 a1"         3 a2'         4 a2"         5 e'      
     6 e"      

  Orbital symmetries:

     1 a1'         2 a1'         3 e'          4 e'          5 a2"     
     6 a1'         7 e'          8 e'          9 a2"        10 a1'     
    11 e'         12 e'         13 e'         14 e'         15 a2"     


   Symmetry analysis of molecular orbitals - initial beta
   ------------------------------------------------------

  Numbering of irreducible representations: 

     1 a1'         2 a1"         3 a2'         4 a2"         5 e'      
     6 e"      

  Orbital symmetries:

     1 a1'         2 a1'         3 e'          4 e'          5 a2"     
     6 a1'         7 e'          8 e'          9 a2"        10 a1'     
    11 e'         12 e'         13 e'         14 e'         15 a2"     

   Time after variat. SCF:      0.1
   Time prior to 1st pass:      0.1

 Grid_pts file          = ./m08hx_ch3.gridpts.0
 Record size in doubles =  12289        No. of grid_pts per rec  =   3070
 Max. records in memory =     12        Max. recs in file   =    862023


           Memory utilization after 1st SCF pass: 
           Heap Space remaining (MW):       86.10            86097850
          Stack Space remaining (MW):       86.25            86246788

   convergence    iter        energy       DeltaE   RMS-Dens  Diis-err    time
 ---------------- ----- ----------------- --------- --------- ---------  ------
 d= 0,ls=0.0,diis     1    -39.8134522056 -4.95D+01  3.79D-03  2.08D-02     0.2
                                                     3.59D-03  2.56D-02
 d= 0,ls=0.0,diis     2    -39.8233992884 -9.95D-03  5.56D-04  2.46D-04     0.3
                                                     1.22D-03  1.11D-03
 d= 0,ls=0.0,diis     3    -39.8238250001 -4.26D-04  5.35D-04  3.53D-04     0.4
                                                     1.79D-04  5.87D-05
 d= 0,ls=0.0,diis     4    -39.8239588608 -1.34D-04  1.73D-04  4.64D-06     0.4
                                                     2.95D-04  4.58D-05
 d= 0,ls=0.0,diis     5    -39.8239880643 -2.92D-05  6.66D-05  9.83D-07     0.5
                                                     6.83D-05  8.41D-07
  Resetting Diis
 d= 0,ls=0.0,diis     6    -39.8239894535 -1.39D-06  3.49D-06  3.30D-09     0.6
                                                     4.75D-06  3.56D-09
 d= 0,ls=0.0,diis     7    -39.8239894586 -5.07D-09  5.61D-07  1.34D-10     0.7
                                                     1.92D-07  3.57D-11


         Total DFT energy =      -39.823989458615
      One electron energy =      -71.574481456717
           Coulomb energy =       28.520231137292
          Exchange energy =       -6.206906367359
       Correlation energy =       -0.252045303088
 Nuclear repulsion energy =        9.689212531256

 Numeric. integr. density =        8.999999918755

     Total iterative time =      0.6s



                  Occupations of the irreducible representations
                  ----------------------------------------------

                     irrep           alpha         beta
                     --------     --------     --------
                     a1'               2.0          2.0
                     a1"               0.0          0.0
                     a2'               0.0          0.0
                     a2"               1.0          0.0
                     e'                2.0          2.0
                     e"                0.0          0.0


                    DFT Final Alpha Molecular Orbital Analysis
                    ------------------------------------------

 Vector    1  Occ=1.000000D+00  E=-1.055422D+01  Symmetry=a1'
              MO Center= -9.0D-22,  8.4D-21, -7.6D-41, r^2= 2.8D-02
   Bfn.  Coefficient  Atom+Function         Bfn.  Coefficient  Atom+Function  
  ----- ------------  ---------------      ----- ------------  ---------------
     1      0.992958  1 C  s                  2      0.047054  1 C  s          

 Vector    2  Occ=1.000000D+00  E=-7.836876D-01  Symmetry=a1'
              MO Center=  6.3D-17,  6.9D-18, -5.1D-34, r^2= 9.6D-01
   Bfn.  Coefficient  Atom+Function         Bfn.  Coefficient  Atom+Function  
  ----- ------------  ---------------      ----- ------------  ---------------
     6      0.411606  1 C  s                  2      0.392645  1 C  s          
     1     -0.203836  1 C  s                 20      0.141786  2 H  s          
    22      0.141786  3 H  s                 24      0.141786  4 H  s          
    21      0.032428  2 H  s                 23      0.032428  3 H  s          
    25      0.032428  4 H  s          

 Vector    3  Occ=1.000000D+00  E=-4.937605D-01  Symmetry=e'
              MO Center= -9.6D-02,  2.3D-01, -2.2D-17, r^2= 1.2D+00
   Bfn.  Coefficient  Atom+Function         Bfn.  Coefficient  Atom+Function  
  ----- ------------  ---------------      ----- ------------  ---------------
     3      0.455285  1 C  px                24     -0.247934  4 H  s          
    20      0.228828  2 H  s                  7      0.212672  1 C  px         
    25     -0.165309  4 H  s                 21      0.152570  2 H  s          
     4      0.088741  1 C  py                 8      0.041453  1 C  py         
    15      0.031121  1 C  dxy        

 Vector    4  Occ=1.000000D+00  E=-4.937605D-01  Symmetry=e'
              MO Center=  9.6D-02, -2.3D-01,  2.7D-33, r^2= 1.2D+00
   Bfn.  Coefficient  Atom+Function         Bfn.  Coefficient  Atom+Function  
  ----- ------------  ---------------      ----- ------------  ---------------
     4      0.455285  1 C  py                22     -0.275258  3 H  s          
     8      0.212672  1 C  py                23     -0.183528  3 H  s          
    20      0.154175  2 H  s                 24      0.121083  4 H  s          
    21      0.102796  2 H  s                  3     -0.088741  1 C  px         
    25      0.080732  4 H  s                  7     -0.041453  1 C  px         

 Vector    5  Occ=1.000000D+00  E=-2.878328D-01  Symmetry=a2"
              MO Center=  1.4D-17, -8.2D-18,  1.0D-14, r^2= 1.3D+00
   Bfn.  Coefficient  Atom+Function         Bfn.  Coefficient  Atom+Function  
  ----- ------------  ---------------      ----- ------------  ---------------
     5      0.588586  1 C  pz                 9      0.472965  1 C  pz         
    13      0.128178  1 C  pz         

 Vector    6  Occ=0.000000D+00  E= 1.876581D-02  Symmetry=a1'
              MO Center= -4.1D-15,  1.6D-16,  1.0D-13, r^2= 7.5D+00
   Bfn.  Coefficient  Atom+Function         Bfn.  Coefficient  Atom+Function  
  ----- ------------  ---------------      ----- ------------  ---------------
    10      1.550016  1 C  s                  6     -0.656674  1 C  s          
    21     -0.159711  2 H  s                 23     -0.159711  3 H  s          
    25     -0.159711  4 H  s                  2     -0.102608  1 C  s          
     1      0.080127  1 C  s          

 Vector    7  Occ=0.000000D+00  E= 4.166903D-02  Symmetry=e'
              MO Center=  3.1D-02, -1.1D-01, -3.2D-17, r^2= 9.6D+00
   Bfn.  Coefficient  Atom+Function         Bfn.  Coefficient  Atom+Function  
  ----- ------------  ---------------      ----- ------------  ---------------
    11      1.176837  1 C  px                12      0.301909  1 C  py         
    25      0.234562  4 H  s                 21     -0.231689  2 H  s          
     7     -0.192503  1 C  px                 3     -0.134036  1 C  px         
     8     -0.049385  1 C  py                 4     -0.034386  1 C  py         

 Vector    8  Occ=0.000000D+00  E= 4.166903D-02  Symmetry=e'
              MO Center= -3.1D-02,  1.1D-01, -1.5D-31, r^2= 9.6D+00
   Bfn.  Coefficient  Atom+Function         Bfn.  Coefficient  Atom+Function  
  ----- ------------  ---------------      ----- ------------  ---------------
    12      1.176837  1 C  py                11     -0.301909  1 C  px         
    23      0.269190  3 H  s                  8     -0.192503  1 C  py         
    21     -0.137083  2 H  s                  4     -0.134036  1 C  py         
    25     -0.132107  4 H  s                  7      0.049385  1 C  px         
     3      0.034386  1 C  px         

 Vector    9  Occ=0.000000D+00  E= 6.299159D-02  Symmetry=a2"
              MO Center=  2.5D-18,  1.8D-17, -1.1D-13, r^2= 9.1D+00
   Bfn.  Coefficient  Atom+Function         Bfn.  Coefficient  Atom+Function  
  ----- ------------  ---------------      ----- ------------  ---------------
    13      1.158138  1 C  pz                 9     -0.453073  1 C  pz         
     5     -0.207867  1 C  pz         

 Vector   10  Occ=0.000000D+00  E= 2.222160D-01  Symmetry=a1'
              MO Center= -2.2D-13, -2.0D-13, -1.1D-16, r^2= 3.9D+00
   Bfn.  Coefficient  Atom+Function         Bfn.  Coefficient  Atom+Function  
  ----- ------------  ---------------      ----- ------------  ---------------
     6      2.435441  1 C  s                 21     -1.463212  2 H  s          
    23     -1.463212  3 H  s                 25     -1.463212  4 H  s          
    10      1.102591  1 C  s                 20     -0.140912  2 H  s          
    22     -0.140912  3 H  s                 24     -0.140912  4 H  s          
     1     -0.134054  1 C  s                  2      0.128345  1 C  s          

 Vector   11  Occ=0.000000D+00  E= 2.267004D-01  Symmetry=e'
              MO Center=  2.7D-01,  1.6D-01, -5.6D-18, r^2= 3.2D+00
   Bfn.  Coefficient  Atom+Function         Bfn.  Coefficient  Atom+Function  
  ----- ------------  ---------------      ----- ------------  ---------------
    21      2.089861  2 H  s                  8     -1.267729  1 C  py         
    23     -1.266574  3 H  s                  7     -0.991104  1 C  px         
    25     -0.823287  4 H  s                 12     -0.291722  1 C  py         
     4     -0.241185  1 C  py                11     -0.228067  1 C  px         
     3     -0.188558  1 C  px                20      0.150135  2 H  s          

 Vector   12  Occ=0.000000D+00  E= 2.267004D-01  Symmetry=e'
              MO Center= -2.7D-01, -1.6D-01,  1.0D-17, r^2= 3.2D+00
   Bfn.  Coefficient  Atom+Function         Bfn.  Coefficient  Atom+Function  
  ----- ------------  ---------------      ----- ------------  ---------------
    25      1.937839  4 H  s                 23     -1.681907  3 H  s          
     7      1.267729  1 C  px                 8     -0.991104  1 C  py         
    11      0.291722  1 C  px                21     -0.255932  2 H  s          
     3      0.241185  1 C  px                12     -0.228067  1 C  py         
     4     -0.188558  1 C  py                24      0.139214  4 H  s          

 Vector   13  Occ=0.000000D+00  E= 6.861357D-01  Symmetry=e'
              MO Center= -9.8D-02, -1.1D-01, -2.6D-32, r^2= 2.7D+00
   Bfn.  Coefficient  Atom+Function         Bfn.  Coefficient  Atom+Function  
  ----- ------------  ---------------      ----- ------------  ---------------
     7      1.287030  1 C  px                 8      1.197683  1 C  py         
     3     -0.702007  1 C  px                 4     -0.653273  1 C  py         
    11     -0.375141  1 C  px                12     -0.349099  1 C  py         
    20     -0.306600  2 H  s                 21     -0.248887  2 H  s          
    24      0.162848  4 H  s                 15     -0.156976  1 C  dxy        

 Vector   14  Occ=0.000000D+00  E= 6.861357D-01  Symmetry=e'
              MO Center=  9.8D-02,  1.1D-01, -2.0D-31, r^2= 2.7D+00
   Bfn.  Coefficient  Atom+Function         Bfn.  Coefficient  Atom+Function  
  ----- ------------  ---------------      ----- ------------  ---------------
     8     -1.287030  1 C  py                 7      1.197683  1 C  px         
     4      0.702007  1 C  py                 3     -0.653273  1 C  px         
    12      0.375141  1 C  py                11     -0.349099  1 C  px         
    22     -0.271036  3 H  s                 24      0.260011  4 H  s          
    23     -0.220017  3 H  s                 25      0.211067  4 H  s          

 Vector   15  Occ=0.000000D+00  E= 6.937214D-01  Symmetry=a2"
              MO Center= -2.1D-30, -5.9D-31,  8.6D-16, r^2= 2.6D+00
   Bfn.  Coefficient  Atom+Function         Bfn.  Coefficient  Atom+Function  
  ----- ------------  ---------------      ----- ------------  ---------------
     9      1.389745  1 C  pz                 5     -1.093488  1 C  pz         
    13     -0.529968  1 C  pz         

 Vector   16  Occ=0.000000D+00  E= 8.528140D-01  Symmetry=a1'
              MO Center= -7.7D-16, -3.9D-15, -4.4D-17, r^2= 2.6D+00
   Bfn.  Coefficient  Atom+Function         Bfn.  Coefficient  Atom+Function  
  ----- ------------  ---------------      ----- ------------  ---------------
     6      2.624647  1 C  s                  2     -1.396808  1 C  s          
    10     -0.768401  1 C  s                 20     -0.427307  2 H  s          
    22     -0.427307  3 H  s                 24     -0.427307  4 H  s          
    14     -0.184010  1 C  dxx               17     -0.184010  1 C  dyy        
    19      0.050171  1 C  dzz                1     -0.049813  1 C  s          

 Vector   17  Occ=0.000000D+00  E= 1.003641D+00  Symmetry=e'
              MO Center=  1.7D-01,  3.6D-01,  4.2D-17, r^2= 2.2D+00
   Bfn.  Coefficient  Atom+Function         Bfn.  Coefficient  Atom+Function  
  ----- ------------  ---------------      ----- ------------  ---------------
    21      1.772153  2 H  s                 25     -1.150950  4 H  s          
    20     -0.950127  2 H  s                  7     -0.762749  1 C  px         
    23     -0.621203  3 H  s                 24      0.617073  4 H  s          
     3      0.560604  1 C  px                 8     -0.538219  1 C  py         
     4      0.395580  1 C  py                15     -0.394965  1 C  dxy        

 Vector   18  Occ=0.000000D+00  E= 1.003641D+00  Symmetry=e'
              MO Center= -1.7D-01, -3.6D-01,  1.6D-17, r^2= 2.2D+00
   Bfn.  Coefficient  Atom+Function         Bfn.  Coefficient  Atom+Function  
  ----- ------------  ---------------      ----- ------------  ---------------
    23      1.687654  3 H  s                 25     -1.381804  4 H  s          
    22     -0.904823  3 H  s                  8      0.762749  1 C  py         
    24      0.740844  4 H  s                  4     -0.560604  1 C  py         
     7     -0.538219  1 C  px                 3      0.395580  1 C  px         
    21     -0.305849  2 H  s                 12      0.302406  1 C  py         

 Vector   19  Occ=0.000000D+00  E= 1.008270D+00  Symmetry=a1'
              MO Center= -1.1D-13, -4.0D-13,  1.5D-15, r^2= 2.6D+00
   Bfn.  Coefficient  Atom+Function         Bfn.  Coefficient  Atom+Function  
  ----- ------------  ---------------      ----- ------------  ---------------
     6      3.151381  1 C  s                 21     -1.458095  2 H  s          
    23     -1.458095  3 H  s                 25     -1.458095  4 H  s          
     2     -1.280230  1 C  s                 20      0.610592  2 H  s          
    22      0.610592  3 H  s                 24      0.610592  4 H  s          
    10      0.592491  1 C  s                 19     -0.220088  1 C  dzz        

 Vector   20  Occ=0.000000D+00  E= 1.675155D+00  Symmetry=e"
              MO Center= -1.0D-18, -1.1D-17, -2.7D-17, r^2= 6.1D-01
   Bfn.  Coefficient  Atom+Function         Bfn.  Coefficient  Atom+Function  
  ----- ------------  ---------------      ----- ------------  ---------------
    18      1.724878  1 C  dyz               16      0.157466  1 C  dxz        

 Vector   21  Occ=0.000000D+00  E= 1.675155D+00  Symmetry=e"
              MO Center= -1.6D-17,  1.4D-18,  1.9D-17, r^2= 6.1D-01
   Bfn.  Coefficient  Atom+Function         Bfn.  Coefficient  Atom+Function  
  ----- ------------  ---------------      ----- ------------  ---------------
    16      1.724878  1 C  dxz               18     -0.157466  1 C  dyz        

 Vector   22  Occ=0.000000D+00  E= 1.997472D+00  Symmetry=a1'
              MO Center= -7.8D-17,  2.1D-16,  2.5D-17, r^2= 8.2D-01
   Bfn.  Coefficient  Atom+Function         Bfn.  Coefficient  Atom+Function  
  ----- ------------  ---------------      ----- ------------  ---------------
    19      1.090727  1 C  dzz                6     -0.873326  1 C  s          
    14     -0.515457  1 C  dxx               17     -0.515457  1 C  dyy        
    20      0.455325  2 H  s                 22      0.455325  3 H  s          
    24      0.455325  4 H  s                  2      0.209143  1 C  s          
    10      0.147560  1 C  s                  1      0.053214  1 C  s          

 Vector   23  Occ=0.000000D+00  E= 2.192892D+00  Symmetry=e'
              MO Center= -3.9D-02, -7.5D-02,  8.3D-32, r^2= 9.7D-01
   Bfn.  Coefficient  Atom+Function         Bfn.  Coefficient  Atom+Function  
  ----- ------------  ---------------      ----- ------------  ---------------
    14      0.958205  1 C  dxx               17     -0.958205  1 C  dyy        
    22      0.770942  3 H  s                 24     -0.643338  4 H  s          
     8      0.488089  1 C  py                 7     -0.356155  1 C  px         
    15      0.299486  1 C  dxy               12     -0.137199  1 C  py         
    20     -0.127604  2 H  s                 23     -0.106875  3 H  s          

 Vector   24  Occ=0.000000D+00  E= 2.192892D+00  Symmetry=e'
              MO Center=  3.9D-02,  7.5D-02,  2.0D-31, r^2= 9.7D-01
   Bfn.  Coefficient  Atom+Function         Bfn.  Coefficient  Atom+Function  
  ----- ------------  ---------------      ----- ------------  ---------------
    15      1.916410  1 C  dxy               20     -0.816535  2 H  s          
    24      0.518775  4 H  s                  7      0.488089  1 C  px         
     8      0.356155  1 C  py                22      0.297760  3 H  s          
    14     -0.149743  1 C  dxx               17      0.149743  1 C  dyy        
    11     -0.137199  1 C  px                21      0.113195  2 H  s          

 Vector   25  Occ=0.000000D+00  E= 4.133371D+00  Symmetry=a1'
              MO Center=  2.4D-16,  9.6D-17,  2.5D-18, r^2= 7.1D-01
   Bfn.  Coefficient  Atom+Function         Bfn.  Coefficient  Atom+Function  
  ----- ------------  ---------------      ----- ------------  ---------------
     2      3.083695  1 C  s                 14     -1.861132  1 C  dxx        
    17     -1.861132  1 C  dyy               19     -1.806512  1 C  dzz        
     6      1.760141  1 C  s                  1     -0.468514  1 C  s          
    21     -0.404792  2 H  s                 23     -0.404792  3 H  s          
    25     -0.404792  4 H  s                 20      0.166121  2 H  s          


                     DFT Final Beta Molecular Orbital Analysis
                     -----------------------------------------

 Vector    1  Occ=1.000000D+00  E=-1.053572D+01  Symmetry=a1'
              MO Center=  8.2D-21,  4.4D-21, -1.7D-39, r^2= 2.8D-02
   Bfn.  Coefficient  Atom+Function         Bfn.  Coefficient  Atom+Function  
  ----- ------------  ---------------      ----- ------------  ---------------
     1      0.993242  1 C  s                  2      0.045612  1 C  s          

 Vector    2  Occ=1.000000D+00  E=-7.375156D-01  Symmetry=a1'
              MO Center=  3.8D-17, -6.4D-18, -2.0D-34, r^2= 1.0D+00
   Bfn.  Coefficient  Atom+Function         Bfn.  Coefficient  Atom+Function  
  ----- ------------  ---------------      ----- ------------  ---------------
     2      0.368303  1 C  s                  6      0.355699  1 C  s          
     1     -0.195472  1 C  s                 20      0.160357  2 H  s          
    22      0.160357  3 H  s                 24      0.160357  4 H  s          
    21      0.058524  2 H  s                 23      0.058524  3 H  s          
    25      0.058524  4 H  s                 19     -0.027810  1 C  dzz        

 Vector    3  Occ=1.000000D+00  E=-4.818725D-01  Symmetry=e'
              MO Center= -2.8D-03,  2.7D-01, -1.1D-34, r^2= 1.2D+00
   Bfn.  Coefficient  Atom+Function         Bfn.  Coefficient  Atom+Function  
  ----- ------------  ---------------      ----- ------------  ---------------
     3      0.408226  1 C  px                20      0.269127  2 H  s          
    24     -0.232536  4 H  s                 21      0.196356  2 H  s          
     7      0.174540  1 C  px                25     -0.169659  4 H  s          
     4      0.166596  1 C  py                 8      0.071229  1 C  py         
    15      0.041268  1 C  dxy               22     -0.036591  3 H  s          

 Vector    4  Occ=1.000000D+00  E=-4.818725D-01  Symmetry=e'
              MO Center=  2.8D-03, -2.7D-01, -1.0D-17, r^2= 1.2D+00
   Bfn.  Coefficient  Atom+Function         Bfn.  Coefficient  Atom+Function  
  ----- ------------  ---------------      ----- ------------  ---------------
     4      0.408226  1 C  py                22     -0.289635  3 H  s          
    23     -0.211319  3 H  s                 24      0.176506  4 H  s          
     8      0.174540  1 C  py                 3     -0.166596  1 C  px         
    25      0.128780  4 H  s                 20      0.113129  2 H  s          
    21      0.082539  2 H  s                  7     -0.071229  1 C  px         

 Vector    5  Occ=0.000000D+00  E=-5.829289D-02  Symmetry=a2"
              MO Center= -8.3D-33, -1.8D-31,  9.2D-31, r^2= 5.6D+00
   Bfn.  Coefficient  Atom+Function         Bfn.  Coefficient  Atom+Function  
  ----- ------------  ---------------      ----- ------------  ---------------
    13      0.786634  1 C  pz                 5      0.296902  1 C  pz         
     9      0.152527  1 C  pz         

 Vector    6  Occ=0.000000D+00  E=-6.182697D-03  Symmetry=a1'
              MO Center=  1.5D-16, -1.8D-16,  2.1D-31, r^2= 7.8D+00
   Bfn.  Coefficient  Atom+Function         Bfn.  Coefficient  Atom+Function  
  ----- ------------  ---------------      ----- ------------  ---------------
    10      1.648121  1 C  s                  6     -0.504903  1 C  s          
    21     -0.278783  2 H  s                 23     -0.278783  3 H  s          
    25     -0.278783  4 H  s                  1      0.070839  1 C  s          
     2     -0.066206  1 C  s          

 Vector    7  Occ=0.000000D+00  E= 2.552035D-02  Symmetry=e'
              MO Center= -4.6D-02,  1.4D-01, -3.4D-34, r^2= 9.7D+00
   Bfn.  Coefficient  Atom+Function         Bfn.  Coefficient  Atom+Function  
  ----- ------------  ---------------      ----- ------------  ---------------
    12      1.199211  1 C  py                23      0.352594  3 H  s          
    11     -0.280118  1 C  px                21     -0.186172  2 H  s          
    25     -0.166422  4 H  s                  8     -0.143280  1 C  py         
     4     -0.119196  1 C  py                 7      0.033468  1 C  px         
    22      0.032187  3 H  s                  3      0.027842  1 C  px         

 Vector    8  Occ=0.000000D+00  E= 2.552035D-02  Symmetry=e'
              MO Center=  4.6D-02, -1.4D-01, -4.1D-34, r^2= 9.7D+00
   Bfn.  Coefficient  Atom+Function         Bfn.  Coefficient  Atom+Function  
  ----- ------------  ---------------      ----- ------------  ---------------
    11      1.199211  1 C  px                25      0.311057  4 H  s          
    21     -0.299654  2 H  s                 12      0.280118  1 C  py         
     7     -0.143280  1 C  px                 3     -0.119196  1 C  px         
     8     -0.033468  1 C  py                24      0.028395  4 H  s          
     4     -0.027842  1 C  py                20     -0.027354  2 H  s          

 Vector    9  Occ=0.000000D+00  E= 6.699017D-02  Symmetry=a2"
              MO Center=  2.6D-33, -3.1D-33, -9.1D-32, r^2= 5.2D+00
   Bfn.  Coefficient  Atom+Function         Bfn.  Coefficient  Atom+Function  
  ----- ------------  ---------------      ----- ------------  ---------------
    13      0.895503  1 C  pz                 9     -0.793682  1 C  pz         
     5     -0.400833  1 C  pz         

 Vector   10  Occ=0.000000D+00  E= 2.386828D-01  Symmetry=e'
              MO Center= -1.4D-01,  3.1D-01,  3.3D-34, r^2= 3.2D+00
   Bfn.  Coefficient  Atom+Function         Bfn.  Coefficient  Atom+Function  
  ----- ------------  ---------------      ----- ------------  ---------------
    25      1.942866  4 H  s                 21     -1.757329  2 H  s          
     7      1.635020  1 C  px                11      0.323837  1 C  px         
     3      0.290371  1 C  px                 8      0.289368  1 C  py         
    23     -0.185537  3 H  s                 24      0.100618  4 H  s          
    20     -0.091009  2 H  s                 12      0.057313  1 C  py         

 Vector   11  Occ=0.000000D+00  E= 2.386828D-01  Symmetry=e'
              MO Center=  1.4D-01, -3.1D-01, -6.8D-33, r^2= 3.2D+00
   Bfn.  Coefficient  Atom+Function         Bfn.  Coefficient  Atom+Function  
  ----- ------------  ---------------      ----- ------------  ---------------
    23      2.136309  3 H  s                  8      1.635020  1 C  py         
    21     -1.228834  2 H  s                 25     -0.907475  4 H  s          
    12      0.323837  1 C  py                 4      0.290371  1 C  py         
     7     -0.289368  1 C  px                22      0.110636  3 H  s          
    20     -0.063639  2 H  s                 11     -0.057313  1 C  px         

 Vector   12  Occ=0.000000D+00  E= 2.390537D-01  Symmetry=a1'
              MO Center=  1.8D-15,  1.7D-15, -1.1D-32, r^2= 3.8D+00
   Bfn.  Coefficient  Atom+Function         Bfn.  Coefficient  Atom+Function  
  ----- ------------  ---------------      ----- ------------  ---------------
     6      2.589361  1 C  s                 21     -1.511673  2 H  s          
    23     -1.511673  3 H  s                 25     -1.511673  4 H  s          
    10      1.012120  1 C  s                  1     -0.146692  1 C  s          
     2      0.132746  1 C  s                 20     -0.099220  2 H  s          
    22     -0.099220  3 H  s                 24     -0.099220  4 H  s          

 Vector   13  Occ=0.000000D+00  E= 6.892309D-01  Symmetry=e'
              MO Center= -4.6D-02, -1.4D-01,  5.6D-34, r^2= 2.8D+00
   Bfn.  Coefficient  Atom+Function         Bfn.  Coefficient  Atom+Function  
  ----- ------------  ---------------      ----- ------------  ---------------
     7      1.463291  1 C  px                 8      0.907398  1 C  py         
     3     -0.798043  1 C  px                 4     -0.494873  1 C  py         
    11     -0.441728  1 C  px                20     -0.337713  2 H  s          
    12     -0.273919  1 C  py                24      0.237436  4 H  s          
    21     -0.174504  2 H  s                 15     -0.144362  1 C  dxy        

 Vector   14  Occ=0.000000D+00  E= 6.892309D-01  Symmetry=e'
              MO Center=  4.6D-02,  1.4D-01,  1.7D-17, r^2= 2.8D+00
   Bfn.  Coefficient  Atom+Function         Bfn.  Coefficient  Atom+Function  
  ----- ------------  ---------------      ----- ------------  ---------------
     8      1.463291  1 C  py                 7     -0.907398  1 C  px         
     4     -0.798043  1 C  py                 3      0.494873  1 C  px         
    12     -0.441728  1 C  py                22      0.332063  3 H  s          
    11      0.273919  1 C  px                24     -0.252874  4 H  s          
    23      0.171584  3 H  s                 25     -0.130666  4 H  s          

 Vector   15  Occ=0.000000D+00  E= 7.830555D-01  Symmetry=a2"
              MO Center=  7.9D-19, -1.0D-18, -3.9D-17, r^2= 2.2D+00
   Bfn.  Coefficient  Atom+Function         Bfn.  Coefficient  Atom+Function  
  ----- ------------  ---------------      ----- ------------  ---------------
     9      1.306586  1 C  pz                 5     -1.156088  1 C  pz         
    13     -0.466756  1 C  pz         

 Vector   16  Occ=0.000000D+00  E= 8.821441D-01  Symmetry=a1'
              MO Center= -1.1D-15, -1.3D-15,  2.1D-18, r^2= 2.5D+00
   Bfn.  Coefficient  Atom+Function         Bfn.  Coefficient  Atom+Function  
  ----- ------------  ---------------      ----- ------------  ---------------
     6      2.477848  1 C  s                  2     -1.265624  1 C  s          
    10     -0.757603  1 C  s                 20     -0.479882  2 H  s          
    22     -0.479882  3 H  s                 24     -0.479882  4 H  s          
    14     -0.189744  1 C  dxx               17     -0.189744  1 C  dyy        
    21      0.067198  2 H  s                 23      0.067198  3 H  s          

 Vector   17  Occ=0.000000D+00  E= 1.038600D+00  Symmetry=e'
              MO Center= -1.1D-01, -3.3D-01, -4.7D-18, r^2= 2.1D+00
   Bfn.  Coefficient  Atom+Function         Bfn.  Coefficient  Atom+Function  
  ----- ------------  ---------------      ----- ------------  ---------------
    23      1.662394  3 H  s                 25     -1.270921  4 H  s          
    22     -0.886157  3 H  s                  8      0.808723  1 C  py         
    24      0.677478  4 H  s                  4     -0.617566  1 C  py         
     7     -0.505039  1 C  px                21     -0.391474  2 H  s          
     3      0.385664  1 C  px                12      0.288370  1 C  py         

 Vector   18  Occ=0.000000D+00  E= 1.038600D+00  Symmetry=e'
              MO Center=  1.1D-01,  3.3D-01,  1.3D-18, r^2= 2.1D+00
   Bfn.  Coefficient  Atom+Function         Bfn.  Coefficient  Atom+Function  
  ----- ------------  ---------------      ----- ------------  ---------------
    21      1.693550  2 H  s                 25     -1.185801  4 H  s          
    20     -0.902765  2 H  s                  7     -0.808723  1 C  px         
    24      0.632104  4 H  s                  3      0.617566  1 C  px         
    23     -0.507749  3 H  s                  8     -0.505039  1 C  py         
    15     -0.447118  1 C  dxy                4      0.385664  1 C  py         

 Vector   19  Occ=0.000000D+00  E= 1.080690D+00  Symmetry=a1'
              MO Center=  3.2D-14, -1.9D-14,  6.7D-19, r^2= 2.4D+00
   Bfn.  Coefficient  Atom+Function         Bfn.  Coefficient  Atom+Function  
  ----- ------------  ---------------      ----- ------------  ---------------
     6      3.199668  1 C  s                  2     -1.408166  1 C  s          
    21     -1.385952  2 H  s                 23     -1.385952  3 H  s          
    25     -1.385952  4 H  s                 20      0.582088  2 H  s          
    22      0.582088  3 H  s                 24      0.582088  4 H  s          
    10      0.496889  1 C  s                 19     -0.197758  1 C  dzz        

 Vector   20  Occ=0.000000D+00  E= 1.788631D+00  Symmetry=e"
              MO Center=  5.8D-20,  5.1D-20,  1.4D-17, r^2= 6.1D-01
   Bfn.  Coefficient  Atom+Function         Bfn.  Coefficient  Atom+Function  
  ----- ------------  ---------------      ----- ------------  ---------------
    16      1.297255  1 C  dxz               18      1.147663  1 C  dyz        

 Vector   21  Occ=0.000000D+00  E= 1.788631D+00  Symmetry=e"
              MO Center= -8.5D-19,  9.6D-19, -1.7D-17, r^2= 6.1D-01
   Bfn.  Coefficient  Atom+Function         Bfn.  Coefficient  Atom+Function  
  ----- ------------  ---------------      ----- ------------  ---------------
    18      1.297255  1 C  dyz               16     -1.147663  1 C  dxz        

 Vector   22  Occ=0.000000D+00  E= 2.197642D+00  Symmetry=a1'
              MO Center= -1.3D-15,  3.1D-16,  3.6D-17, r^2= 8.0D-01
   Bfn.  Coefficient  Atom+Function         Bfn.  Coefficient  Atom+Function  
  ----- ------------  ---------------      ----- ------------  ---------------
    19      1.095835  1 C  dzz                6     -0.837101  1 C  s          
    14     -0.515342  1 C  dxx               17     -0.515342  1 C  dyy        
    20      0.442748  2 H  s                 22      0.442748  3 H  s          
    24      0.442748  4 H  s                  2      0.206462  1 C  s          
    10      0.143323  1 C  s                  1      0.049023  1 C  s          

 Vector   23  Occ=0.000000D+00  E= 2.311348D+00  Symmetry=e'
              MO Center= -9.3D-03, -1.0D-01,  3.9D-33, r^2= 9.9D-01
   Bfn.  Coefficient  Atom+Function         Bfn.  Coefficient  Atom+Function  
  ----- ------------  ---------------      ----- ------------  ---------------
    14      0.906042  1 C  dxx               17     -0.906042  1 C  dyy        
    22      0.840537  3 H  s                 15      0.656755  1 C  dxy        
    24     -0.549642  4 H  s                  8      0.508663  1 C  py         
    20     -0.290894  2 H  s                  7     -0.238036  1 C  px         
    23     -0.161794  3 H  s                 12     -0.159010  1 C  py         

 Vector   24  Occ=0.000000D+00  E= 2.311348D+00  Symmetry=e'
              MO Center=  9.3D-03,  1.0D-01,  1.9D-31, r^2= 9.9D-01
   Bfn.  Coefficient  Atom+Function         Bfn.  Coefficient  Atom+Function  
  ----- ------------  ---------------      ----- ------------  ---------------
    15      1.812084  1 C  dxy               20     -0.802620  2 H  s          
    24      0.653232  4 H  s                  7      0.508663  1 C  px         
    14     -0.328378  1 C  dxx               17      0.328378  1 C  dyy        
     8      0.238036  1 C  py                11     -0.159010  1 C  px         
    21      0.154495  2 H  s                 22      0.149388  3 H  s          

 Vector   25  Occ=0.000000D+00  E= 4.177179D+00  Symmetry=a1'
              MO Center=  1.2D-16,  2.3D-17,  4.5D-20, r^2= 7.0D-01
   Bfn.  Coefficient  Atom+Function         Bfn.  Coefficient  Atom+Function  
  ----- ------------  ---------------      ----- ------------  ---------------
     2      3.088570  1 C  s                 14     -1.860438  1 C  dxx        
    17     -1.860438  1 C  dyy               19     -1.806209  1 C  dzz        
     6      1.745910  1 C  s                  1     -0.467385  1 C  s          
    21     -0.407231  2 H  s                 23     -0.407231  3 H  s          
    25     -0.407231  4 H  s                 20      0.172867  2 H  s          


   alpha - beta orbital overlaps 
   ----------------------------- 


   alpha      1      2      3      4      5      6      7      8      9     10
    beta      1      2      3      4      5      6      8      7      9     12
 overlap   1.000  0.999  0.981  0.981  0.792  0.996  0.999  0.999  0.790  0.994


   alpha     11     12     13     14     15     16     17     18     19     20
    beta     10     11     13     14     15     16     18     17     19     20
 overlap   0.742  0.742  0.981  0.981  0.993  0.996  0.997  0.997  0.996  0.728


   alpha     21     22     23     24     25
    beta     21     22     23     24     25
 overlap   0.728  1.000  0.981  0.981  1.000

     --------------------------
     Expectation value of S2:  
     --------------------------
      <S2> =      0.7549 (Exact =     0.7500)


 center of mass
 --------------
 x =   0.00000000 y =   0.00000000 z =   0.00000000

 moments of inertia (a.u.)
 ------------------
           6.269658297302           0.000000000000           0.000000000000
           0.000000000000           6.269658297302           0.000000000000
           0.000000000000           0.000000000000          12.539316594605

     Multipole analysis of the density
     ---------------------------------

     L   x y z        total         alpha         beta         nuclear
     -   - - -        -----         -----         ----         -------
     0   0 0 0     -0.000000     -5.000000     -4.000000      9.000000

     1   1 0 0     -0.000000     -0.000000     -0.000000      0.000000
     1   0 1 0     -0.000000     -0.000000      0.000000      0.000000
     1   0 0 1     -0.000000     -0.000000      0.000000      0.000000

     2   2 0 0     -5.404002     -6.130573     -5.494408      6.220979
     2   1 1 0      0.000000      0.000000      0.000000     -0.000000
     2   1 0 1     -0.000000     -0.000000     -0.000000      0.000000
     2   0 2 0     -5.404002     -6.130573     -5.494408      6.220979
     2   0 1 1      0.000000      0.000000      0.000000      0.000000
     2   0 0 2     -7.000961     -4.904687     -2.096274      0.000000


 Task  times  cpu:        0.7s     wall:        0.7s


                                NWChem Input Module
                                -------------------


 Summary of allocated global arrays
-----------------------------------
  No active global arrays



                         GA Statistics for process    0
                         ------------------------------

       create   destroy   get      put      acc     scatter   gather  read&inc
calls:  455      455     5193     1414     3095        0        0      438     
number of processes/call 1.37e+00 1.21e+00 1.22e+00 0.00e+00 0.00e+00
bytes total:             4.82e+06 1.15e+06 3.34e+06 0.00e+00 0.00e+00 3.50e+03
bytes remote:            1.59e+06 2.50e+05 7.80e+05 0.00e+00 0.00e+00 0.00e+00
Max memory consumed for GA by this process: 196168 bytes

MA_summarize_allocated_blocks: starting scan ...
MA_summarize_allocated_blocks: scan completed: 0 heap blocks, 0 stack blocks
MA usage statistics:

	allocation statistics:
					      heap	     stack
					      ----	     -----
	current number of blocks	         0	         0
	maximum number of blocks	        21	        57
	current total bytes		         0	         0
	maximum total bytes		   1194552	  22511704
	maximum total K-bytes		      1195	     22512
	maximum total M-bytes		         2	        23


                                     CITATION
                                     --------
                Please cite the following reference when publishing
                           results obtained with NWChem:

                 M. Valiev, E.J. Bylaska, N. Govind, K. Kowalski,
              T.P. Straatsma, H.J.J. van Dam, D. Wang, J. Nieplocha,
                        E. Apra, T.L. Windus, W.A. de Jong
                 "NWChem: a comprehensive and scalable open-source
                  solution for large scale molecular simulations"
                      Comput. Phys. Commun. 181, 1477 (2010)
                           doi:10.1016/j.cpc.2010.04.018

                                      AUTHORS
                                      -------
          E. Apra, E. J. Bylaska, W. A. de Jong, N. Govind, K. Kowalski,
       T. P. Straatsma, M. Valiev, H. J. J. van Dam, D. Wang, T. L. Windus,
        J. Hammond, J. Autschbach, K. Bhaskaran-Nair, J. Brabec, K. Lopata,
    S. A. Fischer, S. Krishnamoorthy, M. Jacquelin, W. Ma, M. Klemm, O. Villa,
      Y. Chen, V. Anisimov, F. Aquino, S. Hirata, M. T. Hackler, V. Konjkov,
            D. Mejia-Rodriguez, T. Risthaus, M. Malagoli, A. Marenich,
   A. Otero-de-la-Roza, J. Mullin, P. Nichols, R. Peverati, J. Pittner, Y. Zhao,
        P.-D. Fan, A. Fonari, M. J. Williamson, R. J. Harrison, J. R. Rehr,
      M. Dupuis, D. Silverstein, D. M. A. Smith, J. Nieplocha, V. Tipparaju,
    M. Krishnan, B. E. Van Kuiken, A. Vazquez-Mayagoitia, L. Jensen, M. Swart,
      Q. Wu, T. Van Voorhis, A. A. Auer, M. Nooijen, L. D. Crosby, E. Brown,
      G. Cisneros, G. I. Fann, H. Fruchtl, J. Garza, K. Hirao, R. A. Kendall,
      J. A. Nichols, K. Tsemekhman, K. Wolinski, J. Anchell, D. E. Bernholdt,
      P. Borowski, T. Clark, D. Clerc, H. Dachsel, M. J. O. Deegan, K. Dyall,
    D. Elwood, E. Glendening, M. Gutowski, A. C. Hess, J. Jaffe, B. G. Johnson,
     J. Ju, R. Kobayashi, R. Kutteh, Z. Lin, R. Littlefield, X. Long, B. Meng,
      T. Nakajima, S. Niu, L. Pollack, M. Rosing, K. Glaesemann, G. Sandrone,
      M. Stave, H. Taylor, G. Thomas, J. H. van Lenthe, A. T. Wong, Z. Zhang.

 Total times  cpu:        0.7s     wall:        0.7s
[0] ARMCI Warning: Freed 1 leaked allocations
