 argument  1 = /home/list1234/source/nwchem-6.8.1-release/QA/tests/m11-l_h2o/m11-l_h2o.nw



============================== echo of input deck ==============================
echo

title m11-l_h2o
start m11-l_h2o

geometry units angstroms
 O     0.000000     0.000000     0.000000
 H     0.000000     0.000000     0.956914
 H     0.926363     0.000000    -0.239868
end

basis
 H library 6-31+G*
 O library 6-31+G*
end

dft
 iterations 50
 print intermediate energy info
 xc m11-l
 decomp
 grid lebedev 99 14
 direct
end
task dft
================================================================================


                                         
                                         


              Northwest Computational Chemistry Package (NWChem) 6.8
              ------------------------------------------------------


                    Environmental Molecular Sciences Laboratory
                       Pacific Northwest National Laboratory
                                Richland, WA 99352

                              Copyright (c) 1994-2018
                       Pacific Northwest National Laboratory
                            Battelle Memorial Institute

             NWChem is an open-source computational chemistry package
                        distributed under the terms of the
                      Educational Community License (ECL) 2.0
             A copy of the license is included with this distribution
                              in the LICENSE.TXT file

                                  ACKNOWLEDGMENT
                                  --------------

            This software and its documentation were developed at the
            EMSL at Pacific Northwest National Laboratory, a multiprogram
            national laboratory, operated for the U.S. Department of Energy
            by Battelle under Contract Number DE-AC05-76RL01830. Support
            for this work was provided by the Department of Energy Office
            of Biological and Environmental Research, Office of Basic
            Energy Sciences, and the Office of Advanced Scientific Computing.


           Job information
           ---------------

    hostname        = list1234-B360M-H
    program         = /home/list1234/source/nwchem-6.8.1-release/bin/LINUX64/nwchem
    date            = Sun Jun 30 13:53:00 2019

    compiled        = Sun_Jun_30_11:55:59_2019
    source          = /home/list1234/source/nwchem-6.8.1-release
    nwchem branch   = Development
    nwchem revision = N/A
    ga revision     = 5.6.5
    use scalapack   = T
    input           = /home/list1234/source/nwchem-6.8.1-release/QA/tests/m11-l_h2o/m11-l_h2o.nw
    prefix          = m11-l_h2o.
    data base       = ./m11-l_h2o.db
    status          = startup
    nproc           =        4
    time left       =     -1s



           Memory information
           ------------------

    heap     =   86247162 doubles =    658.0 Mbytes
    stack    =   86247167 doubles =    658.0 Mbytes
    global   =  172494336 doubles =   1316.0 Mbytes (distinct from heap & stack)
    total    =  344988665 doubles =   2632.1 Mbytes
    verify   = yes
    hardfail = no 


           Directory information
           ---------------------

  0 permanent = .
  0 scratch   = .




                                NWChem Input Module
                                -------------------


                                     m11-l_h2o
                                     ---------

 Scaling coordinates for geometry "geometry" by  1.889725989
 (inverse scale =  0.529177249)

 C2V symmetry detected

          ------
          auto-z
          ------
  no constraints, skipping    0.0000000000000000     
  no constraints, skipping    0.0000000000000000     


                             Geometry "geometry" -> ""
                             -------------------------

 Output coordinates in angstroms (scale by  1.889725989 to convert to a.u.)

  No.       Tag          Charge          X              Y              Z
 ---- ---------------- ---------- -------------- -------------- --------------
    1 O                    8.0000     0.00000000     0.00000000    -0.11714535
    2 H                    1.0000    -0.75670925     0.00000000     0.46858141
    3 H                    1.0000     0.75670925     0.00000000     0.46858141

      Atomic Mass 
      ----------- 

      O                 15.994910
      H                  1.007825


 Effective nuclear repulsion energy (a.u.)       9.1977189738

            Nuclear Dipole moment (a.u.) 
            ----------------------------
        X                 Y               Z
 ---------------- ---------------- ----------------
     0.0000000000     0.0000000000     0.0000000000

      Symmetry information
      --------------------

 Group name             C2v       
 Group number             16
 Group order               4
 No. of unique centers     2

      Symmetry unique atoms

     1    2



                                Z-matrix (autoz)
                                -------- 

 Units are Angstrom for bonds and degrees for angles

      Type          Name      I     J     K     L     M      Value
      ----------- --------  ----- ----- ----- ----- ----- ----------
    1 Stretch                  1     2                       0.95691
    2 Stretch                  1     3                       0.95691
    3 Bend                     2     1     3               104.51706


            XYZ format geometry
            -------------------
     3
 geometry
 O                     0.00000000     0.00000000    -0.11714535
 H                    -0.75670925     0.00000000     0.46858141
 H                     0.75670925     0.00000000     0.46858141

 ==============================================================================
                                internuclear distances
 ------------------------------------------------------------------------------
       center one      |      center two      | atomic units |  angstroms
 ------------------------------------------------------------------------------
    2 H                |   1 O                |     1.80831  |     0.95691
    3 H                |   1 O                |     1.80831  |     0.95691
 ------------------------------------------------------------------------------
                         number of included internuclear distances:          2
 ==============================================================================



 ==============================================================================
                                 internuclear angles
 ------------------------------------------------------------------------------
        center 1       |       center 2       |       center 3       |  degrees
 ------------------------------------------------------------------------------
    2 H                |   1 O                |   3 H                |   104.52
 ------------------------------------------------------------------------------
                            number of included internuclear angles:          1
 ==============================================================================



                      Basis "ao basis" -> "" (cartesian)
                      -----
  H (Hydrogen)
  ------------
            Exponent  Coefficients 
       -------------- ---------------------------------------------------------
  1 S  1.87311370E+01  0.033495
  1 S  2.82539370E+00  0.234727
  1 S  6.40121700E-01  0.813757

  2 S  1.61277800E-01  1.000000

  O (Oxygen)
  ----------
            Exponent  Coefficients 
       -------------- ---------------------------------------------------------
  1 S  5.48467170E+03  0.001831
  1 S  8.25234950E+02  0.013950
  1 S  1.88046960E+02  0.068445
  1 S  5.29645000E+01  0.232714
  1 S  1.68975700E+01  0.470193
  1 S  5.79963530E+00  0.358521

  2 S  1.55396160E+01 -0.110778
  2 S  3.59993360E+00 -0.148026
  2 S  1.01376180E+00  1.130767

  3 P  1.55396160E+01  0.070874
  3 P  3.59993360E+00  0.339753
  3 P  1.01376180E+00  0.727159

  4 S  2.70005800E-01  1.000000

  5 P  2.70005800E-01  1.000000

  6 S  8.45000000E-02  1.000000

  7 P  8.45000000E-02  1.000000

  8 D  8.00000000E-01  1.000000



 Summary of "ao basis" -> "" (cartesian)
 ------------------------------------------------------------------------------
       Tag                 Description            Shells   Functions and Types
 ---------------- ------------------------------  ------  ---------------------
 H                          6-31+G*                  2        2   2s
 O                          6-31+G*                  8       19   4s3p1d



                                 NWChem DFT Module
                                 -----------------


                                     m11-l_h2o




 Summary of "ao basis" -> "ao basis" (cartesian)
 ------------------------------------------------------------------------------
       Tag                 Description            Shells   Functions and Types
 ---------------- ------------------------------  ------  ---------------------
 H                          6-31+G*                  2        2   2s
 O                          6-31+G*                  8       19   4s3p1d


      Symmetry analysis of basis
      --------------------------

        a1         12
        a2          1
        b1          6
        b2          4

  Caching 1-el integrals 

            General Information
            -------------------
          SCF calculation type: DFT
          Wavefunction type:  closed shell.
          No. of atoms     :     3
          No. of electrons :    10
           Alpha electrons :     5
            Beta electrons :     5
          Charge           :     0
          Spin multiplicity:     1
          Use of symmetry is: on ; symmetry adaption is: on 
          Maximum number of iterations:  50
          This is a Direct SCF calculation.
          AO basis - number of functions:    23
                     number of shells:    12
          Convergence on energy requested:  1.00D-06
          Convergence on density requested:  1.00D-05
          Convergence on gradient requested:  5.00D-04

              XC Information
              --------------
                        M11-L Method XC Functional
                         M11-L gradient correction  1.000          
                       M11-L Correlation Potential  1.000          

             Grid Information
             ----------------
          Grid used for XC integration:  lebedev   
          Radial quadrature: Mura-Knowles        
          Angular quadrature: Lebedev. 
          Tag              B.-S. Rad. Rad. Pts. Rad. Cut. Ang. Pts.
          ---              ---------- --------- --------- ---------
          O                   0.60       99           5.0       590
          H                   0.35       99           6.0       590
          Grid pruning is: on 
          Number of quadrature shells:   198
          Spatial weights used:  Erf1

          Convergence Information
          -----------------------
          Convergence aids based upon iterative change in 
          total energy or number of iterations. 
          Levelshifting, if invoked, occurs when the 
          HOMO/LUMO gap drops below (HL_TOL):  1.00D-02
          DIIS, if invoked, will attempt to extrapolate 
          using up to (NFOCK): 10 stored Fock matrices.

                    Damping( 0%)  Levelshifting(0.5)       DIIS
                  --------------- ------------------- ---------------
          dE  on:    start            ASAP                start   
          dE off:    2 iters         50 iters            50 iters 


      Screening Tolerance Information
      -------------------------------
          Density screening/tol_rho:  1.00D-10
          AO Gaussian exp screening on grid/accAOfunc:  14
          CD Gaussian exp screening on grid/accCDfunc:  20
          XC Gaussian exp screening on grid/accXCfunc:  20
          Schwarz screening/accCoul:  1.00D-08


      Superposition of Atomic Density Guess
      -------------------------------------

 Sum of atomic energies:         -75.75320674

      Non-variational initial energy
      ------------------------------

 Total energy =     -75.922816
 1-e energy   =    -121.661700
 2-e energy   =      36.541164
 HOMO         =      -0.479041
 LUMO         =       0.081060


      Symmetry analysis of molecular orbitals - initial
      -------------------------------------------------

  Numbering of irreducible representations: 

     1 a1          2 a2          3 b1          4 b2      

  Orbital symmetries:

     1 a1          2 a1          3 b1          4 a1          5 b2      
     6 a1          7 b1          8 a1          9 b2         10 b1      
    11 a1         12 b1         13 a1         14 b1         15 b2      

   Time after variat. SCF:      0.1
   Time prior to 1st pass:      0.1

 Grid_pts file          = ./m11-l_h2o.gridpts.0
 Record size in doubles =  12289        No. of grid_pts per rec  =   3070
 Max. records in memory =     12        Max. recs in file   =    862023


           Memory utilization after 1st SCF pass: 
           Heap Space remaining (MW):       86.10            86098010
          Stack Space remaining (MW):       86.25            86246900

   convergence    iter        energy       DeltaE   RMS-Dens  Diis-err    time
 ---------------- ----- ----------------- --------- --------- ---------  ------
 d= 0,ls=0.0,diis     1    -76.3555889753 -8.56D+01  2.84D-02  3.46D-01     0.1
 d= 0,ls=0.0,diis     2    -76.3372564999  1.83D-02  1.68D-02  5.44D-01     0.1
 d= 0,ls=0.0,diis     3    -76.3915419893 -5.43D-02  2.60D-03  1.45D-02     0.2
 d= 0,ls=0.0,diis     4    -76.3929874621 -1.45D-03  3.63D-04  1.85D-04     0.2
 d= 0,ls=0.0,diis     5    -76.3930080963 -2.06D-05  2.14D-05  8.83D-07     0.2
 d= 0,ls=0.0,diis     6    -76.3930081860 -8.97D-08  1.45D-06  3.43D-10     0.2


         Total DFT energy =      -76.393008186008
      One electron energy =     -123.036690221718
           Coulomb energy =       46.775576563110
          Exchange energy =       -9.324201788150
       Correlation energy =       -0.005411713050
 Nuclear repulsion energy =        9.197718973800

 Numeric. integr. density =       10.000000297649

     Total iterative time =      0.2s



                  Occupations of the irreducible representations
                  ----------------------------------------------

                     irrep           alpha         beta
                     --------     --------     --------
                     a1                3.0          3.0
                     a2                0.0          0.0
                     b1                1.0          1.0
                     b2                1.0          1.0


                       DFT Final Molecular Orbital Analysis
                       ------------------------------------

 Vector    1  Occ=2.000000D+00  E=-1.939018D+01  Symmetry=a1
              MO Center=  1.1D-19,  8.2D-25, -1.2D-01, r^2= 1.5D-02
   Bfn.  Coefficient  Atom+Function         Bfn.  Coefficient  Atom+Function  
  ----- ------------  ---------------      ----- ------------  ---------------
     1      0.996814  1 O  s          

 Vector    2  Occ=2.000000D+00  E=-1.049531D+00  Symmetry=a1
              MO Center=  3.7D-20, -4.9D-40,  6.4D-02, r^2= 4.7D-01
   Bfn.  Coefficient  Atom+Function         Bfn.  Coefficient  Atom+Function  
  ----- ------------  ---------------      ----- ------------  ---------------
     2      0.508182  1 O  s                  6      0.421100  1 O  s          
     1     -0.208708  1 O  s                 20      0.129449  2 H  s          
    22      0.129449  3 H  s                  5      0.112129  1 O  pz         
     9      0.070767  1 O  pz                10      0.042214  1 O  s          
    21     -0.040075  2 H  s                 23     -0.040075  3 H  s          

 Vector    3  Occ=2.000000D+00  E=-5.129059D-01  Symmetry=b1
              MO Center=  3.5D-16,  2.4D-20,  9.5D-02, r^2= 7.6D-01
   Bfn.  Coefficient  Atom+Function         Bfn.  Coefficient  Atom+Function  
  ----- ------------  ---------------      ----- ------------  ---------------
     3      0.518068  1 O  px                 7      0.300446  1 O  px         
    20     -0.235731  2 H  s                 22      0.235731  3 H  s          
    21     -0.102178  2 H  s                 23      0.102178  3 H  s          
    16      0.070593  1 O  dxz        

 Vector    4  Occ=2.000000D+00  E=-3.728339D-01  Symmetry=a1
              MO Center= -2.3D-16, -5.0D-16, -1.8D-01, r^2= 7.3D-01
   Bfn.  Coefficient  Atom+Function         Bfn.  Coefficient  Atom+Function  
  ----- ------------  ---------------      ----- ------------  ---------------
     5      0.550614  1 O  pz                 9      0.369547  1 O  pz         
     6     -0.281574  1 O  s                  2     -0.192455  1 O  s          
    20      0.148496  2 H  s                 22      0.148496  3 H  s          
    21      0.078357  2 H  s                 23      0.078357  3 H  s          
     1      0.074590  1 O  s                 13      0.053935  1 O  pz         

 Vector    5  Occ=2.000000D+00  E=-2.890164D-01  Symmetry=b2
              MO Center= -3.4D-17,  8.7D-16, -9.7D-02, r^2= 6.9D-01
   Bfn.  Coefficient  Atom+Function         Bfn.  Coefficient  Atom+Function  
  ----- ------------  ---------------      ----- ------------  ---------------
     4      0.630495  1 O  py                 8      0.467879  1 O  py         
    12      0.092738  1 O  py                18      0.061132  1 O  dyz        

 Vector    6  Occ=0.000000D+00  E=-4.630922D-04  Symmetry=a1
              MO Center=  1.6D-15,  1.6D-15,  7.0D-01, r^2= 3.4D+00
   Bfn.  Coefficient  Atom+Function         Bfn.  Coefficient  Atom+Function  
  ----- ------------  ---------------      ----- ------------  ---------------
    10      1.647466  1 O  s                  6     -0.956240  1 O  s          
    13      0.606355  1 O  pz                 9     -0.223667  1 O  pz         
    21     -0.206848  2 H  s                 23     -0.206848  3 H  s          
     5     -0.201431  1 O  pz                20      0.091249  2 H  s          
    22      0.091249  3 H  s                  1      0.079418  1 O  s          

 Vector    7  Occ=0.000000D+00  E= 5.283772D-02  Symmetry=b1
              MO Center= -1.9D-15, -5.4D-31, -2.7D-01, r^2= 5.1D+00
   Bfn.  Coefficient  Atom+Function         Bfn.  Coefficient  Atom+Function  
  ----- ------------  ---------------      ----- ------------  ---------------
    11      1.397636  1 O  px                 7     -0.461298  1 O  px         
    21      0.271391  2 H  s                 23     -0.271391  3 H  s          
     3     -0.214368  1 O  px                20     -0.045494  2 H  s          
    22      0.045494  3 H  s                 16     -0.042734  1 O  dxz        

 Vector    8  Occ=0.000000D+00  E= 8.764059D-02  Symmetry=a1
              MO Center=  6.1D-15,  4.6D-16, -8.7D-01, r^2= 4.5D+00
   Bfn.  Coefficient  Atom+Function         Bfn.  Coefficient  Atom+Function  
  ----- ------------  ---------------      ----- ------------  ---------------
    13      1.388174  1 O  pz                 6      0.833105  1 O  s          
    21     -0.589201  2 H  s                 23     -0.589201  3 H  s          
     9     -0.312271  1 O  pz                 5     -0.123514  1 O  pz         
     1     -0.059693  1 O  s                 19     -0.055744  1 O  dzz        
    14     -0.053037  1 O  dxx               17     -0.046060  1 O  dyy        

 Vector    9  Occ=0.000000D+00  E= 1.008965D-01  Symmetry=b2
              MO Center= -1.1D-18,  9.6D-16, -1.2D-01, r^2= 4.9D+00
   Bfn.  Coefficient  Atom+Function         Bfn.  Coefficient  Atom+Function  
  ----- ------------  ---------------      ----- ------------  ---------------
    12      1.229147  1 O  py                 8     -0.513356  1 O  py         
     4     -0.221403  1 O  py         

 Vector   10  Occ=0.000000D+00  E= 1.610852D-01  Symmetry=b1
              MO Center= -5.3D-15, -4.9D-18,  1.7D-01, r^2= 3.0D+00
   Bfn.  Coefficient  Atom+Function         Bfn.  Coefficient  Atom+Function  
  ----- ------------  ---------------      ----- ------------  ---------------
    21      1.929276  2 H  s                 23     -1.929276  3 H  s          
    11      1.197750  1 O  px                 7      0.689766  1 O  px         
     3      0.323919  1 O  px                20      0.168388  2 H  s          
    22     -0.168388  3 H  s          

 Vector   11  Occ=0.000000D+00  E= 1.927400D-01  Symmetry=a1
              MO Center= -1.2D-15, -3.4D-15,  4.6D-01, r^2= 3.5D+00
   Bfn.  Coefficient  Atom+Function         Bfn.  Coefficient  Atom+Function  
  ----- ------------  ---------------      ----- ------------  ---------------
    10      3.244375  1 O  s                 21     -2.436805  2 H  s          
    23     -2.436805  3 H  s                 13      1.020070  1 O  pz         
     6      0.821722  1 O  s                  9      0.679075  1 O  pz         
     5      0.256993  1 O  pz                20     -0.163677  2 H  s          
    22     -0.163677  3 H  s                  2      0.090195  1 O  s          

 Vector   12  Occ=0.000000D+00  E= 9.471235D-01  Symmetry=b1
              MO Center=  4.8D-15,  1.1D-18,  3.2D-01, r^2= 1.9D+00
   Bfn.  Coefficient  Atom+Function         Bfn.  Coefficient  Atom+Function  
  ----- ------------  ---------------      ----- ------------  ---------------
    21      1.771954  2 H  s                 23     -1.771954  3 H  s          
    11      0.872297  1 O  px                20     -0.807542  2 H  s          
    22      0.807542  3 H  s                  3     -0.529159  1 O  px         
    16      0.401784  1 O  dxz                7      0.273243  1 O  px         

 Vector   13  Occ=0.000000D+00  E= 1.035176D+00  Symmetry=a1
              MO Center= -4.0D-15, -4.8D-18,  4.7D-01, r^2= 1.9D+00
   Bfn.  Coefficient  Atom+Function         Bfn.  Coefficient  Atom+Function  
  ----- ------------  ---------------      ----- ------------  ---------------
     6      2.505663  1 O  s                 21     -2.145271  2 H  s          
    23     -2.145271  3 H  s                 10      1.657489  1 O  s          
     2     -1.040430  1 O  s                 13      0.732523  1 O  pz         
    20      0.669704  2 H  s                 22      0.669704  3 H  s          
     9      0.636554  1 O  pz                 5     -0.522769  1 O  pz         

 Vector   14  Occ=0.000000D+00  E= 1.116353D+00  Symmetry=b1
              MO Center=  7.8D-16, -2.1D-16, -2.8D-01, r^2= 1.6D+00
   Bfn.  Coefficient  Atom+Function         Bfn.  Coefficient  Atom+Function  
  ----- ------------  ---------------      ----- ------------  ---------------
     7      1.658200  1 O  px                 3     -0.870910  1 O  px         
    11     -0.636609  1 O  px                20      0.347465  2 H  s          
    22     -0.347465  3 H  s                 16     -0.245707  1 O  dxz        

 Vector   15  Occ=0.000000D+00  E= 1.121240D+00  Symmetry=b2
              MO Center=  1.6D-17, -8.1D-18, -1.1D-01, r^2= 1.6D+00
   Bfn.  Coefficient  Atom+Function         Bfn.  Coefficient  Atom+Function  
  ----- ------------  ---------------      ----- ------------  ---------------
     8      1.429923  1 O  py                 4     -0.993906  1 O  py         
    12     -0.655477  1 O  py                18      0.054779  1 O  dyz        

 Vector   16  Occ=0.000000D+00  E= 1.139253D+00  Symmetry=a1
              MO Center= -8.9D-16, -2.4D-17, -3.8D-01, r^2= 1.6D+00
   Bfn.  Coefficient  Atom+Function         Bfn.  Coefficient  Atom+Function  
  ----- ------------  ---------------      ----- ------------  ---------------
     9      1.486973  1 O  pz                 5     -0.861065  1 O  pz         
     6     -0.745970  1 O  s                 13     -0.685811  1 O  pz         
     2      0.437004  1 O  s                 20     -0.340227  2 H  s          
    22     -0.340227  3 H  s                 17      0.209568  1 O  dyy        
    19      0.184704  1 O  dzz               21      0.177894  2 H  s          

 Vector   17  Occ=0.000000D+00  E= 1.210680D+00  Symmetry=a1
              MO Center= -5.5D-16, -3.5D-17,  8.0D-02, r^2= 1.7D+00
   Bfn.  Coefficient  Atom+Function         Bfn.  Coefficient  Atom+Function  
  ----- ------------  ---------------      ----- ------------  ---------------
     6      3.271563  1 O  s                  2     -1.355700  1 O  s          
    10     -1.346374  1 O  s                 14     -0.704549  1 O  dxx        
    20     -0.604639  2 H  s                 22     -0.604639  3 H  s          
    19     -0.382412  1 O  dzz               21      0.356387  2 H  s          
    23      0.356387  3 H  s                  9      0.347494  1 O  pz         

 Vector   18  Occ=0.000000D+00  E= 1.703912D+00  Symmetry=a1
              MO Center=  7.2D-16,  7.7D-17, -1.8D-01, r^2= 6.2D-01
   Bfn.  Coefficient  Atom+Function         Bfn.  Coefficient  Atom+Function  
  ----- ------------  ---------------      ----- ------------  ---------------
    19      1.007731  1 O  dzz               14     -0.575094  1 O  dxx        
    17     -0.366683  1 O  dyy                6     -0.218234  1 O  s          
     9     -0.178399  1 O  pz                20      0.112202  2 H  s          
    22      0.112202  3 H  s                 10      0.077808  1 O  s          
     2      0.071721  1 O  s                 13      0.069648  1 O  pz         

 Vector   19  Occ=0.000000D+00  E= 1.718381D+00  Symmetry=a2
              MO Center=  2.3D-16,  2.1D-16, -1.2D-01, r^2= 6.1D-01
   Bfn.  Coefficient  Atom+Function         Bfn.  Coefficient  Atom+Function  
  ----- ------------  ---------------      ----- ------------  ---------------
    15      1.732051  1 O  dxy        

 Vector   20  Occ=0.000000D+00  E= 1.759132D+00  Symmetry=b2
              MO Center= -2.1D-16, -3.6D-17, -1.5D-01, r^2= 6.1D-01
   Bfn.  Coefficient  Atom+Function         Bfn.  Coefficient  Atom+Function  
  ----- ------------  ---------------      ----- ------------  ---------------
    18      1.730035  1 O  dyz                8     -0.066432  1 O  py         
    12      0.028546  1 O  py         

 Vector   21  Occ=0.000000D+00  E= 2.294585D+00  Symmetry=a1
              MO Center=  2.5D-16, -1.4D-17,  1.5D-02, r^2= 8.6D-01
   Bfn.  Coefficient  Atom+Function         Bfn.  Coefficient  Atom+Function  
  ----- ------------  ---------------      ----- ------------  ---------------
     6      1.527559  1 O  s                 17     -1.125484  1 O  dyy        
    20     -0.886835  2 H  s                 22     -0.886835  3 H  s          
     9      0.755662  1 O  pz                14      0.739205  1 O  dxx        
     2     -0.498302  1 O  s                 10     -0.292171  1 O  s          
    13     -0.159385  1 O  pz                21      0.091701  2 H  s          

 Vector   22  Occ=0.000000D+00  E= 2.655444D+00  Symmetry=b1
              MO Center= -6.3D-16,  8.6D-20, -3.9D-02, r^2= 9.6D-01
   Bfn.  Coefficient  Atom+Function         Bfn.  Coefficient  Atom+Function  
  ----- ------------  ---------------      ----- ------------  ---------------
    16      2.213798  1 O  dxz               20      1.068100  2 H  s          
    22     -1.068100  3 H  s                  7      0.984965  1 O  px         
    21     -0.442323  2 H  s                 23      0.442323  3 H  s          
    11     -0.415117  1 O  px                 3     -0.050801  1 O  px         

 Vector   23  Occ=0.000000D+00  E= 3.772249D+00  Symmetry=a1
              MO Center=  2.0D-16, -2.9D-19, -1.4D-01, r^2= 1.1D+00
   Bfn.  Coefficient  Atom+Function         Bfn.  Coefficient  Atom+Function  
  ----- ------------  ---------------      ----- ------------  ---------------
     6      4.202882  1 O  s                 17     -1.654762  1 O  dyy        
    19     -1.640726  1 O  dzz               14     -1.631664  1 O  dxx        
    21     -0.628278  2 H  s                 23     -0.628278  3 H  s          
     1     -0.487321  1 O  s                 13      0.281491  1 O  pz         
    10     -0.174069  1 O  s                  2      0.156348  1 O  s          


 center of mass
 --------------
 x =   0.00000000 y =   0.00000000 z =  -0.09749815

 moments of inertia (a.u.)
 ------------------
           2.193095372038           0.000000000000           0.000000000000
           0.000000000000           6.314743204129           0.000000000000
           0.000000000000           0.000000000000           4.121647832091

     Multipole analysis of the density
     ---------------------------------

     L   x y z        total         alpha         beta         nuclear
     -   - - -        -----         -----         ----         -------
     0   0 0 0     -0.000000     -5.000000     -5.000000     10.000000

     1   1 0 0      0.000000      0.000000      0.000000      0.000000
     1   0 1 0     -0.000000     -0.000000     -0.000000      0.000000
     1   0 0 1      0.880069      0.440035      0.440035      0.000000

     2   2 0 0     -3.086328     -3.587987     -3.587987      4.089646
     2   1 1 0      0.000000      0.000000      0.000000      0.000000
     2   1 0 1     -0.000000     -0.000000     -0.000000      0.000000
     2   0 2 0     -5.730101     -2.865050     -2.865050      0.000000
     2   0 1 1     -0.000000     -0.000000     -0.000000      0.000000
     2   0 0 2     -4.630491     -3.295362     -3.295362      1.960233


 Task  times  cpu:        0.2s     wall:        0.2s


                                NWChem Input Module
                                -------------------


 Summary of allocated global arrays
-----------------------------------
  No active global arrays



                         GA Statistics for process    0
                         ------------------------------

       create   destroy   get      put      acc     scatter   gather  read&inc
calls:  205      205     1238      547      454        0        0      281     
number of processes/call 1.58e+00 1.24e+00 1.56e+00 0.00e+00 0.00e+00
bytes total:             1.38e+06 4.54e+05 6.47e+05 0.00e+00 0.00e+00 2.25e+03
bytes remote:            4.16e+05 7.57e+04 2.03e+05 0.00e+00 0.00e+00 0.00e+00
Max memory consumed for GA by this process: 109768 bytes

MA_summarize_allocated_blocks: starting scan ...
MA_summarize_allocated_blocks: scan completed: 0 heap blocks, 0 stack blocks
MA usage statistics:

	allocation statistics:
					      heap	     stack
					      ----	     -----
	current number of blocks	         0	         0
	maximum number of blocks	        21	        57
	current total bytes		         0	         0
	maximum total bytes		   1193272	  22510808
	maximum total K-bytes		      1194	     22511
	maximum total M-bytes		         2	        23


                                     CITATION
                                     --------
                Please cite the following reference when publishing
                           results obtained with NWChem:

                 M. Valiev, E.J. Bylaska, N. Govind, K. Kowalski,
              T.P. Straatsma, H.J.J. van Dam, D. Wang, J. Nieplocha,
                        E. Apra, T.L. Windus, W.A. de Jong
                 "NWChem: a comprehensive and scalable open-source
                  solution for large scale molecular simulations"
                      Comput. Phys. Commun. 181, 1477 (2010)
                           doi:10.1016/j.cpc.2010.04.018

                                      AUTHORS
                                      -------
          E. Apra, E. J. Bylaska, W. A. de Jong, N. Govind, K. Kowalski,
       T. P. Straatsma, M. Valiev, H. J. J. van Dam, D. Wang, T. L. Windus,
        J. Hammond, J. Autschbach, K. Bhaskaran-Nair, J. Brabec, K. Lopata,
    S. A. Fischer, S. Krishnamoorthy, M. Jacquelin, W. Ma, M. Klemm, O. Villa,
      Y. Chen, V. Anisimov, F. Aquino, S. Hirata, M. T. Hackler, V. Konjkov,
            D. Mejia-Rodriguez, T. Risthaus, M. Malagoli, A. Marenich,
   A. Otero-de-la-Roza, J. Mullin, P. Nichols, R. Peverati, J. Pittner, Y. Zhao,
        P.-D. Fan, A. Fonari, M. J. Williamson, R. J. Harrison, J. R. Rehr,
      M. Dupuis, D. Silverstein, D. M. A. Smith, J. Nieplocha, V. Tipparaju,
    M. Krishnan, B. E. Van Kuiken, A. Vazquez-Mayagoitia, L. Jensen, M. Swart,
      Q. Wu, T. Van Voorhis, A. A. Auer, M. Nooijen, L. D. Crosby, E. Brown,
      G. Cisneros, G. I. Fann, H. Fruchtl, J. Garza, K. Hirao, R. A. Kendall,
      J. A. Nichols, K. Tsemekhman, K. Wolinski, J. Anchell, D. E. Bernholdt,
      P. Borowski, T. Clark, D. Clerc, H. Dachsel, M. J. O. Deegan, K. Dyall,
    D. Elwood, E. Glendening, M. Gutowski, A. C. Hess, J. Jaffe, B. G. Johnson,
     J. Ju, R. Kobayashi, R. Kutteh, Z. Lin, R. Littlefield, X. Long, B. Meng,
      T. Nakajima, S. Niu, L. Pollack, M. Rosing, K. Glaesemann, G. Sandrone,
      M. Stave, H. Taylor, G. Thomas, J. H. van Lenthe, A. T. Wong, Z. Zhang.

 Total times  cpu:        0.2s     wall:        0.3s
[0] ARMCI Warning: Freed 1 leaked allocations
