 argument  1 = /home/list1234/source/nwchem-6.8.1-release/QA/tests/n2_rodft_lrc/n2_rodft_lrc.nw



============================== echo of input deck ==============================
start test_n2+_dat
echo
title "N2+ 1.0977A B3LYP/6-31G** open-shell test"
charge 1
geometry
symmetry d2h
N 0.0 0.0 -0.54885
N 0.0 0.0 0.54885
end
basis
N library 6-31G**
end
dft
  xc xcamb88 1.00 lyp 0.81 vwn_5 0.19 hfexch 1.00
  cam 0.33 cam_alpha 0.19 cam_beta 0.81
  direct
  mult 2
  rodft
  cgmin
end
task dft
================================================================================


                                         
                                         


              Northwest Computational Chemistry Package (NWChem) 6.8
              ------------------------------------------------------


                    Environmental Molecular Sciences Laboratory
                       Pacific Northwest National Laboratory
                                Richland, WA 99352

                              Copyright (c) 1994-2018
                       Pacific Northwest National Laboratory
                            Battelle Memorial Institute

             NWChem is an open-source computational chemistry package
                        distributed under the terms of the
                      Educational Community License (ECL) 2.0
             A copy of the license is included with this distribution
                              in the LICENSE.TXT file

                                  ACKNOWLEDGMENT
                                  --------------

            This software and its documentation were developed at the
            EMSL at Pacific Northwest National Laboratory, a multiprogram
            national laboratory, operated for the U.S. Department of Energy
            by Battelle under Contract Number DE-AC05-76RL01830. Support
            for this work was provided by the Department of Energy Office
            of Biological and Environmental Research, Office of Basic
            Energy Sciences, and the Office of Advanced Scientific Computing.


           Job information
           ---------------

    hostname        = list1234-B360M-H
    program         = /home/list1234/source/nwchem-6.8.1-release/bin/LINUX64/nwchem
    date            = Sun Jun 30 13:52:04 2019

    compiled        = Sun_Jun_30_11:55:59_2019
    source          = /home/list1234/source/nwchem-6.8.1-release
    nwchem branch   = Development
    nwchem revision = N/A
    ga revision     = 5.6.5
    use scalapack   = T
    input           = /home/list1234/source/nwchem-6.8.1-release/QA/tests/n2_rodft_lrc/n2_rodft_lrc.nw
    prefix          = test_n2+_dat.
    data base       = ./test_n2+_dat.db
    status          = startup
    nproc           =        4
    time left       =     -1s



           Memory information
           ------------------

    heap     =   86247162 doubles =    658.0 Mbytes
    stack    =   86247167 doubles =    658.0 Mbytes
    global   =  172494336 doubles =   1316.0 Mbytes (distinct from heap & stack)
    total    =  344988665 doubles =   2632.1 Mbytes
    verify   = yes
    hardfail = no 


           Directory information
           ---------------------

  0 permanent = .
  0 scratch   = .




                                NWChem Input Module
                                -------------------


                     N2+ 1.0977A B3LYP/6-31G** open-shell test
                     -----------------------------------------

 Scaling coordinates for geometry "geometry" by  1.889725989
 (inverse scale =  0.529177249)

 Turning off AUTOSYM since
 SYMMETRY directive was detected!


          ------
          auto-z
          ------
  no constraints, skipping    0.0000000000000000     
  no constraints, skipping    0.0000000000000000     


                             Geometry "geometry" -> ""
                             -------------------------

 Output coordinates in angstroms (scale by  1.889725989 to convert to a.u.)

  No.       Tag          Charge          X              Y              Z
 ---- ---------------- ---------- -------------- -------------- --------------
    1 N                    7.0000     0.00000000     0.00000000    -0.54885000
    2 N                    7.0000     0.00000000     0.00000000     0.54885000

      Atomic Mass 
      ----------- 

      N                 14.003070


 Effective nuclear repulsion energy (a.u.)      23.6218321955

            Nuclear Dipole moment (a.u.) 
            ----------------------------
        X                 Y               Z
 ---------------- ---------------- ----------------
     0.0000000000     0.0000000000     0.0000000000

      Symmetry information
      --------------------

 Group name             D2h       
 Group number             26
 Group order               8
 No. of unique centers     1

      Symmetry unique atoms

     1



                                Z-matrix (autoz)
                                -------- 

 Units are Angstrom for bonds and degrees for angles

      Type          Name      I     J     K     L     M      Value
      ----------- --------  ----- ----- ----- ----- ----- ----------
    1 Stretch                  1     2                       1.09770


            XYZ format geometry
            -------------------
     2
 geometry
 N                     0.00000000     0.00000000    -0.54885000
 N                     0.00000000     0.00000000     0.54885000

 ==============================================================================
                                internuclear distances
 ------------------------------------------------------------------------------
       center one      |      center two      | atomic units |  angstroms
 ------------------------------------------------------------------------------
    2 N                |   1 N                |     2.07435  |     1.09770
 ------------------------------------------------------------------------------
                         number of included internuclear distances:          1
 ==============================================================================



                      Basis "ao basis" -> "" (cartesian)
                      -----
  N (Nitrogen)
  ------------
            Exponent  Coefficients 
       -------------- ---------------------------------------------------------
  1 S  4.17351100E+03  0.001835
  1 S  6.27457900E+02  0.013995
  1 S  1.42902100E+02  0.068587
  1 S  4.02343300E+01  0.232241
  1 S  1.28202100E+01  0.469070
  1 S  4.39043700E+00  0.360455

  2 S  1.16263580E+01 -0.114961
  2 S  2.71628000E+00 -0.169118
  2 S  7.72218000E-01  1.145852

  3 P  1.16263580E+01  0.067580
  3 P  2.71628000E+00  0.323907
  3 P  7.72218000E-01  0.740895

  4 S  2.12031300E-01  1.000000

  5 P  2.12031300E-01  1.000000

  6 D  8.00000000E-01  1.000000



 Summary of "ao basis" -> "" (cartesian)
 ------------------------------------------------------------------------------
       Tag                 Description            Shells   Functions and Types
 ---------------- ------------------------------  ------  ---------------------
 N                          6-31G**                  6       15   3s2p1d



                                 NWChem DFT Module
                                 -----------------


                     N2+ 1.0977A B3LYP/6-31G** open-shell test




 Summary of "ao basis" -> "ao basis" (cartesian)
 ------------------------------------------------------------------------------
       Tag                 Description            Shells   Functions and Types
 ---------------- ------------------------------  ------  ---------------------
 N                          6-31G**                  6       15   3s2p1d


      Symmetry analysis of basis
      --------------------------

        ag          8
        au          1
        b1g         1
        b1u         8
        b2g         3
        b2u         3
        b3g         3
        b3u         3

  int_init: cando_txs set to always be  F
  Caching 1-el integrals 

            General Information
            -------------------
          SCF calculation type: DFT
          Wavefunction type:  restricted open shell.
          No. of atoms     :     2
          No. of electrons :    13
           Alpha electrons :     7
            Beta electrons :     6
          Charge           :     1
          Spin multiplicity:     2
          Use of symmetry is: on ; symmetry adaption is: on 
          Maximum number of iterations:  30
          This is a Direct SCF calculation.
          AO basis - number of functions:    30
                     number of shells:    12
          Convergence on energy requested:  1.00D-06
          Convergence on density requested:  1.00D-05
          Convergence on gradient requested:  5.00D-04

              XC Information
              --------------
                     Hartree-Fock (Exact) Exchange  1.000          
                   CAM-Becke88 Exchange Functional  1.000          
                      VWN V Correlation Functional  0.190 local    
              Lee-Yang-Parr Correlation Functional  0.810          

           Range-Separation Parameters        
           ---------------------------
           Alpha           :  0.19
           Beta            :  0.81
           Gamma           :  0.33
           Short-Range HF  :     F

             Grid Information
             ----------------
          Grid used for XC integration:  medium    
          Radial quadrature: Mura-Knowles        
          Angular quadrature: Lebedev. 
          Tag              B.-S. Rad. Rad. Pts. Rad. Cut. Ang. Pts.
          ---              ---------- --------- --------- ---------
          N                   0.65       49           5.0       434
          Grid pruning is: on 
          Number of quadrature shells:    49
          Spatial weights used:  Erf1

          Convergence Information
          -----------------------
          Convergence aids based upon iterative change in 
          total energy or number of iterations. 
          Levelshifting, if invoked, occurs when the 
          HOMO/LUMO gap drops below (HL_TOL):  1.00D-02
          DIIS, if invoked, will attempt to extrapolate 
          using up to (NFOCK): 10 stored Fock matrices.

                    Damping( 0%)  Levelshifting(0.5)       DIIS
                  --------------- ------------------- ---------------
          dE  on:    start            ASAP                start   
          dE off:    2 iters         30 iters            30 iters 


      Screening Tolerance Information
      -------------------------------
          Density screening/tol_rho:  1.00D-10
          AO Gaussian exp screening on grid/accAOfunc:  14
          CD Gaussian exp screening on grid/accCDfunc:  20
          XC Gaussian exp screening on grid/accXCfunc:  20
          Schwarz screening/accCoul:  1.00D-08


      Superposition of Atomic Density Guess
      -------------------------------------

 Sum of atomic energies:        -108.58747649

 Renormalizing density from      14.00 to     13

      Non-variational initial energy
      ------------------------------

 Total energy =    -103.672717
 1-e energy   =    -180.042836
 2-e energy   =      52.748287
 HOMO         =      -0.962138
 LUMO         =      -0.507383


      Symmetry analysis of molecular orbitals - initial
      -------------------------------------------------


 !! scf_movecs_sym_adapt:   16 vectors were symmetry contaminated

  Symmetry fudging

 !! scf_movecs_sym_adapt:   16 vectors were symmetry contaminated

  Numbering of irreducible representations: 

     1 ag          2 au          3 b1g         4 b1u         5 b2g     
     6 b2u         7 b3g         8 b3u     

  Orbital symmetries:

     1 ag          2 b1u         3 ag          4 b1u         5 b3u     
     6 b2u         7 ag          8 b2g         9 b3g        10 b1u     
    11 ag         12 b3u        13 b2u        14 ag         15 b1u     
    16 b3g        17 b2g     



 ----------------------------------------------
         Quadratically convergent ROKS

 Convergence threshold     :          5.000E-04
 Maximum no. of iterations :           30
 Final Fock-matrix accuracy:          1.000E-08
 ----------------------------------------------


 Grid_pts file          = ./test_n2+_dat.gridpts.0
 Record size in doubles =  12289        No. of grid_pts per rec  =   3070
 Max. records in memory =      3        Max. recs in file   =    862023


              iter       energy          gnorm     gmax       time
             ----- ------------------- --------- --------- --------
                 1     -108.7969852624  8.16D-01  4.48D-01      0.2
                 2     -108.8080004197  7.31D-02  3.05D-02      0.2
                 3     -108.8084584619  1.26D-02  6.87D-03      0.2
                 4     -108.8084775156  4.15D-03  3.11D-03      0.3
                 5     -108.8084804896  1.77D-03  1.41D-03      0.4
                 6     -108.8084810913  7.92D-04  6.37D-04      0.4
                 7     -108.8084812132  3.56D-04  2.88D-04      0.5


         Total DFT energy =     -108.808481213188
      One electron energy =     -188.043752986210
           Coulomb energy =       64.496654068620
    Exchange-Corr. energy =       -8.883214491085
 Nuclear repulsion energy =       23.621832195486

 Numeric. integr. density =       13.000000379977

     Total iterative time =      0.4s



                       DFT Final Molecular Orbital Analysis
                       ------------------------------------

 Vector    1  Occ=2.000000D+00  E=-1.507844D+01  Symmetry=ag
              MO Center=  1.3D-19,  5.1D-20,  5.2D-13, r^2= 3.2D-01
   Bfn.  Coefficient  Atom+Function         Bfn.  Coefficient  Atom+Function  
  ----- ------------  ---------------      ----- ------------  ---------------
     1      0.701923  1 N  s                 16      0.701923  2 N  s          

 Vector    2  Occ=2.000000D+00  E=-1.507666D+01  Symmetry=b1u
              MO Center=  1.8D-18, -1.4D-18, -5.2D-13, r^2= 3.2D-01
   Bfn.  Coefficient  Atom+Function         Bfn.  Coefficient  Atom+Function  
  ----- ------------  ---------------      ----- ------------  ---------------
     1      0.702098  1 N  s                 16     -0.702098  2 N  s          

 Vector    3  Occ=2.000000D+00  E=-1.716575D+00  Symmetry=ag
              MO Center=  1.1D-19,  3.3D-20,  5.8D-17, r^2= 4.3D-01
   Bfn.  Coefficient  Atom+Function         Bfn.  Coefficient  Atom+Function  
  ----- ------------  ---------------      ----- ------------  ---------------
     2      0.358411  1 N  s                 17      0.358411  2 N  s          
     5      0.228207  1 N  pz                20     -0.228207  2 N  pz         
     6      0.177271  1 N  s                 21      0.177271  2 N  s          
     1     -0.161867  1 N  s                 16     -0.161867  2 N  s          

 Vector    4  Occ=2.000000D+00  E=-1.090498D+00  Symmetry=b1u
              MO Center=  3.9D-19, -6.5D-19,  1.6D-16, r^2= 1.2D+00
   Bfn.  Coefficient  Atom+Function         Bfn.  Coefficient  Atom+Function  
  ----- ------------  ---------------      ----- ------------  ---------------
     6      0.546306  1 N  s                 21     -0.546306  2 N  s          
     2      0.371651  1 N  s                 17     -0.371651  2 N  s          
     5     -0.229214  1 N  pz                20     -0.229214  2 N  pz         
     1     -0.154636  1 N  s                 16      0.154636  2 N  s          

 Vector    5  Occ=2.000000D+00  E=-1.009459D+00  Symmetry=b3u
              MO Center= -1.1D-18,  1.5D-33,  9.1D-18, r^2= 8.1D-01
   Bfn.  Coefficient  Atom+Function         Bfn.  Coefficient  Atom+Function  
  ----- ------------  ---------------      ----- ------------  ---------------
     3      0.488287  1 N  px                18      0.488287  2 N  px         
     7      0.197673  1 N  px                22      0.197673  2 N  px         

 Vector    6  Occ=2.000000D+00  E=-1.009459D+00  Symmetry=b2u
              MO Center=  4.5D-35, -3.8D-19, -1.4D-17, r^2= 8.1D-01
   Bfn.  Coefficient  Atom+Function         Bfn.  Coefficient  Atom+Function  
  ----- ------------  ---------------      ----- ------------  ---------------
     4      0.488287  1 N  py                19      0.488287  2 N  py         
     8      0.197673  1 N  py                23      0.197673  2 N  py         

 Vector    7  Occ=1.000000D+00  E=-8.332482D-01  Symmetry=ag
              MO Center=  8.8D-20, -4.5D-20, -1.5D-17, r^2= 1.2D+00
   Bfn.  Coefficient  Atom+Function         Bfn.  Coefficient  Atom+Function  
  ----- ------------  ---------------      ----- ------------  ---------------
     5      0.493422  1 N  pz                20     -0.493422  2 N  pz         
     6     -0.279555  1 N  s                 21     -0.279555  2 N  s          

 Vector    8  Occ=0.000000D+00  E=-3.267084D-01  Symmetry=b2g
              MO Center= -8.4D-18,  3.5D-33,  1.8D-17, r^2= 1.1D+00
   Bfn.  Coefficient  Atom+Function         Bfn.  Coefficient  Atom+Function  
  ----- ------------  ---------------      ----- ------------  ---------------
     3      0.546457  1 N  px                18     -0.546457  2 N  px         
     7      0.484393  1 N  px                22     -0.484393  2 N  px         

 Vector    9  Occ=0.000000D+00  E=-3.267084D-01  Symmetry=b3g
              MO Center= -8.0D-33,  2.5D-18,  4.1D-17, r^2= 1.1D+00
   Bfn.  Coefficient  Atom+Function         Bfn.  Coefficient  Atom+Function  
  ----- ------------  ---------------      ----- ------------  ---------------
     4      0.546457  1 N  py                19     -0.546457  2 N  py         
     8      0.484393  1 N  py                23     -0.484393  2 N  py         

 Vector   10  Occ=0.000000D+00  E= 1.808061D-01  Symmetry=b1u
              MO Center= -4.3D-18,  5.2D-19, -1.2D-15, r^2= 2.9D+00
   Bfn.  Coefficient  Atom+Function         Bfn.  Coefficient  Atom+Function  
  ----- ------------  ---------------      ----- ------------  ---------------
     6      3.732847  1 N  s                 21     -3.732847  2 N  s          
     9      2.480170  1 N  pz                24      2.480170  2 N  pz         
     2      0.269535  1 N  s                 17     -0.269535  2 N  s          
     5      0.183897  1 N  pz                20      0.183897  2 N  pz         

 Vector   11  Occ=0.000000D+00  E= 3.444776D-01  Symmetry=ag
              MO Center=  9.9D-20,  1.4D-20,  1.5D-15, r^2= 1.9D+00
   Bfn.  Coefficient  Atom+Function         Bfn.  Coefficient  Atom+Function  
  ----- ------------  ---------------      ----- ------------  ---------------
     9      0.856238  1 N  pz                24     -0.856238  2 N  pz         
     2     -0.511478  1 N  s                 17     -0.511478  2 N  s          
     6      0.382086  1 N  s                 21      0.382086  2 N  s          
     5     -0.314456  1 N  pz                20      0.314456  2 N  pz         
    15     -0.172896  1 N  dzz               30     -0.172896  2 N  dzz        

 Vector   12  Occ=0.000000D+00  E= 3.544764D-01  Symmetry=b3u
              MO Center= -6.7D-16,  1.4D-31, -4.3D-17, r^2= 1.9D+00
   Bfn.  Coefficient  Atom+Function         Bfn.  Coefficient  Atom+Function  
  ----- ------------  ---------------      ----- ------------  ---------------
     7     -0.639373  1 N  px                22     -0.639373  2 N  px         
     3      0.605318  1 N  px                18      0.605318  2 N  px         

 Vector   13  Occ=0.000000D+00  E= 3.544764D-01  Symmetry=b2u
              MO Center=  4.3D-32, -2.0D-16, -1.6D-17, r^2= 1.9D+00
   Bfn.  Coefficient  Atom+Function         Bfn.  Coefficient  Atom+Function  
  ----- ------------  ---------------      ----- ------------  ---------------
     8     -0.639373  1 N  py                23     -0.639373  2 N  py         
     4      0.605318  1 N  py                19      0.605318  2 N  py         

 Vector   14  Occ=0.000000D+00  E= 3.922716D-01  Symmetry=ag
              MO Center=  7.0D-16,  2.1D-16,  8.0D-17, r^2= 2.5D+00
   Bfn.  Coefficient  Atom+Function         Bfn.  Coefficient  Atom+Function  
  ----- ------------  ---------------      ----- ------------  ---------------
     6      1.018730  1 N  s                 21      1.018730  2 N  s          
     2     -0.690505  1 N  s                 17     -0.690505  2 N  s          
     9     -0.470494  1 N  pz                24      0.470494  2 N  pz         
     5      0.376007  1 N  pz                20     -0.376007  2 N  pz         
    15     -0.155394  1 N  dzz               30     -0.155394  2 N  dzz        

 Vector   15  Occ=0.000000D+00  E= 5.006139D-01  Symmetry=b1u
              MO Center=  6.4D-18, -6.0D-19, -1.9D-16, r^2= 1.5D+00
   Bfn.  Coefficient  Atom+Function         Bfn.  Coefficient  Atom+Function  
  ----- ------------  ---------------      ----- ------------  ---------------
     5      0.734798  1 N  pz                20      0.734798  2 N  pz         
     6      0.716811  1 N  s                 21     -0.716811  2 N  s          
     9     -0.312707  1 N  pz                24     -0.312707  2 N  pz         
    15     -0.297836  1 N  dzz               30      0.297836  2 N  dzz        
     2     -0.197968  1 N  s                 17      0.197968  2 N  s          

 Vector   16  Occ=0.000000D+00  E= 5.054233D-01  Symmetry=b2g
              MO Center=  2.4D-17,  1.4D-32, -1.3D-16, r^2= 2.3D+00
   Bfn.  Coefficient  Atom+Function         Bfn.  Coefficient  Atom+Function  
  ----- ------------  ---------------      ----- ------------  ---------------
     7      1.251657  1 N  px                22     -1.251657  2 N  px         
     3     -0.654782  1 N  px                18      0.654782  2 N  px         

 Vector   17  Occ=0.000000D+00  E= 5.054233D-01  Symmetry=b3g
              MO Center= -3.2D-32, -3.6D-18,  7.3D-17, r^2= 2.3D+00
   Bfn.  Coefficient  Atom+Function         Bfn.  Coefficient  Atom+Function  
  ----- ------------  ---------------      ----- ------------  ---------------
     8      1.251657  1 N  py                23     -1.251657  2 N  py         
     4     -0.654782  1 N  py                19      0.654782  2 N  py         

 Vector   18  Occ=0.000000D+00  E= 1.002458D+00  Symmetry=b1u
              MO Center= -1.7D-17,  1.1D-18,  3.3D-15, r^2= 2.1D+00
   Bfn.  Coefficient  Atom+Function         Bfn.  Coefficient  Atom+Function  
  ----- ------------  ---------------      ----- ------------  ---------------
     6      7.138312  1 N  s                 21     -7.138312  2 N  s          
     9      3.222295  1 N  pz                24      3.222295  2 N  pz         
     2     -1.280912  1 N  s                 17      1.280912  2 N  s          
     5     -0.256270  1 N  pz                20     -0.256270  2 N  pz         
    10     -0.214744  1 N  dxx               13     -0.214744  1 N  dyy        

 Vector   19  Occ=0.000000D+00  E= 1.163716D+00  Symmetry=b1g
              MO Center= -4.4D-32, -1.4D-31,  9.7D-18, r^2= 8.7D-01
   Bfn.  Coefficient  Atom+Function         Bfn.  Coefficient  Atom+Function  
  ----- ------------  ---------------      ----- ------------  ---------------
    11      1.128016  1 N  dxy               26      1.128016  2 N  dxy        

 Vector   20  Occ=0.000000D+00  E= 1.163716D+00  Symmetry=ag
              MO Center= -3.0D-31,  9.2D-32,  2.0D-17, r^2= 8.7D-01
   Bfn.  Coefficient  Atom+Function         Bfn.  Coefficient  Atom+Function  
  ----- ------------  ---------------      ----- ------------  ---------------
    10      0.564008  1 N  dxx               13     -0.564008  1 N  dyy        
    25      0.564008  2 N  dxx               28     -0.564008  2 N  dyy        

 Vector   21  Occ=0.000000D+00  E= 1.259302D+00  Symmetry=b2u
              MO Center=  1.1D-33, -8.5D-22,  1.7D-17, r^2= 9.1D-01
   Bfn.  Coefficient  Atom+Function         Bfn.  Coefficient  Atom+Function  
  ----- ------------  ---------------      ----- ------------  ---------------
    14      1.038313  1 N  dyz               29     -1.038313  2 N  dyz        
     4     -0.264114  1 N  py                19     -0.264114  2 N  py         

 Vector   22  Occ=0.000000D+00  E= 1.259302D+00  Symmetry=b3u
              MO Center= -1.8D-21,  1.1D-33, -2.0D-17, r^2= 9.1D-01
   Bfn.  Coefficient  Atom+Function         Bfn.  Coefficient  Atom+Function  
  ----- ------------  ---------------      ----- ------------  ---------------
    12      1.038313  1 N  dxz               27     -1.038313  2 N  dxz        
     3     -0.264114  1 N  px                18     -0.264114  2 N  px         

 Vector   23  Occ=0.000000D+00  E= 1.667701D+00  Symmetry=au
              MO Center=  4.0D-32, -1.7D-32, -5.3D-18, r^2= 9.8D-01
   Bfn.  Coefficient  Atom+Function         Bfn.  Coefficient  Atom+Function  
  ----- ------------  ---------------      ----- ------------  ---------------
    11      1.351562  1 N  dxy               26     -1.351562  2 N  dxy        

 Vector   24  Occ=0.000000D+00  E= 1.667701D+00  Symmetry=b1u
              MO Center= -4.6D-31, -3.1D-31,  3.2D-17, r^2= 9.8D-01
   Bfn.  Coefficient  Atom+Function         Bfn.  Coefficient  Atom+Function  
  ----- ------------  ---------------      ----- ------------  ---------------
    10      0.675781  1 N  dxx               13     -0.675781  1 N  dyy        
    25     -0.675781  2 N  dxx               28      0.675781  2 N  dyy        

 Vector   25  Occ=0.000000D+00  E= 2.123538D+00  Symmetry=ag
              MO Center= -1.3D-17, -3.9D-18, -2.1D-16, r^2= 1.2D+00
   Bfn.  Coefficient  Atom+Function         Bfn.  Coefficient  Atom+Function  
  ----- ------------  ---------------      ----- ------------  ---------------
    10      0.665843  1 N  dxx               13      0.665843  1 N  dyy        
    25      0.665843  2 N  dxx               28      0.665843  2 N  dyy        
     9     -0.581049  1 N  pz                24      0.581049  2 N  pz         
    15     -0.568743  1 N  dzz               30     -0.568743  2 N  dzz        
     6     -0.536290  1 N  s                 21     -0.536290  2 N  s          

 Vector   26  Occ=0.000000D+00  E= 2.312240D+00  Symmetry=b2g
              MO Center= -2.9D-18, -9.3D-35,  3.2D-17, r^2= 1.2D+00
   Bfn.  Coefficient  Atom+Function         Bfn.  Coefficient  Atom+Function  
  ----- ------------  ---------------      ----- ------------  ---------------
    12      1.934444  1 N  dxz               27      1.934444  2 N  dxz        
     7      0.501686  1 N  px                22     -0.501686  2 N  px         
     3      0.241571  1 N  px                18     -0.241571  2 N  px         

 Vector   27  Occ=0.000000D+00  E= 2.312240D+00  Symmetry=b3g
              MO Center= -1.8D-34,  1.9D-18,  2.5D-17, r^2= 1.2D+00
   Bfn.  Coefficient  Atom+Function         Bfn.  Coefficient  Atom+Function  
  ----- ------------  ---------------      ----- ------------  ---------------
    14      1.934444  1 N  dyz               29      1.934444  2 N  dyz        
     8      0.501686  1 N  py                23     -0.501686  2 N  py         
     4      0.241571  1 N  py                19     -0.241571  2 N  py         

 Vector   28  Occ=0.000000D+00  E= 2.524744D+00  Symmetry=b1u
              MO Center=  4.5D-20, -7.1D-20,  6.6D-16, r^2= 1.3D+00
   Bfn.  Coefficient  Atom+Function         Bfn.  Coefficient  Atom+Function  
  ----- ------------  ---------------      ----- ------------  ---------------
     6      3.288515  1 N  s                 21     -3.288515  2 N  s          
     9      1.763833  1 N  pz                24      1.763833  2 N  pz         
    15      1.367136  1 N  dzz               30     -1.367136  2 N  dzz        
     5      1.106413  1 N  pz                20      1.106413  2 N  pz         
    10     -0.487105  1 N  dxx               13     -0.487105  1 N  dyy        

 Vector   29  Occ=0.000000D+00  E= 2.993911D+00  Symmetry=ag
              MO Center= -7.9D-18, -2.4D-18, -1.9D-15, r^2= 1.1D+00
   Bfn.  Coefficient  Atom+Function         Bfn.  Coefficient  Atom+Function  
  ----- ------------  ---------------      ----- ------------  ---------------
     2      1.270564  1 N  s                 17      1.270564  2 N  s          
    15     -1.099699  1 N  dzz               30     -1.099699  2 N  dzz        
     6      0.829504  1 N  s                 21      0.829504  2 N  s          
    10     -0.799761  1 N  dxx               13     -0.799761  1 N  dyy        
    25     -0.799761  2 N  dxx               28     -0.799761  2 N  dyy        

 Vector   30  Occ=0.000000D+00  E= 3.302602D+00  Symmetry=b1u
              MO Center=  1.1D-19,  3.0D-19,  1.7D-15, r^2= 1.3D+00
   Bfn.  Coefficient  Atom+Function         Bfn.  Coefficient  Atom+Function  
  ----- ------------  ---------------      ----- ------------  ---------------
     6      4.133132  1 N  s                 21     -4.133132  2 N  s          
     9      1.307404  1 N  pz                24      1.307404  2 N  pz         
    15     -1.177825  1 N  dzz               30      1.177825  2 N  dzz        
    10     -1.092399  1 N  dxx               13     -1.092399  1 N  dyy        
    25      1.092399  2 N  dxx               28      1.092399  2 N  dyy        


 Task  times  cpu:        0.4s     wall:        0.4s


                                NWChem Input Module
                                -------------------


 Summary of allocated global arrays
-----------------------------------
  No active global arrays



                         GA Statistics for process    0
                         ------------------------------

       create   destroy   get      put      acc     scatter   gather  read&inc
calls: 1032     1032     5394     1731     3533      128        0      953     
number of processes/call 1.42e+00 1.25e+00 1.19e+00 0.00e+00 0.00e+00
bytes total:             5.83e+06 2.06e+06 3.30e+06 1.80e+03 0.00e+00 7.62e+03
bytes remote:            2.39e+06 6.24e+05 1.56e+06 0.00e+00 0.00e+00 0.00e+00
Max memory consumed for GA by this process: 100016 bytes

MA_summarize_allocated_blocks: starting scan ...
MA_summarize_allocated_blocks: scan completed: 0 heap blocks, 0 stack blocks
MA usage statistics:

	allocation statistics:
					      heap	     stack
					      ----	     -----
	current number of blocks	         0	         0
	maximum number of blocks	        17	        57
	current total bytes		         0	         0
	maximum total bytes		    298832	  22510104
	maximum total K-bytes		       299	     22511
	maximum total M-bytes		         1	        23


                                     CITATION
                                     --------
                Please cite the following reference when publishing
                           results obtained with NWChem:

                 M. Valiev, E.J. Bylaska, N. Govind, K. Kowalski,
              T.P. Straatsma, H.J.J. van Dam, D. Wang, J. Nieplocha,
                        E. Apra, T.L. Windus, W.A. de Jong
                 "NWChem: a comprehensive and scalable open-source
                  solution for large scale molecular simulations"
                      Comput. Phys. Commun. 181, 1477 (2010)
                           doi:10.1016/j.cpc.2010.04.018

                                      AUTHORS
                                      -------
          E. Apra, E. J. Bylaska, W. A. de Jong, N. Govind, K. Kowalski,
       T. P. Straatsma, M. Valiev, H. J. J. van Dam, D. Wang, T. L. Windus,
        J. Hammond, J. Autschbach, K. Bhaskaran-Nair, J. Brabec, K. Lopata,
    S. A. Fischer, S. Krishnamoorthy, M. Jacquelin, W. Ma, M. Klemm, O. Villa,
      Y. Chen, V. Anisimov, F. Aquino, S. Hirata, M. T. Hackler, V. Konjkov,
            D. Mejia-Rodriguez, T. Risthaus, M. Malagoli, A. Marenich,
   A. Otero-de-la-Roza, J. Mullin, P. Nichols, R. Peverati, J. Pittner, Y. Zhao,
        P.-D. Fan, A. Fonari, M. J. Williamson, R. J. Harrison, J. R. Rehr,
      M. Dupuis, D. Silverstein, D. M. A. Smith, J. Nieplocha, V. Tipparaju,
    M. Krishnan, B. E. Van Kuiken, A. Vazquez-Mayagoitia, L. Jensen, M. Swart,
      Q. Wu, T. Van Voorhis, A. A. Auer, M. Nooijen, L. D. Crosby, E. Brown,
      G. Cisneros, G. I. Fann, H. Fruchtl, J. Garza, K. Hirao, R. A. Kendall,
      J. A. Nichols, K. Tsemekhman, K. Wolinski, J. Anchell, D. E. Bernholdt,
      P. Borowski, T. Clark, D. Clerc, H. Dachsel, M. J. O. Deegan, K. Dyall,
    D. Elwood, E. Glendening, M. Gutowski, A. C. Hess, J. Jaffe, B. G. Johnson,
     J. Ju, R. Kobayashi, R. Kutteh, Z. Lin, R. Littlefield, X. Long, B. Meng,
      T. Nakajima, S. Niu, L. Pollack, M. Rosing, K. Glaesemann, G. Sandrone,
      M. Stave, H. Taylor, G. Thomas, J. H. van Lenthe, A. T. Wong, Z. Zhang.

 Total times  cpu:        0.4s     wall:        0.5s
[0] ARMCI Warning: Freed 1 leaked allocations
