 argument  1 = /home/list1234/source/nwchem-6.8.1-release/QA/tests/o2_bnl/o2_bnl.nw



============================== echo of input deck ==============================
echo
start o2_bnl

geometry units angstrom
O        0.0000000000      0.0000000000      0.60066850000
O        0.0000000000      0.0000000000     -0.60066850000
symmetry c1
end

basis spherical
 * library "cc-pVTZ"
end

BASIS "cd basis" print
O    S
          9.57843253E+02         0.56249624
          2.81967425E+02         1.49108985
          9.01998320E+01         3.86547733
O    S
          3.11382990E+01         3.60577725
O    S
          1.14937320E+01         0.23005858
O    S
          4.48404900E+00        -0.05015769
O    S
          1.82350400E+00         1.05070463
O    S
          7.60903000E-01         0.58565488
O    S
          3.20292000E-01         0.07499129
O    P
          6.14708863E-01        -0.08557844
O    P
          1.47530127E+00         0.04179996
O    P
          3.69562968E+00        -0.05855108
O    D
          7.65267200E+00         0.09106873
O    D
          2.21786800E+00         0.11163134
O    D
          6.82337000E-01         0.04600666
O    F
          2.19178082E+00         1.00000000
END

set int:cando_txs f

dft
 direct
 xc xbnl07 0.90 lyp 1.00 hfexch 1.00
 cam 0.5 cam_alpha 0.0 cam_beta 1.0
 odft
 mult 3
end
task dft energy

driver
 clear
 maxiter 100
end
task dft optimize
================================================================================


                                         
                                         


              Northwest Computational Chemistry Package (NWChem) 6.8
              ------------------------------------------------------


                    Environmental Molecular Sciences Laboratory
                       Pacific Northwest National Laboratory
                                Richland, WA 99352

                              Copyright (c) 1994-2018
                       Pacific Northwest National Laboratory
                            Battelle Memorial Institute

             NWChem is an open-source computational chemistry package
                        distributed under the terms of the
                      Educational Community License (ECL) 2.0
             A copy of the license is included with this distribution
                              in the LICENSE.TXT file

                                  ACKNOWLEDGMENT
                                  --------------

            This software and its documentation were developed at the
            EMSL at Pacific Northwest National Laboratory, a multiprogram
            national laboratory, operated for the U.S. Department of Energy
            by Battelle under Contract Number DE-AC05-76RL01830. Support
            for this work was provided by the Department of Energy Office
            of Biological and Environmental Research, Office of Basic
            Energy Sciences, and the Office of Advanced Scientific Computing.


           Job information
           ---------------

    hostname        = list1234-B360M-H
    program         = /home/list1234/source/nwchem-6.8.1-release/bin/LINUX64/nwchem
    date            = Sun Jun 30 13:51:56 2019

    compiled        = Sun_Jun_30_11:55:59_2019
    source          = /home/list1234/source/nwchem-6.8.1-release
    nwchem branch   = Development
    nwchem revision = N/A
    ga revision     = 5.6.5
    use scalapack   = T
    input           = /home/list1234/source/nwchem-6.8.1-release/QA/tests/o2_bnl/o2_bnl.nw
    prefix          = o2_bnl.
    data base       = ./o2_bnl.db
    status          = startup
    nproc           =        4
    time left       =     -1s



           Memory information
           ------------------

    heap     =   86247162 doubles =    658.0 Mbytes
    stack    =   86247167 doubles =    658.0 Mbytes
    global   =  172494336 doubles =   1316.0 Mbytes (distinct from heap & stack)
    total    =  344988665 doubles =   2632.1 Mbytes
    verify   = yes
    hardfail = no 


           Directory information
           ---------------------

  0 permanent = .
  0 scratch   = .




                                NWChem Input Module
                                -------------------



 Scaling coordinates for geometry "geometry" by  1.889725989
 (inverse scale =  0.529177249)

 Turning off AUTOSYM since
 SYMMETRY directive was detected!


          ------
          auto-z
          ------
  no constraints, skipping    0.0000000000000000     
  no constraints, skipping    0.0000000000000000     


                             Geometry "geometry" -> ""
                             -------------------------

 Output coordinates in angstroms (scale by  1.889725989 to convert to a.u.)

  No.       Tag          Charge          X              Y              Z
 ---- ---------------- ---------- -------------- -------------- --------------
    1 O                    8.0000     0.00000000     0.00000000     0.60066850
    2 O                    8.0000     0.00000000     0.00000000    -0.60066850

      Atomic Mass 
      ----------- 

      O                 15.994910


 Effective nuclear repulsion energy (a.u.)      28.1913767211

            Nuclear Dipole moment (a.u.) 
            ----------------------------
        X                 Y               Z
 ---------------- ---------------- ----------------
     0.0000000000     0.0000000000     0.0000000000



                                Z-matrix (autoz)
                                -------- 

 Units are Angstrom for bonds and degrees for angles

      Type          Name      I     J     K     L     M      Value
      ----------- --------  ----- ----- ----- ----- ----- ----------
    1 Stretch                  1     2                       1.20134


            XYZ format geometry
            -------------------
     2
 geometry
 O                     0.00000000     0.00000000     0.60066850
 O                     0.00000000     0.00000000    -0.60066850

 ==============================================================================
                                internuclear distances
 ------------------------------------------------------------------------------
       center one      |      center two      | atomic units |  angstroms
 ------------------------------------------------------------------------------
    2 O                |   1 O                |     2.27020  |     1.20134
 ------------------------------------------------------------------------------
                         number of included internuclear distances:          1
 ==============================================================================





 Summary of "ao basis" -> "" (spherical)
 ------------------------------------------------------------------------------
       Tag                 Description            Shells   Functions and Types
 ---------------- ------------------------------  ------  ---------------------
 *                          cc-pVTZ                   on all atoms 


                      Basis "cd basis" -> "" (cartesian)
                      -----
  O (Oxygen)
  ----------
            Exponent  Coefficients 
       -------------- ---------------------------------------------------------
  1 S  9.57843253E+02  0.562496
  1 S  2.81967425E+02  1.491090
  1 S  9.01998320E+01  3.865477

  2 S  3.11382990E+01  3.605777

  3 S  1.14937320E+01  0.230059

  4 S  4.48404900E+00 -0.050158

  5 S  1.82350400E+00  1.050705

  6 S  7.60903000E-01  0.585655

  7 S  3.20292000E-01  0.074991

  8 P  6.14708863E-01 -0.085578

  9 P  1.47530127E+00  0.041800

 10 P  3.69562968E+00 -0.058551

 11 D  7.65267200E+00  0.091069

 12 D  2.21786800E+00  0.111631

 13 D  6.82337000E-01  0.046007

 14 F  2.19178082E+00  1.000000



 Summary of "cd basis" -> "" (cartesian)
 ------------------------------------------------------------------------------
       Tag                 Description            Shells   Functions and Types
 ---------------- ------------------------------  ------  ---------------------
 O                       user specified             14       44   7s3p3d1f



                                 NWChem DFT Module
                                 -----------------


                      Basis "ao basis" -> "ao basis" (spherical)
                      -----
  O (Oxygen)
  ----------
            Exponent  Coefficients 
       -------------- ---------------------------------------------------------
  1 S  1.53300000E+04  0.000508
  1 S  2.29900000E+03  0.003929
  1 S  5.22400000E+02  0.020243
  1 S  1.47300000E+02  0.079181
  1 S  4.75500000E+01  0.230687
  1 S  1.67600000E+01  0.433118
  1 S  6.20700000E+00  0.350260
  1 S  6.88200000E-01 -0.008154

  2 S  1.53300000E+04 -0.000115
  2 S  2.29900000E+03 -0.000895
  2 S  5.22400000E+02 -0.004636
  2 S  1.47300000E+02 -0.018724
  2 S  4.75500000E+01 -0.058463
  2 S  1.67600000E+01 -0.136463
  2 S  6.20700000E+00 -0.175740
  2 S  6.88200000E-01  0.603418

  3 S  1.75200000E+00  1.000000

  4 S  2.38400000E-01  1.000000

  5 P  3.44600000E+01  0.015928
  5 P  7.74900000E+00  0.099740
  5 P  2.28000000E+00  0.310492

  6 P  7.15600000E-01  1.000000

  7 P  2.14000000E-01  1.000000

  8 D  2.31400000E+00  1.000000

  9 D  6.45000000E-01  1.000000

 10 F  1.42800000E+00  1.000000



 Summary of "ao basis" -> "ao basis" (spherical)
 ------------------------------------------------------------------------------
       Tag                 Description            Shells   Functions and Types
 ---------------- ------------------------------  ------  ---------------------
 O                          cc-pVTZ                 10       30   4s3p2d1f


  int_init: cando_txs set to always be  F


 Summary of "ao basis" -> "ao basis" (spherical)
 ------------------------------------------------------------------------------
       Tag                 Description            Shells   Functions and Types
 ---------------- ------------------------------  ------  ---------------------
 O                          cc-pVTZ                 10       30   4s3p2d1f


  int_init: cando_txs set to always be  F
  Caching 1-el integrals 

            General Information
            -------------------
          SCF calculation type: DFT
          Wavefunction type:  spin polarized.
          No. of atoms     :     2
          No. of electrons :    16
           Alpha electrons :     9
            Beta electrons :     7
          Charge           :     0
          Spin multiplicity:     3
          Use of symmetry is: off; symmetry adaption is: off
          Maximum number of iterations:  30
          This is a Direct SCF calculation.
          AO basis - number of functions:    60
                     number of shells:    20
          A Charge density fitting basis will be used.
          CD basis - number of functions:    88
                     number of shells:    28
          Convergence on energy requested:  1.00D-06
          Convergence on density requested:  1.00D-05
          Convergence on gradient requested:  5.00D-04

              XC Information
              --------------
                     Hartree-Fock (Exact) Exchange  1.000          
                   LC-BNL 2007 Exchange Functional  0.900 local    
              Lee-Yang-Parr Correlation Functional  1.000          

           Range-Separation Parameters        
           ---------------------------
           Alpha           :  0.00
           Beta            :  1.00
           Gamma           :  0.50
           Short-Range HF  :     F

             Grid Information
             ----------------
          Grid used for XC integration:  medium    
          Radial quadrature: Mura-Knowles        
          Angular quadrature: Lebedev. 
          Tag              B.-S. Rad. Rad. Pts. Rad. Cut. Ang. Pts.
          ---              ---------- --------- --------- ---------
          O                   0.60       49           5.0       434
          Grid pruning is: on 
          Number of quadrature shells:    98
          Spatial weights used:  Erf1

          Convergence Information
          -----------------------
          Convergence aids based upon iterative change in 
          total energy or number of iterations. 
          Levelshifting, if invoked, occurs when the 
          HOMO/LUMO gap drops below (HL_TOL):  1.00D-02
          DIIS, if invoked, will attempt to extrapolate 
          using up to (NFOCK): 10 stored Fock matrices.

                    Damping( 0%)  Levelshifting(0.5)       DIIS
                  --------------- ------------------- ---------------
          dE  on:    start            ASAP                start   
          dE off:    2 iters         30 iters            30 iters 


      Screening Tolerance Information
      -------------------------------
          Density screening/tol_rho:  1.00D-10
          AO Gaussian exp screening on grid/accAOfunc:  14
          CD Gaussian exp screening on grid/accCDfunc:  20
          XC Gaussian exp screening on grid/accXCfunc:  20
          Schwarz screening/accCoul:  1.00D-08


      Superposition of Atomic Density Guess
      -------------------------------------

 Sum of atomic energies:        -149.56133901

      Non-variational initial energy
      ------------------------------

 Total energy =    -149.655664
 1-e energy   =    -262.423929
 2-e energy   =      84.576889
 HOMO         =      -0.194544
 LUMO         =      -0.194544

   Time after variat. SCF:      0.1

      3 Center 2 Electron Integral Information
      ----------------------------------------
          Maximum number of 3-center 2e- integrals is:          316800.
            This is reduced with Schwarz screening to:          323400.
            Incore requires a per proc buffer size of:           79201.
          Minimum dble words available (all nodes) is:       172492596
                   This is reduced (for later use) to:       172228367
                      proc 0 Suggested buffer size is:           79201
                         Max Suggested buffer size is:           79201
                              no. integral batches is:            1000

          Incore memory use for 3-center 2e- integrals is turned off. 
   Time prior to 1st pass:      0.1

 Grid_pts file          = ./o2_bnl.gridpts.0
 Record size in doubles =  12289        No. of grid_pts per rec  =   3070
 Max. records in memory =      5        Max. recs in file   =    862023


           Memory utilization after 1st SCF pass: 
           Heap Space remaining (MW):       86.18            86184578
          Stack Space remaining (MW):       86.25            86246508

   convergence    iter        energy       DeltaE   RMS-Dens  Diis-err    time
 ---------------- ----- ----------------- --------- --------- ---------  ------
 d= 0,ls=0.0,diis     1   -147.9443047923 -1.76D+02  3.29D-03  5.33D-01     0.3
                                                     2.36D-03  4.40D-01
 d= 0,ls=0.0,diis     2   -147.9896784790 -4.54D-02  8.28D-04  1.41D-02     0.5
                                                     9.84D-04  1.65D-02
 d= 0,ls=0.0,diis     3   -147.9935985197 -3.92D-03  4.29D-04  3.72D-03     0.7
                                                     1.68D-04  1.65D-03
 d= 0,ls=0.0,diis     4   -147.9943898572 -7.91D-04  6.90D-05  1.58D-05     0.9
                                                     9.32D-05  7.36D-05
 d= 0,ls=0.0,diis     5   -147.9944202121 -3.04D-05  3.10D-05  3.07D-06     1.1
                                                     2.72D-05  2.34D-06
  Resetting Diis
 d= 0,ls=0.0,diis     6   -147.9944224188 -2.21D-06  3.94D-06  5.50D-08     1.3
                                                     4.15D-06  8.08D-08
 d= 0,ls=0.0,diis     7   -147.9944224709 -5.21D-08  4.33D-07  1.38D-09     1.5
                                                     1.93D-07  3.93D-10


         Total DFT energy =     -147.994422470925
      One electron energy =     -261.385379436189
           Coulomb energy =       99.699333724413
    Exchange-Corr. energy =      -14.499753480236
 Nuclear repulsion energy =       28.191376721087

 Numeric. integr. density =       16.000000464214

     Total iterative time =      1.4s



                    DFT Final Alpha Molecular Orbital Analysis
                    ------------------------------------------

 Vector    1  Occ=1.000000D+00  E=-1.883218D+01
              MO Center=  2.2D-17, -5.5D-18,  7.5D-04, r^2= 3.8D-01
   Bfn.  Coefficient  Atom+Function         Bfn.  Coefficient  Atom+Function  
  ----- ------------  ---------------      ----- ------------  ---------------
     1      0.670736  1 O  s                 31     -0.669895  2 O  s          
     3      0.053585  1 O  s                 33     -0.053522  2 O  s          

 Vector    2  Occ=1.000000D+00  E=-1.883200D+01
              MO Center= -2.9D-17,  1.6D-17, -7.5D-04, r^2= 3.8D-01
   Bfn.  Coefficient  Atom+Function         Bfn.  Coefficient  Atom+Function  
  ----- ------------  ---------------      ----- ------------  ---------------
     1      0.674561  1 O  s                 31      0.675397  2 O  s          
     3      0.050454  1 O  s                 33      0.050520  2 O  s          

 Vector    3  Occ=1.000000D+00  E=-1.454409D+00
              MO Center=  9.5D-16,  5.6D-16,  6.9D-08, r^2= 4.7D-01
   Bfn.  Coefficient  Atom+Function         Bfn.  Coefficient  Atom+Function  
  ----- ------------  ---------------      ----- ------------  ---------------
     2      0.351574  1 O  s                 32      0.351574  2 O  s          
     4      0.163228  1 O  s                 34      0.163228  2 O  s          
    10     -0.116089  1 O  pz                40      0.116089  2 O  pz         
     7     -0.102112  1 O  pz                37      0.102112  2 O  pz         
     3      0.094810  1 O  s                 33      0.094810  2 O  s          

 Vector    4  Occ=1.000000D+00  E=-9.631442D-01
              MO Center= -8.9D-17,  9.8D-16,  1.4D-07, r^2= 1.1D+00
   Bfn.  Coefficient  Atom+Function         Bfn.  Coefficient  Atom+Function  
  ----- ------------  ---------------      ----- ------------  ---------------
     2      0.398251  1 O  s                 32     -0.398251  2 O  s          
     4      0.338984  1 O  s                 34     -0.338984  2 O  s          
     3      0.111776  1 O  s                 33     -0.111776  2 O  s          
     7      0.082393  1 O  pz                37      0.082393  2 O  pz         
    10      0.080111  1 O  pz                40      0.080110  2 O  pz         

 Vector    5  Occ=1.000000D+00  E=-7.090356D-01
              MO Center= -5.7D-17, -6.9D-15,  2.1D-07, r^2= 8.4D-01
   Bfn.  Coefficient  Atom+Function         Bfn.  Coefficient  Atom+Function  
  ----- ------------  ---------------      ----- ------------  ---------------
     9      0.313005  1 O  py                39      0.313004  2 O  py         
     6      0.265330  1 O  py                36      0.265330  2 O  py         
    12      0.191945  1 O  py                42      0.191945  2 O  py         
    20     -0.025784  1 O  d -1              50      0.025784  2 O  d -1       

 Vector    6  Occ=1.000000D+00  E=-7.090356D-01
              MO Center= -9.6D-15, -1.8D-16,  2.1D-07, r^2= 8.4D-01
   Bfn.  Coefficient  Atom+Function         Bfn.  Coefficient  Atom+Function  
  ----- ------------  ---------------      ----- ------------  ---------------
     8      0.313005  1 O  px                38      0.313004  2 O  px         
     5      0.265330  1 O  px                35      0.265330  2 O  px         
    11      0.191945  1 O  px                41      0.191945  2 O  px         
    22      0.025784  1 O  d  1              52     -0.025784  2 O  d  1       

 Vector    7  Occ=1.000000D+00  E=-6.838898D-01
              MO Center=  8.6D-15,  6.3D-15, -1.8D-07, r^2= 1.1D+00
   Bfn.  Coefficient  Atom+Function         Bfn.  Coefficient  Atom+Function  
  ----- ------------  ---------------      ----- ------------  ---------------
    10      0.304013  1 O  pz                40     -0.304013  2 O  pz         
     7      0.266739  1 O  pz                37     -0.266739  2 O  pz         
     4      0.241214  1 O  s                 34      0.241214  2 O  s          
    13      0.167220  1 O  pz                43     -0.167220  2 O  pz         
     2      0.118969  1 O  s                 32      0.118969  2 O  s          

 Vector    8  Occ=1.000000D+00  E=-4.324338D-01
              MO Center=  4.1D-17, -6.8D-16, -2.1D-07, r^2= 9.7D-01
   Bfn.  Coefficient  Atom+Function         Bfn.  Coefficient  Atom+Function  
  ----- ------------  ---------------      ----- ------------  ---------------
     9      0.361482  1 O  py                39     -0.361482  2 O  py         
    12      0.339418  1 O  py                42     -0.339418  2 O  py         
     6      0.307629  1 O  py                36     -0.307629  2 O  py         

 Vector    9  Occ=1.000000D+00  E=-4.324338D-01
              MO Center=  4.5D-16, -1.1D-16, -2.1D-07, r^2= 9.7D-01
   Bfn.  Coefficient  Atom+Function         Bfn.  Coefficient  Atom+Function  
  ----- ------------  ---------------      ----- ------------  ---------------
     8      0.361482  1 O  px                38     -0.361482  2 O  px         
    11      0.339418  1 O  px                41     -0.339418  2 O  px         
     5      0.307629  1 O  px                35     -0.307629  2 O  px         

 Vector   10  Occ=0.000000D+00  E= 3.270424D-01
              MO Center= -7.7D-17,  2.7D-16,  7.4D-09, r^2= 2.1D+00
   Bfn.  Coefficient  Atom+Function         Bfn.  Coefficient  Atom+Function  
  ----- ------------  ---------------      ----- ------------  ---------------
     4      1.871244  1 O  s                 34     -1.871244  2 O  s          
    13     -1.491052  1 O  pz                43     -1.491052  2 O  pz         
    10     -0.341358  1 O  pz                40     -0.341358  2 O  pz         
     2      0.238064  1 O  s                 32     -0.238064  2 O  s          
     7     -0.220174  1 O  pz                37     -0.220174  2 O  pz         

 Vector   11  Occ=0.000000D+00  E= 6.256274D-01
              MO Center=  3.9D-17,  1.4D-15,  3.0D-07, r^2= 2.1D+00
   Bfn.  Coefficient  Atom+Function         Bfn.  Coefficient  Atom+Function  
  ----- ------------  ---------------      ----- ------------  ---------------
    12      0.703406  1 O  py                42      0.703406  2 O  py         
     9     -0.508487  1 O  py                39     -0.508487  2 O  py         
     6     -0.183368  1 O  py                36     -0.183368  2 O  py         
    20      0.055385  1 O  d -1              50     -0.055385  2 O  d -1       

 Vector   12  Occ=0.000000D+00  E= 6.256274D-01
              MO Center= -2.8D-15, -2.7D-16,  3.0D-07, r^2= 2.1D+00
   Bfn.  Coefficient  Atom+Function         Bfn.  Coefficient  Atom+Function  
  ----- ------------  ---------------      ----- ------------  ---------------
    11      0.703406  1 O  px                41      0.703406  2 O  px         
     8     -0.508487  1 O  px                38     -0.508487  2 O  px         
     5     -0.183368  1 O  px                35     -0.183368  2 O  px         
    22     -0.055385  1 O  d  1              52      0.055385  2 O  d  1       

 Vector   13  Occ=0.000000D+00  E= 6.308500D-01
              MO Center=  3.6D-16,  1.0D-15,  1.3D-06, r^2= 2.5D+00
   Bfn.  Coefficient  Atom+Function         Bfn.  Coefficient  Atom+Function  
  ----- ------------  ---------------      ----- ------------  ---------------
     4      2.036083  1 O  s                 34     -2.036084  2 O  s          
    13     -1.756410  1 O  pz                43     -1.756409  2 O  pz         
     7      0.323911  1 O  pz                37      0.323911  2 O  pz         
    10      0.321806  1 O  pz                40      0.321805  2 O  pz         
    21      0.304190  1 O  d  0              51     -0.304190  2 O  d  0       

 Vector   14  Occ=0.000000D+00  E= 6.680029D-01
              MO Center= -9.3D-16, -7.5D-16, -1.3D-06, r^2= 3.0D+00
   Bfn.  Coefficient  Atom+Function         Bfn.  Coefficient  Atom+Function  
  ----- ------------  ---------------      ----- ------------  ---------------
    13      1.015362  1 O  pz                43     -1.015364  2 O  pz         
    10     -0.468691  1 O  pz                40      0.468691  2 O  pz         
     4      0.349510  1 O  s                 34      0.349508  2 O  s          
     7     -0.127983  1 O  pz                37      0.127983  2 O  pz         
     2     -0.047859  1 O  s                 32     -0.047859  2 O  s          

 Vector   15  Occ=0.000000D+00  E= 7.411535D-01
              MO Center= -7.4D-17, -3.6D-15, -3.0D-07, r^2= 2.7D+00
   Bfn.  Coefficient  Atom+Function         Bfn.  Coefficient  Atom+Function  
  ----- ------------  ---------------      ----- ------------  ---------------
    12      1.296201  1 O  py                42     -1.296201  2 O  py         
     9     -0.493010  1 O  py                39      0.493010  2 O  py         
     6     -0.183555  1 O  py                36      0.183555  2 O  py         
    20     -0.051865  1 O  d -1              50     -0.051865  2 O  d -1       

 Vector   16  Occ=0.000000D+00  E= 7.411535D-01
              MO Center= -1.6D-15, -1.2D-16, -3.0D-07, r^2= 2.7D+00
   Bfn.  Coefficient  Atom+Function         Bfn.  Coefficient  Atom+Function  
  ----- ------------  ---------------      ----- ------------  ---------------
    11      1.296201  1 O  px                41     -1.296201  2 O  px         
     8     -0.493010  1 O  px                38      0.493010  2 O  px         
     5     -0.183555  1 O  px                35      0.183555  2 O  px         
    22      0.051865  1 O  d  1              52      0.051865  2 O  d  1       

 Vector   17  Occ=0.000000D+00  E= 8.020368D-01
              MO Center=  4.6D-15, -3.6D-16, -2.7D-08, r^2= 1.5D+00
   Bfn.  Coefficient  Atom+Function         Bfn.  Coefficient  Atom+Function  
  ----- ------------  ---------------      ----- ------------  ---------------
     4     -0.938094  1 O  s                 34     -0.938093  2 O  s          
     2      0.933137  1 O  s                 32      0.933137  2 O  s          
     1      0.324222  1 O  s                 31      0.324222  2 O  s          
     3      0.174835  1 O  s                 33      0.174835  2 O  s          
    21      0.135954  1 O  d  0              51      0.135954  2 O  d  0       

 Vector   18  Occ=0.000000D+00  E= 1.344682D+00
              MO Center=  2.2D-15,  3.3D-15, -3.9D-08, r^2= 2.2D+00
   Bfn.  Coefficient  Atom+Function         Bfn.  Coefficient  Atom+Function  
  ----- ------------  ---------------      ----- ------------  ---------------
     4      5.447996  1 O  s                 34     -5.447996  2 O  s          
    13     -2.405903  1 O  pz                43     -2.405903  2 O  pz         
     2     -1.110908  1 O  s                 32      1.110908  2 O  s          
    10     -0.525401  1 O  pz                40     -0.525401  2 O  pz         
     1     -0.397173  1 O  s                 31      0.397173  2 O  s          

 Vector   19  Occ=0.000000D+00  E= 1.351217D+00
              MO Center= -3.0D-16,  3.7D-16,  8.7D-08, r^2= 1.0D+00
   Bfn.  Coefficient  Atom+Function         Bfn.  Coefficient  Atom+Function  
  ----- ------------  ---------------      ----- ------------  ---------------
    19      0.648028  1 O  d -2              49      0.648028  2 O  d -2       

 Vector   20  Occ=0.000000D+00  E= 1.351217D+00
              MO Center= -1.1D-16,  7.9D-16,  8.7D-08, r^2= 1.0D+00
   Bfn.  Coefficient  Atom+Function         Bfn.  Coefficient  Atom+Function  
  ----- ------------  ---------------      ----- ------------  ---------------
    23      0.648028  1 O  d  2              53      0.648028  2 O  d  2       

 Vector   21  Occ=0.000000D+00  E= 1.435919D+00
              MO Center=  1.5D-16, -1.6D-15,  3.2D-08, r^2= 1.1D+00
   Bfn.  Coefficient  Atom+Function         Bfn.  Coefficient  Atom+Function  
  ----- ------------  ---------------      ----- ------------  ---------------
    20      0.593881  1 O  d -1              50     -0.593881  2 O  d -1       
     9      0.135211  1 O  py                39      0.135211  2 O  py         
     6      0.095446  1 O  py                36      0.095446  2 O  py         

 Vector   22  Occ=0.000000D+00  E= 1.435919D+00
              MO Center=  1.3D-17,  3.4D-16,  3.2D-08, r^2= 1.1D+00
   Bfn.  Coefficient  Atom+Function         Bfn.  Coefficient  Atom+Function  
  ----- ------------  ---------------      ----- ------------  ---------------
    22      0.593881  1 O  d  1              52     -0.593881  2 O  d  1       
     8     -0.135211  1 O  px                38     -0.135211  2 O  px         
     5     -0.095446  1 O  px                35     -0.095446  2 O  px         

 Vector   23  Occ=0.000000D+00  E= 1.761370D+00
              MO Center=  4.0D-16,  3.1D-16, -8.5D-08, r^2= 1.2D+00
   Bfn.  Coefficient  Atom+Function         Bfn.  Coefficient  Atom+Function  
  ----- ------------  ---------------      ----- ------------  ---------------
    19      0.783425  1 O  d -2              49     -0.783425  2 O  d -2       

 Vector   24  Occ=0.000000D+00  E= 1.761370D+00
              MO Center=  3.3D-16,  7.4D-17, -8.5D-08, r^2= 1.2D+00
   Bfn.  Coefficient  Atom+Function         Bfn.  Coefficient  Atom+Function  
  ----- ------------  ---------------      ----- ------------  ---------------
    23      0.783425  1 O  d  2              53     -0.783425  2 O  d  2       

 Vector   25  Occ=0.000000D+00  E= 2.251795D+00
              MO Center= -5.8D-17, -1.1D-16,  1.7D-06, r^2= 1.5D+00
   Bfn.  Coefficient  Atom+Function         Bfn.  Coefficient  Atom+Function  
  ----- ------------  ---------------      ----- ------------  ---------------
    21      0.844317  1 O  d  0              51      0.844314  2 O  d  0       
     2     -0.654340  1 O  s                 32     -0.654341  2 O  s          
    13     -0.640876  1 O  pz                43      0.640872  2 O  pz         
    10      0.498647  1 O  pz                40     -0.498649  2 O  pz         
     4      0.326015  1 O  s                 34      0.326007  2 O  s          

 Vector   26  Occ=0.000000D+00  E= 2.276662D+00
              MO Center= -1.2D-14,  2.2D-15, -1.7D-06, r^2= 1.9D+00
   Bfn.  Coefficient  Atom+Function         Bfn.  Coefficient  Atom+Function  
  ----- ------------  ---------------      ----- ------------  ---------------
     4      4.262539  1 O  s                 34     -4.262540  2 O  s          
    13     -2.138449  1 O  pz                43     -2.138450  2 O  pz         
    21      1.510310  1 O  d  0              51     -1.510311  2 O  d  0       
    10     -0.976821  1 O  pz                40     -0.976820  2 O  pz         
     7     -0.255337  1 O  pz                37     -0.255337  2 O  pz         

 Vector   27  Occ=0.000000D+00  E= 2.320944D+00
              MO Center=  2.7D-16, -2.5D-15, -2.3D-08, r^2= 1.5D+00
   Bfn.  Coefficient  Atom+Function         Bfn.  Coefficient  Atom+Function  
  ----- ------------  ---------------      ----- ------------  ---------------
    20      1.154968  1 O  d -1              50      1.154968  2 O  d -1       
    12     -0.645155  1 O  py                42      0.645155  2 O  py         
     6     -0.117313  1 O  py                36      0.117313  2 O  py         
     9     -0.032049  1 O  py                39      0.032049  2 O  py         

 Vector   28  Occ=0.000000D+00  E= 2.320944D+00
              MO Center=  1.3D-14, -2.3D-17, -2.3D-08, r^2= 1.5D+00
   Bfn.  Coefficient  Atom+Function         Bfn.  Coefficient  Atom+Function  
  ----- ------------  ---------------      ----- ------------  ---------------
    22      1.154968  1 O  d  1              52      1.154968  2 O  d  1       
    11      0.645155  1 O  px                41     -0.645155  2 O  px         
     5      0.117313  1 O  px                35     -0.117313  2 O  px         
     8      0.032049  1 O  px                38     -0.032049  2 O  px         

 Vector   29  Occ=0.000000D+00  E= 3.545711D+00
              MO Center= -5.3D-17,  4.4D-16,  1.9D-07, r^2= 9.6D-01
   Bfn.  Coefficient  Atom+Function         Bfn.  Coefficient  Atom+Function  
  ----- ------------  ---------------      ----- ------------  ---------------
     9      0.987438  1 O  py                39      0.987438  2 O  py         
     6     -0.856190  1 O  py                36     -0.856189  2 O  py         
    12     -0.361948  1 O  py                42     -0.361948  2 O  py         
    20      0.100869  1 O  d -1              50     -0.100869  2 O  d -1       
    26      0.037256  1 O  f -1              56      0.037256  2 O  f -1       

 Vector   30  Occ=0.000000D+00  E= 3.545711D+00
              MO Center= -1.1D-15, -2.2D-16,  1.9D-07, r^2= 9.6D-01
   Bfn.  Coefficient  Atom+Function         Bfn.  Coefficient  Atom+Function  
  ----- ------------  ---------------      ----- ------------  ---------------
     8      0.987438  1 O  px                38      0.987438  2 O  px         
     5     -0.856190  1 O  px                35     -0.856189  2 O  px         
    11     -0.361948  1 O  px                41     -0.361948  2 O  px         
    22     -0.100869  1 O  d  1              52      0.100869  2 O  d  1       
    28     -0.037256  1 O  f  1              58     -0.037256  2 O  f  1       

 Vector   31  Occ=0.000000D+00  E= 3.709679D+00
              MO Center=  4.5D-16, -1.2D-16,  3.0D-08, r^2= 9.2D-01
   Bfn.  Coefficient  Atom+Function         Bfn.  Coefficient  Atom+Function  
  ----- ------------  ---------------      ----- ------------  ---------------
    10     -0.901851  1 O  pz                40      0.901851  2 O  pz         
     7      0.837394  1 O  pz                37     -0.837394  2 O  pz         
    13      0.463915  1 O  pz                43     -0.463915  2 O  pz         
    27      0.187164  1 O  f  0              57     -0.187164  2 O  f  0       
     4      0.078426  1 O  s                 34      0.078426  2 O  s          

 Vector   32  Occ=0.000000D+00  E= 3.834174D+00
              MO Center=  4.7D-17, -1.0D-15, -2.0D-07, r^2= 9.0D-01
   Bfn.  Coefficient  Atom+Function         Bfn.  Coefficient  Atom+Function  
  ----- ------------  ---------------      ----- ------------  ---------------
     9      1.098020  1 O  py                39     -1.098020  2 O  py         
     6     -0.845722  1 O  py                36      0.845722  2 O  py         
    12     -0.492822  1 O  py                42      0.492822  2 O  py         
    20     -0.191184  1 O  d -1              50     -0.191184  2 O  d -1       
    26     -0.118150  1 O  f -1              56      0.118149  2 O  f -1       

 Vector   33  Occ=0.000000D+00  E= 3.834174D+00
              MO Center=  1.3D-15, -3.0D-16, -2.0D-07, r^2= 9.0D-01
   Bfn.  Coefficient  Atom+Function         Bfn.  Coefficient  Atom+Function  
  ----- ------------  ---------------      ----- ------------  ---------------
     8      1.098020  1 O  px                38     -1.098020  2 O  px         
     5     -0.845722  1 O  px                35      0.845722  2 O  px         
    11     -0.492822  1 O  px                41      0.492822  2 O  px         
    22      0.191184  1 O  d  1              52      0.191184  2 O  d  1       
    28      0.118150  1 O  f  1              58     -0.118149  2 O  f  1       

 Vector   34  Occ=0.000000D+00  E= 4.716215D+00
              MO Center=  1.1D-15, -4.3D-15,  3.7D-08, r^2= 8.2D-01
   Bfn.  Coefficient  Atom+Function         Bfn.  Coefficient  Atom+Function  
  ----- ------------  ---------------      ----- ------------  ---------------
    25      0.660326  1 O  f -2              55     -0.660326  2 O  f -2       
    19      0.090939  1 O  d -2              49      0.090939  2 O  d -2       

 Vector   35  Occ=0.000000D+00  E= 4.716215D+00
              MO Center=  3.1D-16, -2.7D-16,  3.7D-08, r^2= 8.2D-01
   Bfn.  Coefficient  Atom+Function         Bfn.  Coefficient  Atom+Function  
  ----- ------------  ---------------      ----- ------------  ---------------
    29      0.660326  1 O  f  2              59     -0.660326  2 O  f  2       
    23      0.090939  1 O  d  2              53      0.090939  2 O  d  2       

 Vector   36  Occ=0.000000D+00  E= 4.791099D+00
              MO Center= -2.3D-16,  1.1D-16,  6.5D-09, r^2= 7.5D-01
   Bfn.  Coefficient  Atom+Function         Bfn.  Coefficient  Atom+Function  
  ----- ------------  ---------------      ----- ------------  ---------------
    26      0.602509  1 O  f -1              56      0.602509  2 O  f -1       
    15     -0.235062  1 O  d -1              45      0.235062  2 O  d -1       
     9     -0.183512  1 O  py                39     -0.183512  2 O  py         
    20      0.179064  1 O  d -1              50     -0.179064  2 O  d -1       
    12      0.094114  1 O  py                42      0.094114  2 O  py         

 Vector   37  Occ=0.000000D+00  E= 4.791099D+00
              MO Center=  4.8D-16,  3.7D-15,  6.5D-09, r^2= 7.5D-01
   Bfn.  Coefficient  Atom+Function         Bfn.  Coefficient  Atom+Function  
  ----- ------------  ---------------      ----- ------------  ---------------
    28      0.602509  1 O  f  1              58      0.602509  2 O  f  1       
    17     -0.235062  1 O  d  1              47      0.235062  2 O  d  1       
     8      0.183512  1 O  px                38      0.183512  2 O  px         
    22      0.179064  1 O  d  1              52     -0.179064  2 O  d  1       
    11     -0.094114  1 O  px                41     -0.094114  2 O  px         

 Vector   38  Occ=0.000000D+00  E= 4.859502D+00
              MO Center= -6.4D-16,  2.0D-16, -3.3D-08, r^2= 1.1D+00
   Bfn.  Coefficient  Atom+Function         Bfn.  Coefficient  Atom+Function  
  ----- ------------  ---------------      ----- ------------  ---------------
     4      3.349605  1 O  s                 34     -3.349605  2 O  s          
    10     -2.110216  1 O  pz                40     -2.110216  2 O  pz         
    13     -1.185771  1 O  pz                43     -1.185771  2 O  pz         
    21      0.996518  1 O  d  0              51     -0.996518  2 O  d  0       
     7      0.833402  1 O  pz                37      0.833402  2 O  pz         

 Vector   39  Occ=0.000000D+00  E= 5.028919D+00
              MO Center= -3.8D-16,  2.6D-16,  1.6D-08, r^2= 6.6D-01
   Bfn.  Coefficient  Atom+Function         Bfn.  Coefficient  Atom+Function  
  ----- ------------  ---------------      ----- ------------  ---------------
    27      0.496634  1 O  f  0              57     -0.496634  2 O  f  0       
    16     -0.428025  1 O  d  0              46     -0.428025  2 O  d  0       
    21      0.237292  1 O  d  0              51      0.237292  2 O  d  0       
     7     -0.219599  1 O  pz                37      0.219599  2 O  pz         
     2      0.194730  1 O  s                 32      0.194730  2 O  s          

 Vector   40  Occ=0.000000D+00  E= 5.049649D+00
              MO Center= -6.2D-16, -3.8D-16,  2.1D-07, r^2= 7.9D-01
   Bfn.  Coefficient  Atom+Function         Bfn.  Coefficient  Atom+Function  
  ----- ------------  ---------------      ----- ------------  ---------------
    30      0.605596  1 O  f  3              60      0.605596  2 O  f  3       
    24      0.347779  1 O  f -3              54      0.347779  2 O  f -3       

 Vector   41  Occ=0.000000D+00  E= 5.049649D+00
              MO Center=  1.4D-16, -8.5D-17,  2.1D-07, r^2= 7.9D-01
   Bfn.  Coefficient  Atom+Function         Bfn.  Coefficient  Atom+Function  
  ----- ------------  ---------------      ----- ------------  ---------------
    24      0.605596  1 O  f -3              54      0.605596  2 O  f -3       
    30     -0.347779  1 O  f  3              60     -0.347779  2 O  f  3       

 Vector   42  Occ=0.000000D+00  E= 5.297921D+00
              MO Center=  1.1D-17, -9.8D-16, -2.1D-07, r^2= 8.1D-01
   Bfn.  Coefficient  Atom+Function         Bfn.  Coefficient  Atom+Function  
  ----- ------------  ---------------      ----- ------------  ---------------
    30      0.707303  1 O  f  3              60     -0.707303  2 O  f  3       
    24     -0.112531  1 O  f -3              54      0.112531  2 O  f -3       

 Vector   43  Occ=0.000000D+00  E= 5.297921D+00
              MO Center= -1.1D-15, -3.6D-16, -2.1D-07, r^2= 8.1D-01
   Bfn.  Coefficient  Atom+Function         Bfn.  Coefficient  Atom+Function  
  ----- ------------  ---------------      ----- ------------  ---------------
    24      0.707303  1 O  f -3              54     -0.707303  2 O  f -3       
    30      0.112531  1 O  f  3              60     -0.112531  2 O  f  3       

 Vector   44  Occ=0.000000D+00  E= 5.838218D+00
              MO Center=  1.3D-16,  4.7D-16, -1.0D-08, r^2= 7.3D-01
   Bfn.  Coefficient  Atom+Function         Bfn.  Coefficient  Atom+Function  
  ----- ------------  ---------------      ----- ------------  ---------------
    29      0.712466  1 O  f  2              59      0.712466  2 O  f  2       
    18     -0.301307  1 O  d  2              48      0.301307  2 O  d  2       
    23      0.052083  1 O  d  2              53     -0.052083  2 O  d  2       

 Vector   45  Occ=0.000000D+00  E= 5.838218D+00
              MO Center= -1.0D-15,  1.7D-15, -1.0D-08, r^2= 7.3D-01
   Bfn.  Coefficient  Atom+Function         Bfn.  Coefficient  Atom+Function  
  ----- ------------  ---------------      ----- ------------  ---------------
    25      0.712466  1 O  f -2              55      0.712466  2 O  f -2       
    14     -0.301307  1 O  d -2              44      0.301307  2 O  d -2       
    19      0.052083  1 O  d -2              49     -0.052083  2 O  d -2       

 Vector   46  Occ=0.000000D+00  E= 5.905446D+00
              MO Center= -7.5D-16,  4.2D-16,  3.6D-08, r^2= 1.3D+00
   Bfn.  Coefficient  Atom+Function         Bfn.  Coefficient  Atom+Function  
  ----- ------------  ---------------      ----- ------------  ---------------
     4      3.893433  1 O  s                 34     -3.893433  2 O  s          
    10     -1.922291  1 O  pz                40     -1.922291  2 O  pz         
    13     -1.599290  1 O  pz                43     -1.599290  2 O  pz         
    21      1.417853  1 O  d  0              51     -1.417853  2 O  d  0       
    27     -0.777398  1 O  f  0              57     -0.777398  2 O  f  0       

 Vector   47  Occ=0.000000D+00  E= 6.163503D+00
              MO Center=  1.1D-16,  2.2D-16,  2.8D-07, r^2= 6.6D-01
   Bfn.  Coefficient  Atom+Function         Bfn.  Coefficient  Atom+Function  
  ----- ------------  ---------------      ----- ------------  ---------------
    18      0.817609  1 O  d  2              48      0.817609  2 O  d  2       
    23     -0.376394  1 O  d  2              53     -0.376394  2 O  d  2       

 Vector   48  Occ=0.000000D+00  E= 6.163503D+00
              MO Center=  2.4D-16, -3.0D-16,  2.8D-07, r^2= 6.6D-01
   Bfn.  Coefficient  Atom+Function         Bfn.  Coefficient  Atom+Function  
  ----- ------------  ---------------      ----- ------------  ---------------
    14      0.817609  1 O  d -2              44      0.817609  2 O  d -2       
    19     -0.376394  1 O  d -2              49     -0.376394  2 O  d -2       

 Vector   49  Occ=0.000000D+00  E= 6.384449D+00
              MO Center=  6.1D-15,  5.0D-15, -3.1D-07, r^2= 8.0D-01
   Bfn.  Coefficient  Atom+Function         Bfn.  Coefficient  Atom+Function  
  ----- ------------  ---------------      ----- ------------  ---------------
    18      0.778085  1 O  d  2              48     -0.778085  2 O  d  2       
    23     -0.511391  1 O  d  2              53      0.511391  2 O  d  2       
    29      0.324340  1 O  f  2              59      0.324340  2 O  f  2       

 Vector   50  Occ=0.000000D+00  E= 6.384450D+00
              MO Center=  4.2D-15, -5.8D-16, -3.1D-07, r^2= 8.0D-01
   Bfn.  Coefficient  Atom+Function         Bfn.  Coefficient  Atom+Function  
  ----- ------------  ---------------      ----- ------------  ---------------
    14      0.778085  1 O  d -2              44     -0.778085  2 O  d -2       
    19     -0.511391  1 O  d -2              49      0.511391  2 O  d -2       
    25      0.324340  1 O  f -2              55      0.324340  2 O  f -2       

 Vector   51  Occ=0.000000D+00  E= 6.427162D+00
              MO Center= -3.4D-15, -4.8D-15,  5.4D-07, r^2= 7.3D-01
   Bfn.  Coefficient  Atom+Function         Bfn.  Coefficient  Atom+Function  
  ----- ------------  ---------------      ----- ------------  ---------------
    15      0.835825  1 O  d -1              45      0.835824  2 O  d -1       
    20     -0.638702  1 O  d -1              50     -0.638702  2 O  d -1       
    12      0.248245  1 O  py                42     -0.248245  2 O  py         
    26     -0.099773  1 O  f -1              56      0.099773  2 O  f -1       
     9      0.046053  1 O  py                39     -0.046053  2 O  py         

 Vector   52  Occ=0.000000D+00  E= 6.427162D+00
              MO Center= -5.4D-15, -2.1D-16,  5.4D-07, r^2= 7.3D-01
   Bfn.  Coefficient  Atom+Function         Bfn.  Coefficient  Atom+Function  
  ----- ------------  ---------------      ----- ------------  ---------------
    17      0.835825  1 O  d  1              47      0.835824  2 O  d  1       
    22     -0.638702  1 O  d  1              52     -0.638702  2 O  d  1       
    11     -0.248245  1 O  px                41      0.248245  2 O  px         
    28     -0.099773  1 O  f  1              58      0.099773  2 O  f  1       
     8     -0.046053  1 O  px                38      0.046053  2 O  px         

 Vector   53  Occ=0.000000D+00  E= 6.532087D+00
              MO Center= -3.8D-17, -2.7D-16, -5.3D-07, r^2= 7.5D-01
   Bfn.  Coefficient  Atom+Function         Bfn.  Coefficient  Atom+Function  
  ----- ------------  ---------------      ----- ------------  ---------------
    15      0.808045  1 O  d -1              45     -0.808046  2 O  d -1       
    20     -0.380042  1 O  d -1              50      0.380043  2 O  d -1       
    26      0.213438  1 O  f -1              56      0.213438  2 O  f -1       
     9     -0.114438  1 O  py                39     -0.114438  2 O  py         

 Vector   54  Occ=0.000000D+00  E= 6.532087D+00
              MO Center= -7.8D-17,  3.1D-16, -5.3D-07, r^2= 7.5D-01
   Bfn.  Coefficient  Atom+Function         Bfn.  Coefficient  Atom+Function  
  ----- ------------  ---------------      ----- ------------  ---------------
    17      0.808045  1 O  d  1              47     -0.808046  2 O  d  1       
    22     -0.380042  1 O  d  1              52      0.380043  2 O  d  1       
    28      0.213438  1 O  f  1              58      0.213438  2 O  f  1       
     8      0.114438  1 O  px                38      0.114438  2 O  px         

 Vector   55  Occ=0.000000D+00  E= 6.804950D+00
              MO Center= -9.8D-16,  6.1D-16,  5.5D-08, r^2= 6.9D-01
   Bfn.  Coefficient  Atom+Function         Bfn.  Coefficient  Atom+Function  
  ----- ------------  ---------------      ----- ------------  ---------------
     2      0.796195  1 O  s                 32     -0.796195  2 O  s          
    16     -0.716485  1 O  d  0              46      0.716485  2 O  d  0       
     3     -0.657097  1 O  s                 33      0.657096  2 O  s          
     1      0.647707  1 O  s                 31     -0.647707  2 O  s          
     4     -0.502179  1 O  s                 34      0.502179  2 O  s          

 Vector   56  Occ=0.000000D+00  E= 7.128654D+00
              MO Center=  1.7D-15, -1.4D-15, -6.8D-08, r^2= 8.3D-01
   Bfn.  Coefficient  Atom+Function         Bfn.  Coefficient  Atom+Function  
  ----- ------------  ---------------      ----- ------------  ---------------
     2      1.779716  1 O  s                 32      1.779716  2 O  s          
     3     -1.588427  1 O  s                 33     -1.588427  2 O  s          
     1      1.457160  1 O  s                 31      1.457160  2 O  s          
     4     -0.650633  1 O  s                 34     -0.650633  2 O  s          
    16     -0.267308  1 O  d  0              46     -0.267308  2 O  d  0       

 Vector   57  Occ=0.000000D+00  E= 7.341587D+00
              MO Center= -7.2D-17,  1.7D-16, -3.4D-08, r^2= 9.3D-01
   Bfn.  Coefficient  Atom+Function         Bfn.  Coefficient  Atom+Function  
  ----- ------------  ---------------      ----- ------------  ---------------
    26     -1.005558  1 O  f -1              56      1.005558  2 O  f -1       
    20      0.947134  1 O  d -1              50      0.947134  2 O  d -1       
     9     -0.660250  1 O  py                39      0.660250  2 O  py         
     6      0.262649  1 O  py                36     -0.262649  2 O  py         
    12     -0.205413  1 O  py                42      0.205413  2 O  py         

 Vector   58  Occ=0.000000D+00  E= 7.341587D+00
              MO Center= -1.3D-15,  2.6D-16, -3.4D-08, r^2= 9.3D-01
   Bfn.  Coefficient  Atom+Function         Bfn.  Coefficient  Atom+Function  
  ----- ------------  ---------------      ----- ------------  ---------------
    28     -1.005558  1 O  f  1              58      1.005558  2 O  f  1       
    22      0.947134  1 O  d  1              52      0.947134  2 O  d  1       
     8      0.660250  1 O  px                38     -0.660250  2 O  px         
     5     -0.262649  1 O  px                35      0.262649  2 O  px         
    11      0.205413  1 O  px                41     -0.205413  2 O  px         

 Vector   59  Occ=0.000000D+00  E= 7.705915D+00
              MO Center= -4.6D-16,  3.9D-16, -5.0D-08, r^2= 9.8D-01
   Bfn.  Coefficient  Atom+Function         Bfn.  Coefficient  Atom+Function  
  ----- ------------  ---------------      ----- ------------  ---------------
     2      1.388164  1 O  s                 32      1.388164  2 O  s          
     1      0.909950  1 O  s                 31      0.909950  2 O  s          
    21     -0.804005  1 O  d  0              51     -0.804006  2 O  d  0       
    16      0.780719  1 O  d  0              46      0.780719  2 O  d  0       
     4     -0.582672  1 O  s                 34     -0.582672  2 O  s          

 Vector   60  Occ=0.000000D+00  E= 1.244384D+01
              MO Center=  2.0D-16,  5.9D-16, -7.3D-09, r^2= 6.6D-01
   Bfn.  Coefficient  Atom+Function         Bfn.  Coefficient  Atom+Function  
  ----- ------------  ---------------      ----- ------------  ---------------
     2      3.452154  1 O  s                 32     -3.452154  2 O  s          
    10     -2.959744  1 O  pz                40     -2.959744  2 O  pz         
     1      2.300206  1 O  s                 31     -2.300206  2 O  s          
     3     -2.013019  1 O  s                 33      2.013019  2 O  s          
    21      1.568446  1 O  d  0              51     -1.568446  2 O  d  0       


                     DFT Final Beta Molecular Orbital Analysis
                     -----------------------------------------

 Vector    1  Occ=1.000000D+00  E=-1.880462D+01
              MO Center=  6.0D-18,  3.7D-18,  5.4D-04, r^2= 3.8D-01
   Bfn.  Coefficient  Atom+Function         Bfn.  Coefficient  Atom+Function  
  ----- ------------  ---------------      ----- ------------  ---------------
     1      0.676341  1 O  s                 31      0.675733  2 O  s          
     3      0.049192  1 O  s                 33      0.049145  2 O  s          

 Vector    2  Occ=1.000000D+00  E=-1.880438D+01
              MO Center=  1.9D-17,  1.0D-17, -5.4D-04, r^2= 3.8D-01
   Bfn.  Coefficient  Atom+Function         Bfn.  Coefficient  Atom+Function  
  ----- ------------  ---------------      ----- ------------  ---------------
     1      0.671355  1 O  s                 31     -0.671967  2 O  s          
     3      0.052001  1 O  s                 33     -0.052045  2 O  s          

 Vector    3  Occ=1.000000D+00  E=-1.408812D+00
              MO Center= -3.9D-16,  6.0D-16,  5.3D-08, r^2= 4.6D-01
   Bfn.  Coefficient  Atom+Function         Bfn.  Coefficient  Atom+Function  
  ----- ------------  ---------------      ----- ------------  ---------------
     2      0.338314  1 O  s                 32      0.338314  2 O  s          
     4      0.168134  1 O  s                 34      0.168134  2 O  s          
    10     -0.122392  1 O  pz                40      0.122392  2 O  pz         
     7     -0.105811  1 O  pz                37      0.105811  2 O  pz         
     3      0.089993  1 O  s                 33      0.089993  2 O  s          

 Vector    4  Occ=1.000000D+00  E=-8.773266D-01
              MO Center= -2.0D-16,  2.0D-16,  2.0D-07, r^2= 1.1D+00
   Bfn.  Coefficient  Atom+Function         Bfn.  Coefficient  Atom+Function  
  ----- ------------  ---------------      ----- ------------  ---------------
     2      0.388776  1 O  s                 32     -0.388776  2 O  s          
     4      0.320704  1 O  s                 34     -0.320704  2 O  s          
     3      0.108477  1 O  s                 33     -0.108477  2 O  s          
     7      0.087876  1 O  pz                37      0.087876  2 O  pz         
    10      0.086771  1 O  pz                40      0.086771  2 O  pz         

 Vector    5  Occ=1.000000D+00  E=-6.439884D-01
              MO Center= -5.7D-15,  1.0D-14, -2.3D-07, r^2= 1.2D+00
   Bfn.  Coefficient  Atom+Function         Bfn.  Coefficient  Atom+Function  
  ----- ------------  ---------------      ----- ------------  ---------------
    10      0.298565  1 O  pz                40     -0.298565  2 O  pz         
     7      0.261364  1 O  pz                37     -0.261364  2 O  pz         
     4      0.256393  1 O  s                 34      0.256393  2 O  s          
    13      0.175898  1 O  pz                43     -0.175898  2 O  pz         
     2      0.116550  1 O  s                 32      0.116550  2 O  s          

 Vector    6  Occ=1.000000D+00  E=-6.027730D-01
              MO Center=  1.2D-17, -1.1D-14,  5.4D-08, r^2= 8.7D-01
   Bfn.  Coefficient  Atom+Function         Bfn.  Coefficient  Atom+Function  
  ----- ------------  ---------------      ----- ------------  ---------------
     9      0.294424  1 O  py                39      0.294424  2 O  py         
     6      0.251019  1 O  py                36      0.251019  2 O  py         
    12      0.217396  1 O  py                42      0.217396  2 O  py         
    20     -0.038114  1 O  d -1              50      0.038114  2 O  d -1       

 Vector    7  Occ=1.000000D+00  E=-6.027730D-01
              MO Center=  5.9D-15, -3.0D-17,  5.5D-08, r^2= 8.7D-01
   Bfn.  Coefficient  Atom+Function         Bfn.  Coefficient  Atom+Function  
  ----- ------------  ---------------      ----- ------------  ---------------
     8      0.294424  1 O  px                38      0.294424  2 O  px         
     5      0.251019  1 O  px                35      0.251019  2 O  px         
    11      0.217396  1 O  px                41      0.217396  2 O  px         
    22      0.038114  1 O  d  1              52     -0.038114  2 O  d  1       

 Vector    8  Occ=0.000000D+00  E= 1.948243D-02
              MO Center= -5.2D-18,  2.7D-16, -5.1D-08, r^2= 1.1D+00
   Bfn.  Coefficient  Atom+Function         Bfn.  Coefficient  Atom+Function  
  ----- ------------  ---------------      ----- ------------  ---------------
    12      0.449376  1 O  py                42     -0.449376  2 O  py         
     9      0.321375  1 O  py                39     -0.321375  2 O  py         
     6      0.285836  1 O  py                36     -0.285836  2 O  py         

 Vector    9  Occ=0.000000D+00  E= 1.948243D-02
              MO Center=  1.8D-16, -1.7D-16, -5.1D-08, r^2= 1.1D+00
   Bfn.  Coefficient  Atom+Function         Bfn.  Coefficient  Atom+Function  
  ----- ------------  ---------------      ----- ------------  ---------------
    11      0.449376  1 O  px                41     -0.449376  2 O  px         
     8      0.321375  1 O  px                38     -0.321375  2 O  px         
     5      0.285836  1 O  px                35     -0.285836  2 O  px         

 Vector   10  Occ=0.000000D+00  E= 3.574260D-01
              MO Center= -5.5D-16,  3.7D-16,  2.2D-08, r^2= 2.3D+00
   Bfn.  Coefficient  Atom+Function         Bfn.  Coefficient  Atom+Function  
  ----- ------------  ---------------      ----- ------------  ---------------
     4      2.070623  1 O  s                 34     -2.070623  2 O  s          
    13     -1.631161  1 O  pz                43     -1.631161  2 O  pz         
    10     -0.321336  1 O  pz                40     -0.321336  2 O  pz         
     2      0.237939  1 O  s                 32     -0.237939  2 O  s          
     7     -0.194309  1 O  pz                37     -0.194309  2 O  pz         

 Vector   11  Occ=0.000000D+00  E= 6.516069D-01
              MO Center= -2.8D-16,  4.4D-16,  2.9D-07, r^2= 2.1D+00
   Bfn.  Coefficient  Atom+Function         Bfn.  Coefficient  Atom+Function  
  ----- ------------  ---------------      ----- ------------  ---------------
    12      0.698133  1 O  py                42      0.698132  2 O  py         
     9     -0.525845  1 O  py                39     -0.525844  2 O  py         
     6     -0.185190  1 O  py                36     -0.185189  2 O  py         
    20      0.063247  1 O  d -1              50     -0.063247  2 O  d -1       

 Vector   12  Occ=0.000000D+00  E= 6.516069D-01
              MO Center=  3.3D-15,  6.4D-17,  2.9D-07, r^2= 2.1D+00
   Bfn.  Coefficient  Atom+Function         Bfn.  Coefficient  Atom+Function  
  ----- ------------  ---------------      ----- ------------  ---------------
    11      0.698133  1 O  px                41      0.698132  2 O  px         
     8     -0.525845  1 O  px                38     -0.525844  2 O  px         
     5     -0.185190  1 O  px                35     -0.185189  2 O  px         
    22     -0.063247  1 O  d  1              52      0.063247  2 O  d  1       

 Vector   13  Occ=0.000000D+00  E= 6.569495D-01
              MO Center=  6.1D-16, -2.8D-15,  2.2D-06, r^2= 2.3D+00
   Bfn.  Coefficient  Atom+Function         Bfn.  Coefficient  Atom+Function  
  ----- ------------  ---------------      ----- ------------  ---------------
     4      1.946233  1 O  s                 34     -1.946234  2 O  s          
    13     -1.670986  1 O  pz                43     -1.670984  2 O  pz         
    10      0.342615  1 O  pz                40      0.342614  2 O  pz         
     7      0.336046  1 O  pz                37      0.336045  2 O  pz         
    21      0.303725  1 O  d  0              51     -0.303725  2 O  d  0       

 Vector   14  Occ=0.000000D+00  E= 6.764758D-01
              MO Center=  2.4D-17, -2.3D-16, -2.1D-06, r^2= 2.9D+00
   Bfn.  Coefficient  Atom+Function         Bfn.  Coefficient  Atom+Function  
  ----- ------------  ---------------      ----- ------------  ---------------
    13      1.019292  1 O  pz                43     -1.019295  2 O  pz         
    10     -0.474450  1 O  pz                40      0.474451  2 O  pz         
     4      0.302994  1 O  s                 34      0.302990  2 O  s          
     7     -0.127096  1 O  pz                37      0.127097  2 O  pz         
    16      0.026369  1 O  d  0              46      0.026369  2 O  d  0       

 Vector   15  Occ=0.000000D+00  E= 7.765128D-01
              MO Center= -2.7D-17,  1.3D-15, -2.9D-07, r^2= 2.5D+00
   Bfn.  Coefficient  Atom+Function         Bfn.  Coefficient  Atom+Function  
  ----- ------------  ---------------      ----- ------------  ---------------
    12      1.269074  1 O  py                42     -1.269075  2 O  py         
     9     -0.530886  1 O  py                39      0.530886  2 O  py         
     6     -0.203455  1 O  py                36      0.203455  2 O  py         
    20     -0.059358  1 O  d -1              50     -0.059358  2 O  d -1       

 Vector   16  Occ=0.000000D+00  E= 7.765128D-01
              MO Center=  1.5D-15,  1.1D-16, -2.9D-07, r^2= 2.5D+00
   Bfn.  Coefficient  Atom+Function         Bfn.  Coefficient  Atom+Function  
  ----- ------------  ---------------      ----- ------------  ---------------
    11      1.269074  1 O  px                41     -1.269075  2 O  px         
     8     -0.530886  1 O  px                38      0.530886  2 O  px         
     5     -0.203455  1 O  px                35      0.203455  2 O  px         
    22      0.059358  1 O  d  1              52      0.059358  2 O  d  1       

 Vector   17  Occ=0.000000D+00  E= 8.224954D-01
              MO Center= -3.5D-15,  8.4D-16, -3.9D-08, r^2= 1.5D+00
   Bfn.  Coefficient  Atom+Function         Bfn.  Coefficient  Atom+Function  
  ----- ------------  ---------------      ----- ------------  ---------------
     4     -0.951343  1 O  s                 34     -0.951342  2 O  s          
     2      0.942339  1 O  s                 32      0.942339  2 O  s          
     1      0.327811  1 O  s                 31      0.327811  2 O  s          
     3      0.170884  1 O  s                 33      0.170884  2 O  s          
    21      0.136486  1 O  d  0              51      0.136486  2 O  d  0       

 Vector   18  Occ=0.000000D+00  E= 1.373508D+00
              MO Center= -2.1D-15,  1.3D-15, -3.6D-08, r^2= 2.2D+00
   Bfn.  Coefficient  Atom+Function         Bfn.  Coefficient  Atom+Function  
  ----- ------------  ---------------      ----- ------------  ---------------
     4      5.472368  1 O  s                 34     -5.472368  2 O  s          
    13     -2.405422  1 O  pz                43     -2.405422  2 O  pz         
     2     -1.116773  1 O  s                 32      1.116773  2 O  s          
    10     -0.543164  1 O  pz                40     -0.543164  2 O  pz         
     1     -0.400622  1 O  s                 31      0.400622  2 O  s          

 Vector   19  Occ=0.000000D+00  E= 1.386728D+00
              MO Center=  2.9D-16, -1.9D-16,  7.2D-08, r^2= 1.0D+00
   Bfn.  Coefficient  Atom+Function         Bfn.  Coefficient  Atom+Function  
  ----- ------------  ---------------      ----- ------------  ---------------
    19      0.649624  1 O  d -2              49      0.649624  2 O  d -2       

 Vector   20  Occ=0.000000D+00  E= 1.386728D+00
              MO Center= -2.0D-16, -5.5D-17,  7.2D-08, r^2= 1.0D+00
   Bfn.  Coefficient  Atom+Function         Bfn.  Coefficient  Atom+Function  
  ----- ------------  ---------------      ----- ------------  ---------------
    23      0.649624  1 O  d  2              53      0.649624  2 O  d  2       

 Vector   21  Occ=0.000000D+00  E= 1.477520D+00
              MO Center= -2.7D-17, -3.8D-16,  2.7D-08, r^2= 1.1D+00
   Bfn.  Coefficient  Atom+Function         Bfn.  Coefficient  Atom+Function  
  ----- ------------  ---------------      ----- ------------  ---------------
    20      0.593949  1 O  d -1              50     -0.593949  2 O  d -1       
     9      0.151152  1 O  py                39      0.151152  2 O  py         
     6      0.103698  1 O  py                36      0.103698  2 O  py         

 Vector   22  Occ=0.000000D+00  E= 1.477520D+00
              MO Center= -3.9D-17, -1.9D-17,  2.7D-08, r^2= 1.1D+00
   Bfn.  Coefficient  Atom+Function         Bfn.  Coefficient  Atom+Function  
  ----- ------------  ---------------      ----- ------------  ---------------
    22      0.593949  1 O  d  1              52     -0.593949  2 O  d  1       
     8     -0.151152  1 O  px                38     -0.151152  2 O  px         
     5     -0.103698  1 O  px                35     -0.103698  2 O  px         

 Vector   23  Occ=0.000000D+00  E= 1.821568D+00
              MO Center=  2.4D-16, -5.6D-16, -6.9D-08, r^2= 1.2D+00
   Bfn.  Coefficient  Atom+Function         Bfn.  Coefficient  Atom+Function  
  ----- ------------  ---------------      ----- ------------  ---------------
    19      0.786508  1 O  d -2              49     -0.786508  2 O  d -2       

 Vector   24  Occ=0.000000D+00  E= 1.821568D+00
              MO Center=  1.1D-16,  1.9D-16, -6.9D-08, r^2= 1.2D+00
   Bfn.  Coefficient  Atom+Function         Bfn.  Coefficient  Atom+Function  
  ----- ------------  ---------------      ----- ------------  ---------------
    23      0.786508  1 O  d  2              53     -0.786508  2 O  d  2       

 Vector   25  Occ=0.000000D+00  E= 2.282002D+00
              MO Center=  1.5D-16, -2.3D-16,  2.3D-06, r^2= 1.5D+00
   Bfn.  Coefficient  Atom+Function         Bfn.  Coefficient  Atom+Function  
  ----- ------------  ---------------      ----- ------------  ---------------
    21      0.847287  1 O  d  0              51      0.847283  2 O  d  0       
     2     -0.662865  1 O  s                 32     -0.662866  2 O  s          
    13     -0.640062  1 O  pz                43      0.640057  2 O  pz         
    10      0.499672  1 O  pz                40     -0.499675  2 O  pz         
     4      0.328030  1 O  s                 34      0.328019  2 O  s          

 Vector   26  Occ=0.000000D+00  E= 2.299961D+00
              MO Center=  1.6D-15,  3.0D-15, -2.3D-06, r^2= 1.9D+00
   Bfn.  Coefficient  Atom+Function         Bfn.  Coefficient  Atom+Function  
  ----- ------------  ---------------      ----- ------------  ---------------
     4      4.212085  1 O  s                 34     -4.212086  2 O  s          
    13     -2.113802  1 O  pz                43     -2.113804  2 O  pz         
    21      1.510042  1 O  d  0              51     -1.510044  2 O  d  0       
    10     -0.979847  1 O  pz                40     -0.979846  2 O  pz         
     7     -0.256521  1 O  pz                37     -0.256521  2 O  pz         

 Vector   27  Occ=0.000000D+00  E= 2.354465D+00
              MO Center= -9.1D-18, -3.1D-15, -2.1D-08, r^2= 1.5D+00
   Bfn.  Coefficient  Atom+Function         Bfn.  Coefficient  Atom+Function  
  ----- ------------  ---------------      ----- ------------  ---------------
    20      1.158722  1 O  d -1              50      1.158722  2 O  d -1       
    12     -0.636367  1 O  py                42      0.636367  2 O  py         
     6     -0.117332  1 O  py                36      0.117332  2 O  py         
     9     -0.042313  1 O  py                39      0.042313  2 O  py         

 Vector   28  Occ=0.000000D+00  E= 2.354465D+00
              MO Center= -1.6D-15,  9.1D-17, -2.1D-08, r^2= 1.5D+00
   Bfn.  Coefficient  Atom+Function         Bfn.  Coefficient  Atom+Function  
  ----- ------------  ---------------      ----- ------------  ---------------
    22      1.158722  1 O  d  1              52      1.158722  2 O  d  1       
    11      0.636367  1 O  px                41     -0.636367  2 O  px         
     5      0.117332  1 O  px                35     -0.117332  2 O  px         
     8      0.042313  1 O  px                38     -0.042313  2 O  px         

 Vector   29  Occ=0.000000D+00  E= 3.603550D+00
              MO Center= -2.8D-17, -4.7D-16,  1.9D-07, r^2= 9.5D-01
   Bfn.  Coefficient  Atom+Function         Bfn.  Coefficient  Atom+Function  
  ----- ------------  ---------------      ----- ------------  ---------------
     8      0.980512  1 O  px                38      0.980511  2 O  px         
     5     -0.858919  1 O  px                35     -0.858918  2 O  px         
    11     -0.357094  1 O  px                41     -0.357094  2 O  px         
    22     -0.101278  1 O  d  1              52      0.101278  2 O  d  1       
    28     -0.039784  1 O  f  1              58     -0.039784  2 O  f  1       

 Vector   30  Occ=0.000000D+00  E= 3.603550D+00
              MO Center=  3.2D-16, -1.9D-16,  1.9D-07, r^2= 9.5D-01
   Bfn.  Coefficient  Atom+Function         Bfn.  Coefficient  Atom+Function  
  ----- ------------  ---------------      ----- ------------  ---------------
     9      0.980512  1 O  py                39      0.980511  2 O  py         
     6     -0.858919  1 O  py                36     -0.858918  2 O  py         
    12     -0.357094  1 O  py                42     -0.357094  2 O  py         
    20      0.101278  1 O  d -1              50     -0.101278  2 O  d -1       
    26      0.039784  1 O  f -1              56      0.039784  2 O  f -1       

 Vector   31  Occ=0.000000D+00  E= 3.740373D+00
              MO Center=  2.1D-16,  7.6D-17,  2.9D-08, r^2= 9.2D-01
   Bfn.  Coefficient  Atom+Function         Bfn.  Coefficient  Atom+Function  
  ----- ------------  ---------------      ----- ------------  ---------------
    10     -0.898527  1 O  pz                40      0.898526  2 O  pz         
     7      0.837831  1 O  pz                37     -0.837831  2 O  pz         
    13      0.459529  1 O  pz                43     -0.459529  2 O  pz         
    27      0.187364  1 O  f  0              57     -0.187364  2 O  f  0       
     4      0.077242  1 O  s                 34      0.077241  2 O  s          

 Vector   32  Occ=0.000000D+00  E= 3.893231D+00
              MO Center=  2.2D-16, -1.2D-16, -1.9D-07, r^2= 8.9D-01
   Bfn.  Coefficient  Atom+Function         Bfn.  Coefficient  Atom+Function  
  ----- ------------  ---------------      ----- ------------  ---------------
     9      1.093540  1 O  py                39     -1.093541  2 O  py         
     6     -0.848542  1 O  py                36      0.848543  2 O  py         
    12     -0.488002  1 O  py                42      0.488002  2 O  py         
    20     -0.188703  1 O  d -1              50     -0.188703  2 O  d -1       
    26     -0.117884  1 O  f -1              56      0.117884  2 O  f -1       

 Vector   33  Occ=0.000000D+00  E= 3.893231D+00
              MO Center=  1.9D-17,  4.8D-16, -1.9D-07, r^2= 8.9D-01
   Bfn.  Coefficient  Atom+Function         Bfn.  Coefficient  Atom+Function  
  ----- ------------  ---------------      ----- ------------  ---------------
     8      1.093540  1 O  px                38     -1.093541  2 O  px         
     5     -0.848542  1 O  px                35      0.848543  2 O  px         
    11     -0.488002  1 O  px                41      0.488002  2 O  px         
    22      0.188703  1 O  d  1              52      0.188703  2 O  d  1       
    28      0.117884  1 O  f  1              58     -0.117884  2 O  f  1       

 Vector   34  Occ=0.000000D+00  E= 4.756786D+00
              MO Center= -3.0D-15, -6.7D-15,  3.5D-08, r^2= 8.2D-01
   Bfn.  Coefficient  Atom+Function         Bfn.  Coefficient  Atom+Function  
  ----- ------------  ---------------      ----- ------------  ---------------
    25      0.660318  1 O  f -2              55     -0.660318  2 O  f -2       
    19      0.094317  1 O  d -2              49      0.094317  2 O  d -2       

 Vector   35  Occ=0.000000D+00  E= 4.756786D+00
              MO Center= -9.8D-16,  2.2D-16,  3.5D-08, r^2= 8.2D-01
   Bfn.  Coefficient  Atom+Function         Bfn.  Coefficient  Atom+Function  
  ----- ------------  ---------------      ----- ------------  ---------------
    29      0.660318  1 O  f  2              59     -0.660318  2 O  f  2       
    23      0.094317  1 O  d  2              53      0.094317  2 O  d  2       

 Vector   36  Occ=0.000000D+00  E= 4.825094D+00
              MO Center=  3.9D-15, -1.4D-15,  5.8D-09, r^2= 7.5D-01
   Bfn.  Coefficient  Atom+Function         Bfn.  Coefficient  Atom+Function  
  ----- ------------  ---------------      ----- ------------  ---------------
    26      0.602667  1 O  f -1              56      0.602667  2 O  f -1       
    15     -0.233631  1 O  d -1              45      0.233631  2 O  d -1       
     9     -0.189835  1 O  py                39     -0.189835  2 O  py         
    20      0.177314  1 O  d -1              50     -0.177314  2 O  d -1       
    12      0.095909  1 O  py                42      0.095909  2 O  py         

 Vector   37  Occ=0.000000D+00  E= 4.825094D+00
              MO Center=  1.0D-15,  8.0D-15,  5.8D-09, r^2= 7.5D-01
   Bfn.  Coefficient  Atom+Function         Bfn.  Coefficient  Atom+Function  
  ----- ------------  ---------------      ----- ------------  ---------------
    28      0.602667  1 O  f  1              58      0.602667  2 O  f  1       
    17     -0.233631  1 O  d  1              47      0.233631  2 O  d  1       
     8      0.189835  1 O  px                38      0.189835  2 O  px         
    22      0.177314  1 O  d  1              52     -0.177314  2 O  d  1       
    11     -0.095909  1 O  px                41     -0.095909  2 O  px         

 Vector   38  Occ=0.000000D+00  E= 4.896664D+00
              MO Center=  5.4D-17,  9.0D-18, -3.3D-08, r^2= 1.1D+00
   Bfn.  Coefficient  Atom+Function         Bfn.  Coefficient  Atom+Function  
  ----- ------------  ---------------      ----- ------------  ---------------
     4      3.338730  1 O  s                 34     -3.338730  2 O  s          
    10     -2.112978  1 O  pz                40     -2.112978  2 O  pz         
    13     -1.181582  1 O  pz                43     -1.181582  2 O  pz         
    21      0.997192  1 O  d  0              51     -0.997192  2 O  d  0       
     7      0.834228  1 O  pz                37      0.834228  2 O  pz         

 Vector   39  Occ=0.000000D+00  E= 5.062942D+00
              MO Center= -5.4D-16,  1.4D-15,  1.7D-08, r^2= 6.6D-01
   Bfn.  Coefficient  Atom+Function         Bfn.  Coefficient  Atom+Function  
  ----- ------------  ---------------      ----- ------------  ---------------
    27      0.497296  1 O  f  0              57     -0.497296  2 O  f  0       
    16     -0.426238  1 O  d  0              46     -0.426238  2 O  d  0       
    21      0.231634  1 O  d  0              51      0.231634  2 O  d  0       
     7     -0.221583  1 O  pz                37      0.221583  2 O  pz         
     2      0.209105  1 O  s                 32      0.209105  2 O  s          

 Vector   40  Occ=0.000000D+00  E= 5.109438D+00
              MO Center= -5.6D-16, -8.0D-17,  1.9D-07, r^2= 7.9D-01
   Bfn.  Coefficient  Atom+Function         Bfn.  Coefficient  Atom+Function  
  ----- ------------  ---------------      ----- ------------  ---------------
    24      0.647290  1 O  f -3              54      0.647289  2 O  f -3       
    30      0.262132  1 O  f  3              60      0.262131  2 O  f  3       

 Vector   41  Occ=0.000000D+00  E= 5.109438D+00
              MO Center=  5.0D-16, -3.6D-16,  1.9D-07, r^2= 7.9D-01
   Bfn.  Coefficient  Atom+Function         Bfn.  Coefficient  Atom+Function  
  ----- ------------  ---------------      ----- ------------  ---------------
    30      0.647290  1 O  f  3              60      0.647289  2 O  f  3       
    24     -0.262132  1 O  f -3              54     -0.262131  2 O  f -3       

 Vector   42  Occ=0.000000D+00  E= 5.361126D+00
              MO Center= -8.1D-16,  3.6D-16, -1.9D-07, r^2= 8.1D-01
   Bfn.  Coefficient  Atom+Function         Bfn.  Coefficient  Atom+Function  
  ----- ------------  ---------------      ----- ------------  ---------------
    24      0.707677  1 O  f -3              54     -0.707677  2 O  f -3       
    30     -0.110152  1 O  f  3              60      0.110152  2 O  f  3       

 Vector   43  Occ=0.000000D+00  E= 5.361126D+00
              MO Center= -9.0D-17,  2.8D-16, -1.9D-07, r^2= 8.1D-01
   Bfn.  Coefficient  Atom+Function         Bfn.  Coefficient  Atom+Function  
  ----- ------------  ---------------      ----- ------------  ---------------
    30      0.707677  1 O  f  3              60     -0.707677  2 O  f  3       
    24      0.110152  1 O  f -3              54     -0.110152  2 O  f -3       

 Vector   44  Occ=0.000000D+00  E= 5.889864D+00
              MO Center= -8.8D-17, -1.3D-16, -1.6D-08, r^2= 7.4D-01
   Bfn.  Coefficient  Atom+Function         Bfn.  Coefficient  Atom+Function  
  ----- ------------  ---------------      ----- ------------  ---------------
    29      0.720349  1 O  f  2              59      0.720349  2 O  f  2       
    18     -0.281730  1 O  d  2              48      0.281730  2 O  d  2       
    23      0.038133  1 O  d  2              53     -0.038133  2 O  d  2       

 Vector   45  Occ=0.000000D+00  E= 5.889865D+00
              MO Center=  6.2D-16, -7.5D-16, -1.6D-08, r^2= 7.4D-01
   Bfn.  Coefficient  Atom+Function         Bfn.  Coefficient  Atom+Function  
  ----- ------------  ---------------      ----- ------------  ---------------
    25      0.720349  1 O  f -2              55      0.720349  2 O  f -2       
    14     -0.281730  1 O  d -2              44      0.281730  2 O  d -2       
    19      0.038132  1 O  d -2              49     -0.038132  2 O  d -2       

 Vector   46  Occ=0.000000D+00  E= 5.945831D+00
              MO Center= -9.0D-17, -2.3D-16,  3.4D-08, r^2= 1.3D+00
   Bfn.  Coefficient  Atom+Function         Bfn.  Coefficient  Atom+Function  
  ----- ------------  ---------------      ----- ------------  ---------------
     4      3.875926  1 O  s                 34     -3.875926  2 O  s          
    10     -1.923325  1 O  pz                40     -1.923325  2 O  pz         
    13     -1.590987  1 O  pz                43     -1.590987  2 O  pz         
    21      1.414268  1 O  d  0              51     -1.414268  2 O  d  0       
    27     -0.781506  1 O  f  0              57     -0.781506  2 O  f  0       

 Vector   47  Occ=0.000000D+00  E= 6.251039D+00
              MO Center= -1.8D-16,  1.3D-16,  2.8D-07, r^2= 6.6D-01
   Bfn.  Coefficient  Atom+Function         Bfn.  Coefficient  Atom+Function  
  ----- ------------  ---------------      ----- ------------  ---------------
    18      0.817565  1 O  d  2              48      0.817565  2 O  d  2       
    23     -0.372796  1 O  d  2              53     -0.372796  2 O  d  2       

 Vector   48  Occ=0.000000D+00  E= 6.251040D+00
              MO Center= -6.3D-17,  1.5D-16,  2.8D-07, r^2= 6.6D-01
   Bfn.  Coefficient  Atom+Function         Bfn.  Coefficient  Atom+Function  
  ----- ------------  ---------------      ----- ------------  ---------------
    14      0.817565  1 O  d -2              44      0.817565  2 O  d -2       
    19     -0.372796  1 O  d -2              49     -0.372796  2 O  d -2       

 Vector   49  Occ=0.000000D+00  E= 6.466955D+00
              MO Center= -3.7D-15,  1.3D-14, -3.0D-07, r^2= 7.9D-01
   Bfn.  Coefficient  Atom+Function         Bfn.  Coefficient  Atom+Function  
  ----- ------------  ---------------      ----- ------------  ---------------
    18      0.785374  1 O  d  2              48     -0.785374  2 O  d  2       
    23     -0.507877  1 O  d  2              53      0.507877  2 O  d  2       
    29      0.306459  1 O  f  2              59      0.306459  2 O  f  2       

 Vector   50  Occ=0.000000D+00  E= 6.466956D+00
              MO Center=  2.2D-15, -4.5D-15, -3.0D-07, r^2= 7.9D-01
   Bfn.  Coefficient  Atom+Function         Bfn.  Coefficient  Atom+Function  
  ----- ------------  ---------------      ----- ------------  ---------------
    14      0.785374  1 O  d -2              44     -0.785374  2 O  d -2       
    19     -0.507877  1 O  d -2              49      0.507877  2 O  d -2       
    25      0.306459  1 O  f -2              55      0.306459  2 O  f -2       

 Vector   51  Occ=0.000000D+00  E= 6.483474D+00
              MO Center= -1.7D-15, -1.3D-14,  5.2D-07, r^2= 7.3D-01
   Bfn.  Coefficient  Atom+Function         Bfn.  Coefficient  Atom+Function  
  ----- ------------  ---------------      ----- ------------  ---------------
    15      0.835529  1 O  d -1              45      0.835528  2 O  d -1       
    20     -0.633193  1 O  d -1              50     -0.633193  2 O  d -1       
    12      0.245819  1 O  py                42     -0.245819  2 O  py         
[...]
   Bfn.  Coefficient  Atom+Function         Bfn.  Coefficient  Atom+Function  
  ----- ------------  ---------------      ----- ------------  ---------------
     2      0.798239  1 O  s                 32     -0.798238  2 O  s          
    16     -0.719542  1 O  d  0              46      0.719542  2 O  d  0       
     3     -0.653697  1 O  s                 33      0.653695  2 O  s          
     1      0.646189  1 O  s                 31     -0.646188  2 O  s          
     4     -0.473049  1 O  s                 34      0.473049  2 O  s          

 Vector   56  Occ=0.000000D+00  E= 7.167091D+00
              MO Center= -8.9D-17,  7.7D-17, -3.4D-07, r^2= 8.2D-01
   Bfn.  Coefficient  Atom+Function         Bfn.  Coefficient  Atom+Function  
  ----- ------------  ---------------      ----- ------------  ---------------
     2      1.756591  1 O  s                 32      1.756592  2 O  s          
     3     -1.579376  1 O  s                 33     -1.579376  2 O  s          
     1      1.441981  1 O  s                 31      1.441981  2 O  s          
     4     -0.639802  1 O  s                 34     -0.639803  2 O  s          
    16     -0.278277  1 O  d  0              46     -0.278277  2 O  d  0       

 Vector   57  Occ=0.000000D+00  E= 7.378325D+00
              MO Center= -2.3D-17, -4.4D-18, -1.7D-07, r^2= 9.3D-01
   Bfn.  Coefficient  Atom+Function         Bfn.  Coefficient  Atom+Function  
  ----- ------------  ---------------      ----- ------------  ---------------
    26     -1.004963  1 O  f -1              56      1.004963  2 O  f -1       
    20      0.946175  1 O  d -1              50      0.946176  2 O  d -1       
     9     -0.657705  1 O  py                39      0.657705  2 O  py         
     6      0.263287  1 O  py                36     -0.263287  2 O  py         
    12     -0.205613  1 O  py                42      0.205613  2 O  py         

 Vector   58  Occ=0.000000D+00  E= 7.378325D+00
              MO Center= -8.1D-18,  8.7D-17, -1.7D-07, r^2= 9.3D-01
   Bfn.  Coefficient  Atom+Function         Bfn.  Coefficient  Atom+Function  
  ----- ------------  ---------------      ----- ------------  ---------------
    28     -1.004963  1 O  f  1              58      1.004963  2 O  f  1       
    22      0.946175  1 O  d  1              52      0.946176  2 O  d  1       
     8      0.657705  1 O  px                38     -0.657705  2 O  px         
     5     -0.263287  1 O  px                35      0.263287  2 O  px         
    11      0.205613  1 O  px                41     -0.205613  2 O  px         

 Vector   59  Occ=0.000000D+00  E= 7.751014D+00
              MO Center= -2.4D-17,  1.5D-17, -2.5D-07, r^2= 9.8D-01
   Bfn.  Coefficient  Atom+Function         Bfn.  Coefficient  Atom+Function  
  ----- ------------  ---------------      ----- ------------  ---------------
     2      1.409359  1 O  s                 32      1.409359  2 O  s          
     1      0.929828  1 O  s                 31      0.929828  2 O  s          
    21     -0.800857  1 O  d  0              51     -0.800858  2 O  d  0       
    16      0.778088  1 O  d  0              46      0.778088  2 O  d  0       
     3     -0.597018  1 O  s                 33     -0.597018  2 O  s          

 Vector   60  Occ=0.000000D+00  E= 1.247844D+01
              MO Center= -6.5D-17,  4.3D-17, -3.7D-08, r^2= 6.6D-01
   Bfn.  Coefficient  Atom+Function         Bfn.  Coefficient  Atom+Function  
  ----- ------------  ---------------      ----- ------------  ---------------
     2      3.447789  1 O  s                 32     -3.447790  2 O  s          
    10     -2.949823  1 O  pz                40     -2.949823  2 O  pz         
     1      2.298230  1 O  s                 31     -2.298230  2 O  s          
     3     -2.013460  1 O  s                 33      2.013461  2 O  s          
    21      1.562757  1 O  d  0              51     -1.562757  2 O  d  0       


   alpha - beta orbital overlaps 
   ----------------------------- 


   alpha      1      2      3      4      5      6      7      8      9     10
    beta      2      1      3      4      6      7      5      8      9     10
 overlap   1.000  1.000  1.000  1.000  0.999  0.999  1.000  0.996  0.996  0.997


   alpha     11     12     13     14     15     16     17     18     19     20
    beta     11     12     13     14     15     16     17     18     19     20
 overlap   0.999  0.999  0.998  0.999  0.996  0.996  0.999  1.000  1.000  1.000


   alpha     21     22     23     24     25     26     27     28     29     30
    beta     21     22     23     24     25     26     27     28     29     30
 overlap   1.000  1.000  1.000  1.000  1.000  1.000  1.000  1.000  1.000  1.000


   alpha     31     32     33     34     35     36     37     38     39     40
    beta     31     32     33     34     35     36     37     38     39     41
 overlap   1.000  1.000  1.000  1.000  1.000  1.000  1.000  1.000  1.000  0.998


   alpha     41     42     43     44     45     46     47     48     49     50
    beta     40     42     43     44     45     46     47     48     49     50
 overlap   0.998  0.864  0.864  1.000  1.000  1.000  1.000  1.000  1.000  1.000


   alpha     51     52     53     54     55     56     57     58     59     60
    beta     51     52     53     54     55     56     57     58     59     60
 overlap   1.000  1.000  1.000  1.000  1.000  1.000  1.000  1.000  1.000  1.000


     --------------------------
     Expectation value of S2:  
     --------------------------
      <S2> =      2.0058 (Exact =     2.0000)


 center of mass
 --------------
 x =   0.00000000 y =   0.00000000 z =   0.00000000

 moments of inertia (a.u.)
 ------------------
          41.237554827872           0.000000000000           0.000000000000
           0.000000000000          41.237554827872           0.000000000000
           0.000000000000           0.000000000000           0.000000000000

     Multipole analysis of the density
     ---------------------------------

     L   x y z        total         alpha         beta         nuclear
     -   - - -        -----         -----         ----         -------
     0   0 0 0     -0.000000     -9.000000     -7.000000     16.000000

     1   1 0 0     -0.000000     -0.000000      0.000000      0.000000
     1   0 1 0      0.000000      0.000000     -0.000000      0.000000
     1   0 0 1     -0.000002     -0.000000     -0.000001      0.000000

     2   2 0 0     -7.611441     -4.435502     -3.175939      0.000000
     2   1 1 0      0.000000      0.000000     -0.000000      0.000000
     2   1 0 1      0.000000      0.000000      0.000000      0.000000
     2   0 2 0     -7.611441     -4.435502     -3.175939      0.000000
     2   0 1 1     -0.000000     -0.000000     -0.000000      0.000000
     2   0 0 2     -8.092080    -16.324921    -12.392498     20.625339

 Line search: 
     step= 1.00 grad=-3.7D-07 hess= 1.9D-07 energy=   -147.994423 mode=accept  
 new step= 1.00                   predicted energy=   -147.994423
  no constraints, skipping    0.0000000000000000     
  no constraints, skipping    0.0000000000000000     
  no constraints, skipping    0.0000000000000000     

          --------
          Step   2
          --------


                         Geometry "geometry" -> "geometry"
                         ---------------------------------

 Output coordinates in angstroms (scale by  1.889725989 to convert to a.u.)

  No.       Tag          Charge          X              Y              Z
 ---- ---------------- ---------- -------------- -------------- --------------
    1 O                    8.0000     0.00000000     0.00000000     0.60081632
    2 O                    8.0000     0.00000000     0.00000000    -0.60081632

      Atomic Mass 
      ----------- 

      O                 15.994910


 Effective nuclear repulsion energy (a.u.)      28.1844408659

            Nuclear Dipole moment (a.u.) 
            ----------------------------
        X                 Y               Z
 ---------------- ---------------- ----------------
     0.0000000000     0.0000000000     0.0000000000


                                 NWChem DFT Module
                                 -----------------


  int_init: cando_txs set to always be  F


 Summary of "ao basis" -> "ao basis" (spherical)
 ------------------------------------------------------------------------------
       Tag                 Description            Shells   Functions and Types
 ---------------- ------------------------------  ------  ---------------------
 O                          cc-pVTZ                 10       30   4s3p2d1f



  The DFT is already converged 

         Total DFT energy =   -147.994422624986


            General Information
            -------------------
          SCF calculation type: DFT
          Wavefunction type:  spin polarized.
          No. of atoms     :     2
          No. of electrons :    16
           Alpha electrons :     9
            Beta electrons :     7
          Charge           :     0
          Spin multiplicity:     3
          Use of symmetry is: off; symmetry adaption is: off
          Maximum number of iterations:  30
          This is a Direct SCF calculation.
          AO basis - number of functions:    60
                     number of shells:    20
          A Charge density fitting basis will be used.
          CD basis - number of functions:    88
                     number of shells:    28
          Convergence on energy requested:  1.00D-06
          Convergence on density requested:  1.00D-05
          Convergence on gradient requested:  5.00D-04

              XC Information
              --------------
                     Hartree-Fock (Exact) Exchange  1.000          
                   LC-BNL 2007 Exchange Functional  0.900 local    
              Lee-Yang-Parr Correlation Functional  1.000          

           Range-Separation Parameters        
           ---------------------------
           Alpha           :  0.00
           Beta            :  1.00
           Gamma           :  0.50
           Short-Range HF  :     F

             Grid Information
             ----------------
          Grid used for XC integration:  medium    
          Radial quadrature: Mura-Knowles        
          Angular quadrature: Lebedev. 
          Tag              B.-S. Rad. Rad. Pts. Rad. Cut. Ang. Pts.
          ---              ---------- --------- --------- ---------
          O                   0.60       49           5.0       434
          Grid pruning is: on 
          Number of quadrature shells:    98
          Spatial weights used:  Erf1

          Convergence Information
          -----------------------
          Convergence aids based upon iterative change in 
          total energy or number of iterations. 
          Levelshifting, if invoked, occurs when the 
          HOMO/LUMO gap drops below (HL_TOL):  1.00D-02
          DIIS, if invoked, will attempt to extrapolate 
          using up to (NFOCK): 10 stored Fock matrices.

                    Damping( 0%)  Levelshifting(0.5)       DIIS
                  --------------- ------------------- ---------------
          dE  on:    start            ASAP                start   
          dE off:    2 iters         30 iters            30 iters 


      Screening Tolerance Information
      -------------------------------
          Density screening/tol_rho:  1.00D-10
          AO Gaussian exp screening on grid/accAOfunc:  14
          CD Gaussian exp screening on grid/accCDfunc:  20
          XC Gaussian exp screening on grid/accXCfunc:  20
          Schwarz screening/accCoul:  1.00D-08

  int_init: cando_txs set to always be  F
  intd_init: cando_txs set to always be  F


                            NWChem DFT Gradient Module
                            --------------------------



  charge          =   0.00
  wavefunction    = open shell

  int_init: cando_txs set to always be  F
  intd_init: cando_txs set to always be  F


                         DFT ENERGY GRADIENTS

    atom               coordinates                        gradient
                 x          y          z           x          y          z
   1 O       0.000000   0.000000   1.135378    0.000000   0.000000  -0.000035
   2 O       0.000000   0.000000  -1.135378   -0.000000  -0.000000   0.000035

                 ----------------------------------------
                 |  Time  |  1-e(secs)   |  2-e(secs)   |
                 ----------------------------------------
                 |  CPU   |       0.00   |       1.06   |
                 ----------------------------------------
                 |  WALL  |       0.00   |       1.06   |
                 ----------------------------------------
  no constraints, skipping    0.0000000000000000     

  Step       Energy      Delta E   Gmax     Grms     Xrms     Xmax   Walltime
  ---- ---------------- -------- -------- -------- -------- -------- --------
@    2    -147.99442262 -1.8D-07  0.00003  0.00003  0.00018  0.00031      6.2
                                     ok       ok       ok       ok  



                                Z-matrix (autoz)
                                -------- 

 Units are Angstrom for bonds and degrees for angles

      Type          Name      I     J     K     L     M      Value     Gradient
      ----------- --------  ----- ----- ----- ----- ----- ---------- ----------
    1 Stretch                  1     2                       1.20163   -0.00003


      ----------------------
      Optimization converged
      ----------------------


  Step       Energy      Delta E   Gmax     Grms     Xrms     Xmax   Walltime
  ---- ---------------- -------- -------- -------- -------- -------- --------
@    2    -147.99442262 -1.8D-07  0.00003  0.00003  0.00018  0.00031      6.2
                                     ok       ok       ok       ok  



                                Z-matrix (autoz)
                                -------- 

 Units are Angstrom for bonds and degrees for angles

      Type          Name      I     J     K     L     M      Value     Gradient
      ----------- --------  ----- ----- ----- ----- ----- ---------- ----------
    1 Stretch                  1     2                       1.20163   -0.00003



                         Geometry "geometry" -> "geometry"
                         ---------------------------------

 Output coordinates in angstroms (scale by  1.889725989 to convert to a.u.)

  No.       Tag          Charge          X              Y              Z
 ---- ---------------- ---------- -------------- -------------- --------------
    1 O                    8.0000     0.00000000     0.00000000     0.60081632
    2 O                    8.0000     0.00000000     0.00000000    -0.60081632

      Atomic Mass 
      ----------- 

      O                 15.994910


 Effective nuclear repulsion energy (a.u.)      28.1844408659

            Nuclear Dipole moment (a.u.) 
            ----------------------------
        X                 Y               Z
 ---------------- ---------------- ----------------
     0.0000000000     0.0000000000     0.0000000000


                Final and change from initial internal coordinates
                --------------------------------------------------



                                Z-matrix (autoz)
                                -------- 

 Units are Angstrom for bonds and degrees for angles

      Type          Name      I     J     K     L     M      Value       Change
      ----------- --------  ----- ----- ----- ----- ----- ---------- ----------
    1 Stretch                  1     2                       1.20163    0.00030

 ==============================================================================
                                internuclear distances
 ------------------------------------------------------------------------------
       center one      |      center two      | atomic units |  angstroms
 ------------------------------------------------------------------------------
    2 O                |   1 O                |     2.27076  |     1.20163
 ------------------------------------------------------------------------------
                         number of included internuclear distances:          1
 ==============================================================================




 Task  times  cpu:        4.6s     wall:        4.6s


                                NWChem Input Module
                                -------------------


 Summary of allocated global arrays
-----------------------------------
  No active global arrays



                         GA Statistics for process    0
                         ------------------------------

       create   destroy   get      put      acc     scatter   gather  read&inc
calls:  657      657     1.76e+04 5627     1142        0        0      698     
number of processes/call 1.46e+00 1.50e+00 1.82e+00 0.00e+00 0.00e+00
bytes total:             3.70e+07 6.22e+06 1.49e+07 0.00e+00 0.00e+00 5.58e+03
bytes remote:            1.86e+07 2.88e+06 6.68e+06 0.00e+00 0.00e+00 0.00e+00
Max memory consumed for GA by this process: 554400 bytes

MA_summarize_allocated_blocks: starting scan ...
MA_summarize_allocated_blocks: scan completed: 0 heap blocks, 0 stack blocks
MA usage statistics:

	allocation statistics:
					      heap	     stack
					      ----	     -----
	current number of blocks	         0	         0
	maximum number of blocks	        26	        56
	current total bytes		         0	         0
	maximum total bytes		    499952	  22513496
	maximum total K-bytes		       500	     22514
	maximum total M-bytes		         1	        23


                                     CITATION
                                     --------
                Please cite the following reference when publishing
                           results obtained with NWChem:

                 M. Valiev, E.J. Bylaska, N. Govind, K. Kowalski,
              T.P. Straatsma, H.J.J. van Dam, D. Wang, J. Nieplocha,
                        E. Apra, T.L. Windus, W.A. de Jong
                 "NWChem: a comprehensive and scalable open-source
                  solution for large scale molecular simulations"
                      Comput. Phys. Commun. 181, 1477 (2010)
                           doi:10.1016/j.cpc.2010.04.018

                                      AUTHORS
                                      -------
          E. Apra, E. J. Bylaska, W. A. de Jong, N. Govind, K. Kowalski,
       T. P. Straatsma, M. Valiev, H. J. J. van Dam, D. Wang, T. L. Windus,
        J. Hammond, J. Autschbach, K. Bhaskaran-Nair, J. Brabec, K. Lopata,
    S. A. Fischer, S. Krishnamoorthy, M. Jacquelin, W. Ma, M. Klemm, O. Villa,
      Y. Chen, V. Anisimov, F. Aquino, S. Hirata, M. T. Hackler, V. Konjkov,
            D. Mejia-Rodriguez, T. Risthaus, M. Malagoli, A. Marenich,
   A. Otero-de-la-Roza, J. Mullin, P. Nichols, R. Peverati, J. Pittner, Y. Zhao,
        P.-D. Fan, A. Fonari, M. J. Williamson, R. J. Harrison, J. R. Rehr,
      M. Dupuis, D. Silverstein, D. M. A. Smith, J. Nieplocha, V. Tipparaju,
    M. Krishnan, B. E. Van Kuiken, A. Vazquez-Mayagoitia, L. Jensen, M. Swart,
      Q. Wu, T. Van Voorhis, A. A. Auer, M. Nooijen, L. D. Crosby, E. Brown,
      G. Cisneros, G. I. Fann, H. Fruchtl, J. Garza, K. Hirao, R. A. Kendall,
      J. A. Nichols, K. Tsemekhman, K. Wolinski, J. Anchell, D. E. Bernholdt,
      P. Borowski, T. Clark, D. Clerc, H. Dachsel, M. J. O. Deegan, K. Dyall,
    D. Elwood, E. Glendening, M. Gutowski, A. C. Hess, J. Jaffe, B. G. Johnson,
     J. Ju, R. Kobayashi, R. Kutteh, Z. Lin, R. Littlefield, X. Long, B. Meng,
      T. Nakajima, S. Niu, L. Pollack, M. Rosing, K. Glaesemann, G. Sandrone,
      M. Stave, H. Taylor, G. Thomas, J. H. van Lenthe, A. T. Wong, Z. Zhang.

 Total times  cpu:        6.1s     wall:        6.2s
[0] ARMCI Warning: Freed 1 leaked allocations
