 argument  1 = /home/list1234/source/nwchem-6.8.1-release/QA/tests/oniom2/oniom2.nw



============================== echo of input deck ==============================
echo

start

# Test of two-layer ONIOM geometry optimization and unscaled frequencies
# for acetaldehyde following
# Dapprich, Komaromi, Byun, Morokuma and Frisch, J. Mol. Struct (Theochem)
# 461-462 (1999) 1-21.

# Vibrational frequencies and geometry are correctly reproduced.
# See end for the correct output, or look in the paper.

geometry # sto-3g optmized geometry
  O     0.25977444     1.26351414    -0.32184727
  H    -1.42512409     0.38186873     0.37668588
  C    -0.38369252     0.28899452     0.02138351
  H     0.11527688    -1.57028792     1.00746379
  H    -0.46513157    -1.76803678    -0.64211149
  H     1.17645788    -1.17137932    -0.35247229
  C     0.15223603    -1.15091137     0.00543109
end

basis sto-3g
  h library sto-3g
  c library sto-3g
  o library sto-3g
end

basis dunning
  h library "SV (Dunning-Hay)"
  c library "SV (Dunning-Hay)"
  o library "SV (Dunning-Hay)"
end

scf; thresh 1e-6; end
dft; xc b3lyp; grid fine; convergence density 1e-6; end

oniom
  print low
  high dft basis dunning
  low  scf basis sto-3g
  model 3  3 7 0.709
end

driver; clear; end  # So that results are more reproducible
task oniom optimize

task oniom freq
================================================================================


                                         
                                         


              Northwest Computational Chemistry Package (NWChem) 6.8
              ------------------------------------------------------


                    Environmental Molecular Sciences Laboratory
                       Pacific Northwest National Laboratory
                                Richland, WA 99352

                              Copyright (c) 1994-2018
                       Pacific Northwest National Laboratory
                            Battelle Memorial Institute

             NWChem is an open-source computational chemistry package
                        distributed under the terms of the
                      Educational Community License (ECL) 2.0
             A copy of the license is included with this distribution
                              in the LICENSE.TXT file

                                  ACKNOWLEDGMENT
                                  --------------

            This software and its documentation were developed at the
            EMSL at Pacific Northwest National Laboratory, a multiprogram
            national laboratory, operated for the U.S. Department of Energy
            by Battelle under Contract Number DE-AC05-76RL01830. Support
            for this work was provided by the Department of Energy Office
            of Biological and Environmental Research, Office of Basic
            Energy Sciences, and the Office of Advanced Scientific Computing.


           Job information
           ---------------

    hostname        = list1234-B360M-H
    program         = /home/list1234/source/nwchem-6.8.1-release/bin/LINUX64/nwchem
    date            = Sun Jun 30 13:25:48 2019

    compiled        = Sun_Jun_30_11:55:59_2019
    source          = /home/list1234/source/nwchem-6.8.1-release
    nwchem branch   = Development
    nwchem revision = N/A
    ga revision     = 5.6.5
    use scalapack   = T
    input           = /home/list1234/source/nwchem-6.8.1-release/QA/tests/oniom2/oniom2.nw
    prefix          = oniom2.
    data base       = ./oniom2.db
    status          = startup
    nproc           =        4
    time left       =     -1s



           Memory information
           ------------------

    heap     =   86247162 doubles =    658.0 Mbytes
    stack    =   86247167 doubles =    658.0 Mbytes
    global   =  172494336 doubles =   1316.0 Mbytes (distinct from heap & stack)
    total    =  344988665 doubles =   2632.1 Mbytes
    verify   = yes
    hardfail = no 


           Directory information
           ---------------------

  0 permanent = .
  0 scratch   = .




                                NWChem Input Module
                                -------------------



 Scaling coordinates for geometry "geometry" by  1.889725989
 (inverse scale =  0.529177249)

 CS  symmetry detected

          ------
          auto-z
          ------
  no constraints, skipping    0.0000000000000000     
  no constraints, skipping    0.0000000000000000     


                             Geometry "geometry" -> ""
                             -------------------------

 Output coordinates in angstroms (scale by  1.889725989 to convert to a.u.)

  No.       Tag          Charge          X              Y              Z
 ---- ---------------- ---------- -------------- -------------- --------------
    1 O                    8.0000     0.25081180     1.25358432     0.00000000
    2 H                    1.0000    -1.51812938     0.26617491     0.00000000
    3 C                    6.0000    -0.41430776     0.23419158     0.00000000
    4 H                    1.0000    -0.16128196    -1.72538860     0.87992573
    5 H                    1.0000    -0.16128196    -1.72538860    -0.87992573
    6 H                    1.0000     1.26093179    -1.14425016     0.00000000
    7 C                    6.0000     0.17651894    -1.18416193     0.00000000

      Atomic Mass 
      ----------- 

      O                 15.994910
      H                  1.007825
      C                 12.000000


 Effective nuclear repulsion energy (a.u.)      69.0478537839

            Nuclear Dipole moment (a.u.) 
            ----------------------------
        X                 Y               Z
 ---------------- ---------------- ----------------
    -0.0000000000     0.0000000000     0.0000000000

      Symmetry information
      --------------------

 Group name             Cs        
 Group number              2
 Group order               2
 No. of unique centers     6

      Symmetry unique atoms

     1    2    3    4    6    7



                                Z-matrix (autoz)
                                -------- 

 Units are Angstrom for bonds and degrees for angles

      Type          Name      I     J     K     L     M      Value
      ----------- --------  ----- ----- ----- ----- ----- ----------
    1 Stretch                  1     3                       1.21719
    2 Stretch                  2     3                       1.10428
    3 Stretch                  3     7                       1.53649
    4 Stretch                  4     7                       1.08688
    5 Stretch                  5     7                       1.08688
    6 Stretch                  6     7                       1.08515
    7 Bend                     1     3     2               121.46341
    8 Bend                     1     3     7               124.26233
    9 Bend                     2     3     7               114.27425
   10 Bend                     3     7     4               109.88695
   11 Bend                     3     7     5               109.88695
   12 Bend                     3     7     6               110.50675
   13 Bend                     4     7     5               108.11173
   14 Bend                     4     7     6               109.20226
   15 Bend                     5     7     6               109.20226
   16 Torsion                  1     3     7     4         120.57875
   17 Torsion                  1     3     7     5        -120.57875
   18 Torsion                  1     3     7     6           0.00000
   19 Torsion                  2     3     7     4         -59.42125
   20 Torsion                  2     3     7     5          59.42125
   21 Torsion                  2     3     7     6         180.00000


            XYZ format geometry
            -------------------
     7
 geometry
 O                     0.25081180     1.25358432     0.00000000
 H                    -1.51812938     0.26617491     0.00000000
 C                    -0.41430776     0.23419158     0.00000000
 H                    -0.16128196    -1.72538860     0.87992573
 H                    -0.16128196    -1.72538860    -0.87992573
 H                     1.26093179    -1.14425016     0.00000000
 C                     0.17651894    -1.18416193     0.00000000

 ==============================================================================
                                internuclear distances
 ------------------------------------------------------------------------------
       center one      |      center two      | atomic units |  angstroms
 ------------------------------------------------------------------------------
    3 C                |   1 O                |     2.30015  |     1.21719
    3 C                |   2 H                |     2.08680  |     1.10428
    7 C                |   3 C                |     2.90355  |     1.53649
    7 C                |   4 H                |     2.05390  |     1.08688
    7 C                |   5 H                |     2.05390  |     1.08688
    7 C                |   6 H                |     2.05063  |     1.08515
 ------------------------------------------------------------------------------
                         number of included internuclear distances:          6
 ==============================================================================



 ==============================================================================
                                 internuclear angles
 ------------------------------------------------------------------------------
        center 1       |       center 2       |       center 3       |  degrees
 ------------------------------------------------------------------------------
    1 O                |   3 C                |   2 H                |   121.46
    1 O                |   3 C                |   7 C                |   124.26
    2 H                |   3 C                |   7 C                |   114.27
    3 C                |   7 C                |   4 H                |   109.89
    3 C                |   7 C                |   5 H                |   109.89
    3 C                |   7 C                |   6 H                |   110.51
    4 H                |   7 C                |   5 H                |   108.11
    4 H                |   7 C                |   6 H                |   109.20
    5 H                |   7 C                |   6 H                |   109.20
 ------------------------------------------------------------------------------
                            number of included internuclear angles:          9
 ==============================================================================



                      Basis "sto-3g" -> "" (cartesian)
                      -----
  h (Hydrogen)
  ------------
            Exponent  Coefficients 
       -------------- ---------------------------------------------------------
  1 S  3.42525091E+00  0.154329
  1 S  6.23913730E-01  0.535328
  1 S  1.68855400E-01  0.444635

  c (Carbon)
  ----------
            Exponent  Coefficients 
       -------------- ---------------------------------------------------------
  1 S  7.16168370E+01  0.154329
  1 S  1.30450960E+01  0.535328
  1 S  3.53051220E+00  0.444635

  2 S  2.94124940E+00 -0.099967
  2 S  6.83483100E-01  0.399513
  2 S  2.22289900E-01  0.700115

  3 P  2.94124940E+00  0.155916
  3 P  6.83483100E-01  0.607684
  3 P  2.22289900E-01  0.391957

  o (Oxygen)
  ----------
            Exponent  Coefficients 
       -------------- ---------------------------------------------------------
  1 S  1.30709320E+02  0.154329
  1 S  2.38088610E+01  0.535328
  1 S  6.44360830E+00  0.444635

  2 S  5.03315130E+00 -0.099967
  2 S  1.16959610E+00  0.399513
  2 S  3.80389000E-01  0.700115

  3 P  5.03315130E+00  0.155916
  3 P  1.16959610E+00  0.607684
  3 P  3.80389000E-01  0.391957



 Summary of "sto-3g" -> "" (cartesian)
 ------------------------------------------------------------------------------
       Tag                 Description            Shells   Functions and Types
 ---------------- ------------------------------  ------  ---------------------
 h                           sto-3g                  1        1   1s
 c                           sto-3g                  3        5   2s1p
 o                           sto-3g                  3        5   2s1p


                      Basis "dunning" -> "" (cartesian)
                      -----
  h (Hydrogen)
  ------------
            Exponent  Coefficients 
       -------------- ---------------------------------------------------------
  1 S  1.92384000E+01  0.032828
  1 S  2.89870000E+00  0.231204
  1 S  6.53500000E-01  0.817226

  2 S  1.77600000E-01  1.000000

  c (Carbon)
  ----------
            Exponent  Coefficients 
       -------------- ---------------------------------------------------------
  1 S  4.23300000E+03  0.001220
  1 S  6.34900000E+02  0.009342
  1 S  1.46100000E+02  0.045452
  1 S  4.25000000E+01  0.154657
  1 S  1.41900000E+01  0.358866
  1 S  5.14800000E+00  0.438632
  1 S  1.96700000E+00  0.145918

  2 S  5.14800000E+00 -0.168367
  2 S  4.96200000E-01  1.060091

  3 S  1.53300000E-01  1.000000

  4 P  1.81600000E+01  0.018539
  4 P  3.98600000E+00  0.115436
  4 P  1.14300000E+00  0.386188
  4 P  3.59400000E-01  0.640114

  5 P  1.14600000E-01  1.000000

  o (Oxygen)
  ----------
            Exponent  Coefficients 
       -------------- ---------------------------------------------------------
  1 S  7.81700000E+03  0.001176
  1 S  1.17600000E+03  0.008968
  1 S  2.73200000E+02  0.042868
  1 S  8.11700000E+01  0.143930
  1 S  2.71800000E+01  0.355630
  1 S  9.53200000E+00  0.461248
  1 S  3.41400000E+00  0.140206

  2 S  9.53200000E+00 -0.154153
  2 S  9.39800000E-01  1.056914

  3 S  2.84600000E-01  1.000000

  4 P  3.51800000E+01  0.019580
  4 P  7.90400000E+00  0.124200
  4 P  2.30500000E+00  0.394714
  4 P  7.17100000E-01  0.627376

  5 P  2.13700000E-01  1.000000



 Summary of "dunning" -> "" (cartesian)
 ------------------------------------------------------------------------------
       Tag                 Description            Shells   Functions and Types
 ---------------- ------------------------------  ------  ---------------------
 h                      SV (Dunning-Hay)             2        2   2s
 c                      SV (Dunning-Hay)             5        9   3s2p
 o                      SV (Dunning-Hay)             5        9   3s2p



  Deleted DRIVER restart files 



                           NWChem Geometry Optimization
                           ----------------------------


  no constraints, skipping    0.0000000000000000     
 maximum gradient threshold         (gmax) =   0.000450
 rms gradient threshold             (grms) =   0.000300
 maximum cartesian step threshold   (xmax) =   0.001800
 rms cartesian step threshold       (xrms) =   0.001200
 fixed trust radius                (trust) =   0.300000
 maximum step size to saddle      (sadstp) =   0.100000
 energy precision                  (eprec) =   1.0D-07
 maximum number of steps          (nptopt) =   20
 initial hessian option           (inhess) =    0
 line search option               (linopt) =    1
 hessian update option            (modupd) =    1
 saddle point option              (modsad) =    0
 initial eigen-mode to follow     (moddir) =    0
 initial variable to follow       (vardir) =    0
 follow first negative mode     (firstneg) =    T
 apply conjugacy                    (opcg) =    F
 source of zmatrix                         =   autoz   


          -------------------
          Energy Minimization
          -------------------


 Names of Z-matrix variables 
    1              2              3              4              5         
    6              7              8              9             10         
   11             12             13             14             15         
   16             17             18             19             20         
   21         

 Variables with the same non-blank name are constrained to be equal


 Using diagonal initial Hessian 
 Scaling for Hessian diagonals: bonds = 1.00  angles = 0.25  torsions = 0.10

          --------
          Step   0
          --------


                         Geometry "geometry" -> "geometry"
                         ---------------------------------

 Output coordinates in angstroms (scale by  1.889725989 to convert to a.u.)

  No.       Tag          Charge          X              Y              Z
 ---- ---------------- ---------- -------------- -------------- --------------
    1 O                    8.0000     0.25081180     1.25358432     0.00000000
    2 H                    1.0000    -1.51812938     0.26617491     0.00000000
    3 C                    6.0000    -0.41430776     0.23419158     0.00000000
    4 H                    1.0000    -0.16128196    -1.72538860     0.87992573
    5 H                    1.0000    -0.16128196    -1.72538860    -0.87992573
    6 H                    1.0000     1.26093179    -1.14425016     0.00000000
    7 C                    6.0000     0.17651894    -1.18416193     0.00000000

      Atomic Mass 
      ----------- 

      O                 15.994910
      H                  1.007825
      C                 12.000000


 Effective nuclear repulsion energy (a.u.)      69.0478537839

            Nuclear Dipole moment (a.u.) 
            ----------------------------
        X                 Y               Z
 ---------------- ---------------- ----------------
    -0.0000000000     0.0000000000     0.0000000000

      Symmetry information
      --------------------

 Group name             Cs        
 Group number              2
 Group order               2
 No. of unique centers     6

      Symmetry unique atoms

     1    2    3    4    6    7

                                NWChem ONIOM Module
                                -------------------


       Theory
       ------
         high  theory=dft  basis="dunning"
          low  theory=scf  basis="sto-3g"

      Vectors
      -------
          High-model  ./oniom2.hmmos
            Low-real  ./oniom2.lrmos
           Low-model  ./oniom2.lmmos

     Geometry
     --------
         real     7 atoms with charge  0.0000
        model     3 atoms with charge  0.0000
             Bonds between model and real/intermediate
                       3   7  0.71  "H oniom"

  Making model geometry 

              ONIOM LOW+REAL
              --------------
                                 NWChem SCF Module
                                 -----------------



  ao basis        = "sto-3g"
  functions       =    19
  atoms           =     7
  closed shells   =    12
  open shells     =     0
  charge          =   0.00
  wavefunction    = RHF 
  input vectors   = atomic
  output vectors  = ./oniom2.lrmos
  use symmetry    = T
  symmetry adapt  = T


 Forming initial guess at       0.1s


 Starting SCF solution at       0.1s



       Final RHF  results 
       ------------------ 

         Total SCF energy =   -150.945992976955
      One-electron energy =   -343.055936719929
      Two-electron energy =    123.062089959067
 Nuclear repulsion energy =     69.047853783908

        Time for solution =      0.1s


                              NWChem Gradients Module
                              -----------------------



                         RHF ENERGY GRADIENTS

    atom               coordinates                        gradient
                 x          y          z           x          y          z
   1 O       0.473966   2.368931   0.000000   -0.000005  -0.000004   0.000000
   2 H      -2.868849   0.502998   0.000000    0.000003  -0.000002   0.000000
   3 C      -0.782928   0.442558   0.000000    0.000004   0.000004   0.000000
   4 H      -0.304779  -3.260512   1.662819   -0.000002   0.000002  -0.000005
   5 H      -0.304779  -3.260512  -1.662819   -0.000002   0.000002   0.000005
   6 H       2.382816  -2.162319   0.000000    0.000000   0.000000   0.000000
   7 C       0.333572  -2.237742   0.000000    0.000001  -0.000003   0.000000

              ONIOM LOW+MODEL
              ---------------
                                 NWChem SCF Module
                                 -----------------



  ao basis        = "sto-3g"
  functions       =    12
  atoms           =     4
  closed shells   =     8
  open shells     =     0
  charge          =   0.00
  wavefunction    = RHF 
  input vectors   = atomic
  output vectors  = ./oniom2.lmmos
  use symmetry    = T
  symmetry adapt  = T


 Forming initial guess at       0.2s


 Starting SCF solution at       0.2s



       Final RHF  results 
       ------------------ 

         Total SCF energy =   -112.354098171670
      One-electron energy =   -215.802976905489
      Two-electron energy =     72.338723203936
 Nuclear repulsion energy =     31.110155529883

        Time for solution =      0.1s


                              NWChem Gradients Module
                              -----------------------



                         RHF ENERGY GRADIENTS

    atom               coordinates                        gradient
                 x          y          z           x          y          z
   1 O       0.473966   2.368931   0.000000   -0.003438   0.003056   0.000000
   2 H      -2.868849   0.502998   0.000000   -0.001928   0.001981   0.000000
   3 C      -0.782928   0.442558   0.000000    0.012113  -0.013086   0.000000
   4 H on    0.008671  -1.457774   0.000000   -0.006747   0.008049   0.000000

             ONIOM HIGH+MODEL
             ----------------

                                 NWChem DFT Module
                                 -----------------



  Caching 1-el integrals 
   Time after variat. SCF:      0.4
   Time prior to 1st pass:      0.4
  Resetting Diis


         Total DFT energy =     -114.482430868448
      One electron energy =     -216.936982743708
           Coulomb energy =       86.043771398281
    Exchange-Corr. energy =      -14.699375052904
 Nuclear repulsion energy =       31.110155529883

 Numeric. integr. density =       15.999999958376

     Total iterative time =      0.2s



                  Occupations of the irreducible representations
                  ----------------------------------------------

                     irrep           alpha         beta
                     --------     --------     --------
                     a'                7.0          7.0
                     a"                1.0          1.0



                         DFT ENERGY GRADIENTS

    atom               coordinates                        gradient
                 x          y          z           x          y          z
   1 O       0.473966   2.368931   0.000000   -0.023024  -0.028308   0.000000
   2 H      -2.868849   0.502998   0.000000    0.003491  -0.000058   0.000000
   3 C      -0.782928   0.442558   0.000000    0.028034   0.018929   0.000000
   4 H on    0.008671  -1.457774   0.000000   -0.008501   0.009438   0.000000

               ONIOM summary
               -------------

        +   LOW + REAL     -150.945992976955
        +  HIGH + MODEL    -114.482430868448
        -   LOW + MODEL    -112.354098171670
           ------------ 
        =        ONIOM2    -153.074325673732



                         ONIOM ENERGY GRADIENTS

    atom               coordinates                        gradient
                 x          y          z           x          y          z
   1 O       0.473966   2.368931   0.000000   -0.019591  -0.031368   0.000000
   2 H      -2.868849   0.502998   0.000000    0.005421  -0.002041   0.000000
   3 C      -0.782928   0.442558   0.000000    0.015415   0.032423   0.000000
   4 H      -0.304779  -3.260512   1.662819   -0.000002   0.000002  -0.000005
   5 H      -0.304779  -3.260512  -1.662819   -0.000002   0.000002   0.000005
   6 H       2.382816  -2.162319   0.000000    0.000000   0.000000   0.000000
   7 C       0.333572  -2.237742   0.000000   -0.001242   0.000981   0.000000

  no constraints, skipping    0.0000000000000000     

@ Step       Energy      Delta E   Gmax     Grms     Xrms     Xmax   Walltime
@ ---- ---------------- -------- -------- -------- -------- -------- --------
@    0    -153.07432567  0.0D+00  0.03698  0.00817  0.00000  0.00000      0.7
                                                                    



                                Z-matrix (autoz)
                                -------- 

 Units are Angstrom for bonds and degrees for angles

      Type          Name      I     J     K     L     M      Value     Gradient
      ----------- --------  ----- ----- ----- ----- ----- ---------- ----------
    1 Stretch                  1     3                       1.21719   -0.03698
    2 Stretch                  2     3                       1.10428   -0.00548
    3 Stretch                  3     7                       1.53649   -0.00139
    4 Stretch                  4     7                       1.08688   -0.00000
    5 Stretch                  5     7                       1.08688   -0.00000
    6 Stretch                  6     7                       1.08515    0.00000
    7 Bend                     1     3     2               121.46341    0.00099
    8 Bend                     1     3     7               124.26233    0.00010
    9 Bend                     2     3     7               114.27425   -0.00109
   10 Bend                     3     7     4               109.88695   -0.00000
   11 Bend                     3     7     5               109.88695   -0.00000
   12 Bend                     3     7     6               110.50675    0.00000
   13 Bend                     4     7     5               108.11173   -0.00000
   14 Bend                     4     7     6               109.20226    0.00000
   15 Bend                     5     7     6               109.20226    0.00000
   16 Torsion                  1     3     7     4         120.57875    0.00000
   17 Torsion                  1     3     7     5        -120.57875   -0.00000
   18 Torsion                  1     3     7     6           0.00000    0.00000
   19 Torsion                  2     3     7     4         -59.42125    0.00000
   20 Torsion                  2     3     7     5          59.42125   -0.00000
   21 Torsion                  2     3     7     6         180.00000    0.00000

  no constraints, skipping    0.0000000000000000     
  no constraints, skipping    0.0000000000000000     
  no constraints, skipping    0.0000000000000000     
  no constraints, skipping    0.0000000000000000     
                                NWChem ONIOM Module
                                -------------------


       Theory
       ------
         high  theory=dft  basis="dunning"
          low  theory=scf  basis="sto-3g"

      Vectors
      -------
          High-model  ./oniom2.hmmos
            Low-real  ./oniom2.lrmos
           Low-model  ./oniom2.lmmos

     Geometry
     --------
         real     7 atoms with charge  0.0000
        model     3 atoms with charge  0.0000
             Bonds between model and real/intermediate
                       3   7  0.71  "H oniom"

  Making model geometry 

              ONIOM LOW+REAL
              --------------
                                 NWChem SCF Module
                                 -----------------



  ao basis        = "sto-3g"
  functions       =    19
  atoms           =     7
  closed shells   =    12
  open shells     =     0
  charge          =   0.00
  wavefunction    = RHF 
  input vectors   = atomic
  output vectors  = ./oniom2.movecs
  use symmetry    = T
  symmetry adapt  = T


 Forming initial guess at       0.7s


 Starting SCF solution at       0.7s



       Final RHF  results 
       ------------------ 

         Total SCF energy =   -150.943489253852
      One-electron energy =   -341.477859569385
      Two-electron energy =    122.350218739669
 Nuclear repulsion energy =     68.184151575865

        Time for solution =      0.1s


              ONIOM LOW+MODEL
              ---------------
                                 NWChem SCF Module
                                 -----------------



  ao basis        = "sto-3g"
  functions       =    12
  atoms           =     4
  closed shells   =     8
  open shells     =     0
  charge          =   0.00
  wavefunction    = RHF 
  input vectors   = atomic
  output vectors  = ./oniom2.movecs
  use symmetry    = T
  symmetry adapt  = T


 Forming initial guess at       0.8s


 Starting SCF solution at       0.9s



       Final RHF  results 
       ------------------ 

         Total SCF energy =   -112.351489163970
      One-electron energy =   -214.569489512531
      Two-electron energy =     71.801921767958
 Nuclear repulsion energy =     30.416078580602

        Time for solution =      0.1s


             ONIOM HIGH+MODEL
             ----------------

                                 NWChem DFT Module
                                 -----------------



  Caching 1-el integrals 
   Time after variat. SCF:      1.0
   Time prior to 1st pass:      1.0


         Total DFT energy =     -114.483045695778
      One electron energy =     -215.627622359133
           Coulomb energy =       85.394843500410
    Exchange-Corr. energy =      -14.666345417657
 Nuclear repulsion energy =       30.416078580602

 Numeric. integr. density =       15.999999977023

     Total iterative time =      0.2s



                  Occupations of the irreducible representations
                  ----------------------------------------------

                     irrep           alpha         beta
                     --------     --------     --------
                     a'                7.0          7.0
                     a"                1.0          1.0

               ONIOM summary
               -------------

        +   LOW + REAL     -150.943489253852
        +  HIGH + MODEL    -114.483045695778
        -   LOW + MODEL    -112.351489163970
           ------------ 
        =        ONIOM2    -153.075045785659

 Line search: 
     step= 1.00 grad=-2.6D-03 hess= 1.9D-03 energy=   -153.075046 mode=downhill
 new step= 0.69                   predicted energy=   -153.075234
  no constraints, skipping    0.0000000000000000     
  no constraints, skipping    0.0000000000000000     
  no constraints, skipping    0.0000000000000000     
  no constraints, skipping    0.0000000000000000     

          --------
          Step   1
          --------


                         Geometry "geometry" -> "geometry"
                         ---------------------------------

 Output coordinates in angstroms (scale by  1.889725989 to convert to a.u.)

  No.       Tag          Charge          X              Y              Z
 ---- ---------------- ---------- -------------- -------------- --------------
    1 O                    8.0000     0.25957894     1.27125165     0.00000000
    2 H                    1.0000    -1.52708688     0.26778256     0.00000000
    3 C                    6.0000    -0.41752485     0.23019866     0.00000000
    4 H                    1.0000    -0.15983425    -1.73013786     0.87993157
    5 H                    1.0000    -0.15983425    -1.73013786    -0.87993157
    6 H                    1.0000     1.26114430    -1.14599964     0.00000000
    7 C                    6.0000     0.17681845    -1.18819599     0.00000000

      Atomic Mass 
      ----------- 

      O                 15.994910
      H                  1.007825
      C                 12.000000


 Effective nuclear repulsion energy (a.u.)      68.4499921589

            Nuclear Dipole moment (a.u.) 
            ----------------------------
        X                 Y               Z
 ---------------- ---------------- ----------------
     0.0884052443     0.1578609318     0.0000000000

      Symmetry information
      --------------------

 Group name             Cs        
 Group number              2
 Group order               2
 No. of unique centers     6

      Symmetry unique atoms

     1    2    3    4    6    7

                                NWChem ONIOM Module
                                -------------------


       Theory
       ------
         high  theory=dft  basis="dunning"
          low  theory=scf  basis="sto-3g"

      Vectors
      -------
          High-model  ./oniom2.hmmos
            Low-real  ./oniom2.lrmos
           Low-model  ./oniom2.lmmos

     Geometry
     --------
         real     7 atoms with charge  0.0000
        model     3 atoms with charge  0.0000
             Bonds between model and real/intermediate
                       3   7  0.71  "H oniom"

  Making model geometry 

              ONIOM LOW+REAL
              --------------
                                 NWChem SCF Module
                                 -----------------



  ao basis        = "sto-3g"
  functions       =    19
  atoms           =     7
  closed shells   =    12
  open shells     =     0
  charge          =   0.00
  wavefunction    = RHF 
  input vectors   = atomic
  output vectors  = ./oniom2.movecs
  use symmetry    = T
  symmetry adapt  = T


 Forming initial guess at       1.2s


 Starting SCF solution at       1.2s



       Final RHF  results 
       ------------------ 

         Total SCF energy =   -150.944785149582
      One-electron energy =   -341.964943540555
      Two-electron energy =    122.570166232088
 Nuclear repulsion energy =     68.449992158885

        Time for solution =      0.1s


                              NWChem Gradients Module
                              -----------------------



                         RHF ENERGY GRADIENTS

    atom               coordinates                        gradient
                 x          y          z           x          y          z
   1 O       0.490533   2.402317   0.000000    0.026386   0.041312   0.000000
   2 H      -2.885776   0.506036   0.000000   -0.006115   0.000005   0.000000
   3 C      -0.789008   0.435012   0.000000   -0.020906  -0.038544   0.000000
   4 H      -0.302043  -3.269486   1.662830    0.000049   0.000015  -0.000138
   5 H      -0.302043  -3.269486  -1.662830    0.000049   0.000015   0.000138
   6 H       2.383217  -2.165625   0.000000   -0.000064  -0.000024   0.000000
   7 C       0.334138  -2.245365   0.000000    0.000600  -0.002780   0.000000

              ONIOM LOW+MODEL
              ---------------
                                 NWChem SCF Module
                                 -----------------



  ao basis        = "sto-3g"
  functions       =    12
  atoms           =     4
  closed shells   =     8
  open shells     =     0
  charge          =   0.00
  wavefunction    = RHF 
  input vectors   = atomic
  output vectors  = ./oniom2.movecs
  use symmetry    = T
  symmetry adapt  = T


 Forming initial guess at       1.3s


 Starting SCF solution at       1.4s



       Final RHF  results 
       ------------------ 

         Total SCF energy =   -112.352822786139
      One-electron energy =   -214.949473609027
      Two-electron energy =     71.967487677174
 Nuclear repulsion energy =     30.629163145715

        Time for solution =      0.1s


                              NWChem Gradients Module
                              -----------------------



                         RHF ENERGY GRADIENTS

    atom               coordinates                        gradient
                 x          y          z           x          y          z
   1 O       0.490533   2.402317   0.000000    0.023394   0.044678   0.000000
   2 H      -2.885776   0.506036   0.000000   -0.008138   0.001981   0.000000
   3 C      -0.789008   0.435012   0.000000   -0.008833  -0.052486   0.000000
   4 H on    0.007303  -1.465375   0.000000   -0.006423   0.005826   0.000000

             ONIOM HIGH+MODEL
             ----------------

                                 NWChem DFT Module
                                 -----------------



  Caching 1-el integrals 
   Time after variat. SCF:      1.5
   Time prior to 1st pass:      1.5


         Total DFT energy =     -114.483250094491
      One electron energy =     -216.030563789736
           Coulomb energy =       85.594586362629
    Exchange-Corr. energy =      -14.676435813099
 Nuclear repulsion energy =       30.629163145715

 Numeric. integr. density =       15.999999979971

     Total iterative time =      0.2s



                  Occupations of the irreducible representations
                  ----------------------------------------------

                     irrep           alpha         beta
                     --------     --------     --------
                     a'                7.0          7.0
                     a"                1.0          1.0



                         DFT ENERGY GRADIENTS

    atom               coordinates                        gradient
                 x          y          z           x          y          z
   1 O       0.490533   2.402317   0.000000   -0.002344   0.003726   0.000000
   2 H      -2.885776   0.506036   0.000000   -0.001483  -0.000271   0.000000
   3 C      -0.789008   0.435012   0.000000    0.012165  -0.010733   0.000000
   4 H on    0.007303  -1.465375   0.000000   -0.008339   0.007278   0.000000

               ONIOM summary
               -------------

        +   LOW + REAL     -150.944785149582
        +  HIGH + MODEL    -114.483250094491
        -   LOW + MODEL    -112.352822786139
           ------------ 
        =        ONIOM2    -153.075212457934



                         ONIOM ENERGY GRADIENTS

    atom               coordinates                        gradient
                 x          y          z           x          y          z
   1 O       0.490533   2.402317   0.000000    0.000648   0.000360   0.000000
   2 H      -2.885776   0.506036   0.000000    0.000539  -0.002247   0.000000
   3 C      -0.789008   0.435012   0.000000   -0.000465   0.003631   0.000000
   4 H      -0.302043  -3.269486   1.662830    0.000049   0.000015  -0.000138
   5 H      -0.302043  -3.269486  -1.662830    0.000049   0.000015   0.000138
   6 H       2.383217  -2.165625   0.000000   -0.000064  -0.000024   0.000000
   7 C       0.334138  -2.245365   0.000000   -0.000758  -0.001751   0.000000

  no constraints, skipping    0.0000000000000000     

  Step       Energy      Delta E   Gmax     Grms     Xrms     Xmax   Walltime
  ---- ---------------- -------- -------- -------- -------- -------- --------
@    1    -153.07521246 -8.9D-04  0.00151  0.00054  0.00982  0.03342      1.8
                                                                    



                                Z-matrix (autoz)
                                -------- 

 Units are Angstrom for bonds and degrees for angles

      Type          Name      I     J     K     L     M      Value     Gradient
      ----------- --------  ----- ----- ----- ----- ----- ---------- ----------
    1 Stretch                  1     3                       1.24188    0.00066
    2 Stretch                  2     3                       1.11020   -0.00062
    3 Stretch                  3     7                       1.53788    0.00133
    4 Stretch                  4     7                       1.08688   -0.00013
    5 Stretch                  5     7                       1.08688   -0.00013
    6 Stretch                  6     7                       1.08515   -0.00006
    7 Bend                     1     3     2               121.10007    0.00097
    8 Bend                     1     3     7               124.22499    0.00054
    9 Bend                     2     3     7               114.67494   -0.00151
   10 Bend                     3     7     4               109.88744    0.00003
   11 Bend                     3     7     5               109.88744    0.00003
   12 Bend                     3     7     6               110.50639    0.00001
   13 Bend                     4     7     5               108.11207   -0.00004
   14 Bend                     4     7     6               109.20179   -0.00002
   15 Bend                     5     7     6               109.20179   -0.00002
   16 Torsion                  1     3     7     4         120.57823    0.00000
   17 Torsion                  1     3     7     5        -120.57823   -0.00000
   18 Torsion                  1     3     7     6           0.00000   -0.00000
   19 Torsion                  2     3     7     4         -59.42177    0.00000
   20 Torsion                  2     3     7     5          59.42177   -0.00000
   21 Torsion                  2     3     7     6         180.00000    0.00000

  no constraints, skipping    0.0000000000000000     
  no constraints, skipping    0.0000000000000000     
  no constraints, skipping    0.0000000000000000     
  no constraints, skipping    0.0000000000000000     
                                NWChem ONIOM Module
                                -------------------


       Theory
       ------
         high  theory=dft  basis="dunning"
          low  theory=scf  basis="sto-3g"

      Vectors
      -------
          High-model  ./oniom2.hmmos
            Low-real  ./oniom2.lrmos
           Low-model  ./oniom2.lmmos

     Geometry
     --------
         real     7 atoms with charge  0.0000
        model     3 atoms with charge  0.0000
             Bonds between model and real/intermediate
                       3   7  0.71  "H oniom"

  Making model geometry 

              ONIOM LOW+REAL
              --------------
                                 NWChem SCF Module
                                 -----------------



  ao basis        = "sto-3g"
  functions       =    19
  atoms           =     7
  closed shells   =    12
  open shells     =     0
  charge          =   0.00
  wavefunction    = RHF 
  input vectors   = atomic
  output vectors  = ./oniom2.movecs
  use symmetry    = T
  symmetry adapt  = T


 Forming initial guess at       1.8s


 Starting SCF solution at       1.8s



       Final RHF  results 
       ------------------ 

         Total SCF energy =   -150.944736345744
      One-electron energy =   -342.035324502409
      Two-electron energy =    122.607721335556
 Nuclear repulsion energy =     68.482866821108

        Time for solution =      0.1s


              ONIOM LOW+MODEL
              ---------------
                                 NWChem SCF Module
                                 -----------------



  ao basis        = "sto-3g"
  functions       =    12
  atoms           =     4
  closed shells   =     8
  open shells     =     0
  charge          =   0.00
  wavefunction    = RHF 
  input vectors   = atomic
  output vectors  = ./oniom2.movecs
  use symmetry    = T
  symmetry adapt  = T


 Forming initial guess at       1.9s


 Starting SCF solution at       1.9s



       Final RHF  results 
       ------------------ 

         Total SCF energy =   -112.352732793831
      One-electron energy =   -214.959179961941
      Two-electron energy =     71.974569369605
 Nuclear repulsion energy =     30.631877798504

        Time for solution =      0.1s


             ONIOM HIGH+MODEL
             ----------------

                                 NWChem DFT Module
                                 -----------------



  Caching 1-el integrals 
   Time after variat. SCF:      2.0
   Time prior to 1st pass:      2.0


         Total DFT energy =     -114.483252462782
      One electron energy =     -216.039204301877
           Coulomb energy =       85.600637781717
    Exchange-Corr. energy =      -14.676563741125
 Nuclear repulsion energy =       30.631877798504

 Numeric. integr. density =       15.999999978319

     Total iterative time =      0.2s



                  Occupations of the irreducible representations
                  ----------------------------------------------

                     irrep           alpha         beta
                     --------     --------     --------
                     a'                7.0          7.0
                     a"                1.0          1.0

               ONIOM summary
               -------------

        +   LOW + REAL     -150.944736345744
        +  HIGH + MODEL    -114.483252462782
        -   LOW + MODEL    -112.352732793831
           ------------ 
        =        ONIOM2    -153.075256014695

 Line search: 
     step= 1.00 grad=-6.9D-05 hess= 2.5D-05 energy=   -153.075256 mode=downhill
 new step= 1.37                   predicted energy=   -153.075259
  no constraints, skipping    0.0000000000000000     
  no constraints, skipping    0.0000000000000000     
  no constraints, skipping    0.0000000000000000     
  no constraints, skipping    0.0000000000000000     

          --------
          Step   2
          --------


                         Geometry "geometry" -> "geometry"
                         ---------------------------------

 Output coordinates in angstroms (scale by  1.889725989 to convert to a.u.)

  No.       Tag          Charge          X              Y              Z
 ---- ---------------- ---------- -------------- -------------- --------------
    1 O                    8.0000     0.25949865     1.26442016     0.00000000
    2 H                    1.0000    -1.53119984     0.28016501     0.00000000
    3 C                    6.0000    -0.42074953     0.22498785     0.00000000
    4 H                    1.0000    -0.15709883    -1.73174912     0.88033508
    5 H                    1.0000    -0.15709883    -1.73174912    -0.88033508
    6 H                    1.0000     1.26210080    -1.14249567     0.00000000
    7 C                    6.0000     0.17780905    -1.18881759     0.00000000

      Atomic Mass 
      ----------- 

      O                 15.994910
      H                  1.007825
      C                 12.000000


 Effective nuclear repulsion energy (a.u.)      68.4950984016

            Nuclear Dipole moment (a.u.) 
            ----------------------------
        X                 Y               Z
 ---------------- ---------------- ----------------
     0.0662341872     0.0123850786     0.0000000000

      Symmetry information
      --------------------

 Group name             Cs        
 Group number              2
 Group order               2
 No. of unique centers     6

      Symmetry unique atoms

     1    2    3    4    6    7

                                NWChem ONIOM Module
                                -------------------


       Theory
       ------
         high  theory=dft  basis="dunning"
          low  theory=scf  basis="sto-3g"

      Vectors
      -------
          High-model  ./oniom2.hmmos
            Low-real  ./oniom2.lrmos
           Low-model  ./oniom2.lmmos

     Geometry
     --------
         real     7 atoms with charge  0.0000
        model     3 atoms with charge  0.0000
             Bonds between model and real/intermediate
                       3   7  0.71  "H oniom"

  Making model geometry 

              ONIOM LOW+REAL
              --------------
                                 NWChem SCF Module
                                 -----------------



  ao basis        = "sto-3g"
  functions       =    19
  atoms           =     7
  closed shells   =    12
  open shells     =     0
  charge          =   0.00
  wavefunction    = RHF 
  input vectors   = atomic
  output vectors  = ./oniom2.movecs
  use symmetry    = T
  symmetry adapt  = T


 Forming initial guess at       2.2s


 Starting SCF solution at       2.3s



       Final RHF  results 
       ------------------ 

         Total SCF energy =   -150.944702497093
      One-electron energy =   -342.061497854814
      Two-electron energy =    122.621696956129
 Nuclear repulsion energy =     68.495098401592

        Time for solution =      0.1s


                              NWChem Gradients Module
                              -----------------------



                         RHF ENERGY GRADIENTS

    atom               coordinates                        gradient
                 x          y          z           x          y          z
   1 O       0.490381   2.389408   0.000000    0.025851   0.040922   0.000000
   2 H      -2.893548   0.529435   0.000000   -0.007369   0.002884   0.000000
   3 C      -0.795101   0.425165   0.000000   -0.020432  -0.043298   0.000000
   4 H      -0.296874  -3.272531   1.663592   -0.000145   0.000184   0.000134
   5 H      -0.296874  -3.272531  -1.663592   -0.000145   0.000184  -0.000134
   6 H       2.385025  -2.159004   0.000000    0.000140  -0.000312   0.000000
   7 C       0.336010  -2.246539   0.000000    0.002100  -0.000564   0.000000

              ONIOM LOW+MODEL
              ---------------
                                 NWChem SCF Module
                                 -----------------



  ao basis        = "sto-3g"
  functions       =    12
  atoms           =     4
  closed shells   =     8
  open shells     =     0
  charge          =   0.00
  wavefunction    = RHF 
  input vectors   = atomic
  output vectors  = ./oniom2.movecs
  use symmetry    = T
  symmetry adapt  = T


 Forming initial guess at       2.4s


 Starting SCF solution at       2.4s



       Final RHF  results 
       ------------------ 

         Total SCF energy =   -112.352685082662
      One-electron energy =   -214.962831837441
      Two-electron energy =     71.977233946187
 Nuclear repulsion energy =     30.632912808592

        Time for solution =      0.1s


                              NWChem Gradients Module
                              -----------------------



                         RHF ENERGY GRADIENTS

    atom               coordinates                        gradient
                 x          y          z           x          y          z
   1 O       0.490381   2.389408   0.000000    0.022762   0.044561   0.000000
   2 H      -2.893548   0.529435   0.000000   -0.009417   0.004817   0.000000
   3 C      -0.795101   0.425165   0.000000   -0.008174  -0.057293   0.000000
   4 H on    0.006857  -1.469073   0.000000   -0.005170   0.007915   0.000000

             ONIOM HIGH+MODEL
             ----------------

                                 NWChem DFT Module
                                 -----------------



  Caching 1-el integrals 
   Time after variat. SCF:      2.5
   Time prior to 1st pass:      2.5


         Total DFT energy =     -114.483242023942
      One electron energy =     -216.042370604270
           Coulomb energy =       85.602819304724
    Exchange-Corr. energy =      -14.676603532987
 Nuclear repulsion energy =       30.632912808592

 Numeric. integr. density =       15.999999977704

     Total iterative time =      0.2s



                  Occupations of the irreducible representations
                  ----------------------------------------------

                     irrep           alpha         beta
                     --------     --------     --------
                     a'                7.0          7.0
                     a"                1.0          1.0



                         DFT ENERGY GRADIENTS

    atom               coordinates                        gradient
                 x          y          z           x          y          z
   1 O       0.490381   2.389408   0.000000   -0.003087   0.003503   0.000000
   2 H      -2.893548   0.529435   0.000000   -0.002546   0.001896   0.000000
   3 C      -0.795101   0.425165   0.000000    0.012931  -0.014091   0.000000
   4 H on    0.006857  -1.469073   0.000000   -0.007298   0.008692   0.000000

               ONIOM summary
               -------------

        +   LOW + REAL     -150.944702497093
        +  HIGH + MODEL    -114.483242023942
        -   LOW + MODEL    -112.352685082662
           ------------ 
        =        ONIOM2    -153.075259438373



                         ONIOM ENERGY GRADIENTS

    atom               coordinates                        gradient
                 x          y          z           x          y          z
   1 O       0.490381   2.389408   0.000000    0.000002  -0.000136   0.000000
   2 H      -2.893548   0.529435   0.000000   -0.000498  -0.000037   0.000000
   3 C      -0.795101   0.425165   0.000000    0.000053   0.000130   0.000000
   4 H      -0.296874  -3.272531   1.663592   -0.000145   0.000184   0.000134
   5 H      -0.296874  -3.272531  -1.663592   -0.000145   0.000184  -0.000134
   6 H       2.385025  -2.159004   0.000000    0.000140  -0.000312   0.000000
   7 C       0.336010  -2.246539   0.000000    0.000592  -0.000012   0.000000

  no constraints, skipping    0.0000000000000000     

  Step       Energy      Delta E   Gmax     Grms     Xrms     Xmax   Walltime
  ---- ---------------- -------- -------- -------- -------- -------- --------
@    2    -153.07525944 -4.7D-05  0.00050  0.00016  0.00701  0.02339      2.8
                                              ok                    



                                Z-matrix (autoz)
                                -------- 

 Units are Angstrom for bonds and degrees for angles

      Type          Name      I     J     K     L     M      Value     Gradient
      ----------- --------  ----- ----- ----- ----- ----- ---------- ----------
    1 Stretch                  1     3                       1.24224   -0.00011
    2 Stretch                  2     3                       1.11182    0.00050
    3 Stretch                  3     7                       1.53529    0.00013
    4 Stretch                  4     7                       1.08717    0.00006
    5 Stretch                  5     7                       1.08717    0.00006
    6 Stretch                  6     7                       1.08528    0.00013
    7 Bend                     1     3     2               120.35779    0.00005
    8 Bend                     1     3     7               123.85138   -0.00004
    9 Bend                     2     3     7               115.79083   -0.00001
   10 Bend                     3     7     4               109.86368   -0.00022
   11 Bend                     3     7     5               109.86368   -0.00022
   12 Bend                     3     7     6               110.49996    0.00033
   13 Bend                     4     7     5               108.14360    0.00014
   14 Bend                     4     7     6               109.21360   -0.00001
   15 Bend                     5     7     6               109.21360   -0.00001
   16 Torsion                  1     3     7     4         120.57343    0.00005
   17 Torsion                  1     3     7     5        -120.57343   -0.00005
   18 Torsion                  1     3     7     6           0.00000    0.00000
   19 Torsion                  2     3     7     4         -59.42657    0.00005
   20 Torsion                  2     3     7     5          59.42657   -0.00005
   21 Torsion                  2     3     7     6         180.00000    0.00000

  no constraints, skipping    0.0000000000000000     
  no constraints, skipping    0.0000000000000000     
  no constraints, skipping    0.0000000000000000     
  no constraints, skipping    0.0000000000000000     
  no constraints, skipping    0.0000000000000000     
  no constraints, skipping    0.0000000000000000     
  no constraints, skipping    0.0000000000000000     
  no constraints, skipping    0.0000000000000000     
                                NWChem ONIOM Module
                                -------------------


       Theory
       ------
         high  theory=dft  basis="dunning"
          low  theory=scf  basis="sto-3g"

      Vectors
      -------
          High-model  ./oniom2.hmmos
            Low-real  ./oniom2.lrmos
           Low-model  ./oniom2.lmmos

     Geometry
     --------
         real     7 atoms with charge  0.0000
        model     3 atoms with charge  0.0000
             Bonds between model and real/intermediate
                       3   7  0.71  "H oniom"

  Making model geometry 

              ONIOM LOW+REAL
              --------------
                                 NWChem SCF Module
                                 -----------------



  ao basis        = "sto-3g"
  functions       =    19
  atoms           =     7
  closed shells   =    12
  open shells     =     0
  charge          =   0.00
  wavefunction    = RHF 
  input vectors   = atomic
  output vectors  = ./oniom2.movecs
  use symmetry    = T
  symmetry adapt  = T


 Forming initial guess at       2.8s


 Starting SCF solution at       2.8s



       Final RHF  results 
       ------------------ 

         Total SCF energy =   -150.944696213339
      One-electron energy =   -342.074749009326
      Two-electron energy =    122.627887948629
 Nuclear repulsion energy =     68.502164847358

        Time for solution =      0.1s


              ONIOM LOW+MODEL
              ---------------
                                 NWChem SCF Module
                                 -----------------



  ao basis        = "sto-3g"
  functions       =    12
  atoms           =     4
  closed shells   =     8
  open shells     =     0
  charge          =   0.00
  wavefunction    = RHF 
  input vectors   = atomic
  output vectors  = ./oniom2.movecs
  use symmetry    = T
  symmetry adapt  = T


 Forming initial guess at       2.9s


 Starting SCF solution at       2.9s



       Final RHF  results 
       ------------------ 

         Total SCF energy =   -112.352669181698
      One-electron energy =   -214.965990763073
      Two-electron energy =     71.978814536994
 Nuclear repulsion energy =     30.634507044382

        Time for solution =      0.1s


             ONIOM HIGH+MODEL
             ----------------

                                 NWChem DFT Module
                                 -----------------



  Caching 1-el integrals 
   Time after variat. SCF:      3.0
   Time prior to 1st pass:      3.0


         Total DFT energy =     -114.483235294384
      One electron energy =     -216.045822867712
           Coulomb energy =       85.604950529891
    Exchange-Corr. energy =      -14.676870000945
 Nuclear repulsion energy =       30.634507044382

 Numeric. integr. density =       15.999999976293

     Total iterative time =      0.2s



                  Occupations of the irreducible representations
                  ----------------------------------------------

                     irrep           alpha         beta
                     --------     --------     --------
                     a'                7.0          7.0
                     a"                1.0          1.0

               ONIOM summary
               -------------

        +   LOW + REAL     -150.944696213339
        +  HIGH + MODEL    -114.483235294384
        -   LOW + MODEL    -112.352669181698
           ------------ 
        =        ONIOM2    -153.075262326025

 Line search: 
     step= 1.00 grad=-5.4D-06 hess= 2.5D-06 energy=   -153.075262 mode=accept  
 new step= 1.00                   predicted energy=   -153.075262
  no constraints, skipping    0.0000000000000000     
  no constraints, skipping    0.0000000000000000     
  no constraints, skipping    0.0000000000000000     
  no constraints, skipping    0.0000000000000000     
  no constraints, skipping    0.0000000000000000     
  no constraints, skipping    0.0000000000000000     
  no constraints, skipping    0.0000000000000000     
  no constraints, skipping    0.0000000000000000     

          --------
          Step   3
          --------


                         Geometry "geometry" -> "geometry"
                         ---------------------------------

 Output coordinates in angstroms (scale by  1.889725989 to convert to a.u.)

  No.       Tag          Charge          X              Y              Z
 ---- ---------------- ---------- -------------- -------------- --------------
    1 O                    8.0000     0.26000676     1.26390506     0.00000000
    2 H                    1.0000    -1.53053220     0.28183163     0.00000000
    3 C                    6.0000    -0.42086512     0.22472542     0.00000000
    4 H                    1.0000    -0.15652123    -1.73344448     0.87992282
    5 H                    1.0000    -0.15652123    -1.73344448    -0.87992282
    6 H                    1.0000     1.26083487    -1.13975132     0.00000000
    7 C                    6.0000     0.17685963    -1.18906032     0.00000000

      Atomic Mass 
      ----------- 

      O                 15.994910
      H                  1.007825
      C                 12.000000


 Effective nuclear repulsion energy (a.u.)      68.5021648474

            Nuclear Dipole moment (a.u.) 
            ----------------------------
        X                 Y               Z
 ---------------- ---------------- ----------------
     0.0628924936     0.0007983510     0.0000000000

      Symmetry information
      --------------------

 Group name             Cs        
 Group number              2
 Group order               2
 No. of unique centers     6

      Symmetry unique atoms

     1    2    3    4    6    7

                                NWChem ONIOM Module
                                -------------------


       Theory
       ------
         high  theory=dft  basis="dunning"
          low  theory=scf  basis="sto-3g"

      Vectors
      -------
          High-model  ./oniom2.hmmos
            Low-real  ./oniom2.lrmos
           Low-model  ./oniom2.lmmos

     Geometry
     --------
         real     7 atoms with charge  0.0000
        model     3 atoms with charge  0.0000
             Bonds between model and real/intermediate
                       3   7  0.71  "H oniom"

  Making model geometry 

              ONIOM LOW+REAL
              --------------
                                 NWChem SCF Module
                                 -----------------



  ao basis        = "sto-3g"
  functions       =    19
  atoms           =     7
  closed shells   =    12
  open shells     =     0
  charge          =   0.00
  wavefunction    = RHF 
  input vectors   = atomic
  output vectors  = ./oniom2.movecs
  use symmetry    = T
  symmetry adapt  = T


 Forming initial guess at       3.2s


 Starting SCF solution at       3.2s



       Final RHF  results 
       ------------------ 

         Total SCF energy =   -150.944696213339
      One-electron energy =   -342.074749009326
      Two-electron energy =    122.627887948629
 Nuclear repulsion energy =     68.502164847358

        Time for solution =      0.1s


                              NWChem Gradients Module
                              -----------------------



                         RHF ENERGY GRADIENTS

    atom               coordinates                        gradient
                 x          y          z           x          y          z
   1 O       0.491342   2.388434   0.000000    0.025778   0.041133   0.000000
   2 H      -2.892286   0.532585   0.000000   -0.006791   0.003015   0.000000
   3 C      -0.795320   0.424669   0.000000   -0.020489  -0.043623   0.000000
   4 H      -0.295782  -3.275735   1.662813   -0.000066  -0.000014  -0.000031
   5 H      -0.295782  -3.275735  -1.662813   -0.000066  -0.000014   0.000031
   6 H       2.382632  -2.153818   0.000000   -0.000076  -0.000011   0.000000
   7 C       0.334216  -2.246998   0.000000    0.001712  -0.000485   0.000000

              ONIOM LOW+MODEL
              ---------------
                                 NWChem SCF Module
                                 -----------------



  ao basis        = "sto-3g"
  functions       =    12
  atoms           =     4
  closed shells   =     8
  open shells     =     0
  charge          =   0.00
  wavefunction    = RHF 
  input vectors   = atomic
  output vectors  = ./oniom2.movecs
  use symmetry    = T
  symmetry adapt  = T


 Forming initial guess at       3.4s


 Starting SCF solution at       3.4s



       Final RHF  results 
       ------------------ 

         Total SCF energy =   -112.352669181698
      One-electron energy =   -214.965990763073
      Two-electron energy =     71.978814536994
 Nuclear repulsion energy =     30.634507044382

        Time for solution =      0.1s


                              NWChem Gradients Module
                              -----------------------



                         RHF ENERGY GRADIENTS

    atom               coordinates                        gradient
                 x          y          z           x          y          z
   1 O       0.491342   2.388434   0.000000    0.022745   0.044714   0.000000
   2 H      -2.892286   0.532585   0.000000   -0.008849   0.005017   0.000000
   3 C      -0.795320   0.424669   0.000000   -0.008722  -0.057848   0.000000
   4 H on    0.005521  -1.469543   0.000000   -0.005174   0.008117   0.000000

             ONIOM HIGH+MODEL
             ----------------

                                 NWChem DFT Module
                                 -----------------



  Caching 1-el integrals 
   Time after variat. SCF:      3.5
   Time prior to 1st pass:      3.5


         Total DFT energy =     -114.483235294413
      One electron energy =     -216.045823885181
           Coulomb energy =       85.604952174537
    Exchange-Corr. energy =      -14.676870628151
 Nuclear repulsion energy =       30.634507044382

 Numeric. integr. density =       15.999999976293

     Total iterative time =      0.1s



                  Occupations of the irreducible representations
                  ----------------------------------------------

                     irrep           alpha         beta
                     --------     --------     --------
                     a'                7.0          7.0
                     a"                1.0          1.0



                         DFT ENERGY GRADIENTS

    atom               coordinates                        gradient
                 x          y          z           x          y          z
   1 O       0.491342   2.388434   0.000000   -0.003139   0.003612   0.000000
   2 H      -2.892286   0.532585   0.000000   -0.002145   0.002042   0.000000
   3 C      -0.795320   0.424669   0.000000    0.012589  -0.014494   0.000000
   4 H on    0.005521  -1.469543   0.000000   -0.007306   0.008840   0.000000

               ONIOM summary
               -------------

        +   LOW + REAL     -150.944696213339
        +  HIGH + MODEL    -114.483235294413
        -   LOW + MODEL    -112.352669181698
           ------------ 
        =        ONIOM2    -153.075262326054



                         ONIOM ENERGY GRADIENTS

    atom               coordinates                        gradient
                 x          y          z           x          y          z
   1 O       0.491342   2.388434   0.000000   -0.000106   0.000030   0.000000
   2 H      -2.892286   0.532585   0.000000   -0.000086   0.000040   0.000000
   3 C      -0.795320   0.424669   0.000000    0.000201  -0.000058   0.000000
   4 H      -0.295782  -3.275735   1.662813   -0.000066  -0.000014  -0.000031
   5 H      -0.295782  -3.275735  -1.662813   -0.000066  -0.000014   0.000031
   6 H       2.382632  -2.153818   0.000000   -0.000076  -0.000011   0.000000
   7 C       0.334216  -2.246998   0.000000    0.000200   0.000028   0.000000

  no constraints, skipping    0.0000000000000000     

  Step       Energy      Delta E   Gmax     Grms     Xrms     Xmax   Walltime
  ---- ---------------- -------- -------- -------- -------- -------- --------
@    3    -153.07526233 -2.9D-06  0.00009  0.00004  0.00187  0.00518      3.7
                                     ok       ok                    



                                Z-matrix (autoz)
                                -------- 

 Units are Angstrom for bonds and degrees for angles

      Type          Name      I     J     K     L     M      Value     Gradient
      ----------- --------  ----- ----- ----- ----- ----- ---------- ----------
    1 Stretch                  1     3                       1.24237   -0.00003
    2 Stretch                  2     3                       1.11114    0.00009
    3 Stretch                  3     7                       1.53495    0.00001
    4 Stretch                  4     7                       1.08709    0.00000
    5 Stretch                  5     7                       1.08709    0.00000
    6 Stretch                  6     7                       1.08510   -0.00008
    7 Bend                     1     3     2               120.28689   -0.00006
    8 Bend                     1     3     7               123.84931    0.00007
    9 Bend                     2     3     7               115.86380   -0.00002
   10 Bend                     3     7     4               109.98793   -0.00002
   11 Bend                     3     7     5               109.98793   -0.00002
   12 Bend                     3     7     6               110.31329    0.00002
   13 Bend                     4     7     5               108.08072   -0.00002
   14 Bend                     4     7     6               109.21492    0.00002
   15 Bend                     5     7     6               109.21492    0.00002
   16 Torsion                  1     3     7     4         120.53576    0.00002
   17 Torsion                  1     3     7     5        -120.53576   -0.00002
   18 Torsion                  1     3     7     6           0.00000    0.00000
   19 Torsion                  2     3     7     4         -59.46424    0.00002
   20 Torsion                  2     3     7     5          59.46424   -0.00002
   21 Torsion                  2     3     7     6         180.00000   -0.00000

  no constraints, skipping    0.0000000000000000     
  no constraints, skipping    0.0000000000000000     
  no constraints, skipping    0.0000000000000000     
                                NWChem ONIOM Module
                                -------------------


       Theory
       ------
         high  theory=dft  basis="dunning"
          low  theory=scf  basis="sto-3g"

      Vectors
      -------
          High-model  ./oniom2.hmmos
            Low-real  ./oniom2.lrmos
           Low-model  ./oniom2.lmmos

     Geometry
     --------
         real     7 atoms with charge  0.0000
        model     3 atoms with charge  0.0000
             Bonds between model and real/intermediate
                       3   7  0.71  "H oniom"

  Making model geometry 

              ONIOM LOW+REAL
              --------------
                                 NWChem SCF Module
                                 -----------------



  ao basis        = "sto-3g"
  functions       =    19
  atoms           =     7
  closed shells   =    12
  open shells     =     0
  charge          =   0.00
  wavefunction    = RHF 
  input vectors   = atomic
  output vectors  = ./oniom2.movecs
  use symmetry    = T
  symmetry adapt  = T


 Forming initial guess at       3.7s


 Starting SCF solution at       3.7s



       Final RHF  results 
       ------------------ 

         Total SCF energy =   -150.944694802843
      One-electron energy =   -342.079854913412
      Two-electron energy =    122.630531591012
 Nuclear repulsion energy =     68.504628519557

        Time for solution =      0.1s


              ONIOM LOW+MODEL
              ---------------
                                 NWChem SCF Module
                                 -----------------



  ao basis        = "sto-3g"
  functions       =    12
  atoms           =     4
  closed shells   =     8
  open shells     =     0
  charge          =   0.00
  wavefunction    = RHF 
  input vectors   = atomic
  output vectors  = ./oniom2.movecs
  use symmetry    = T
  symmetry adapt  = T


 Forming initial guess at       3.9s


 Starting SCF solution at       3.9s



       Final RHF  results 
       ------------------ 

         Total SCF energy =   -112.352673971127
      One-electron energy =   -214.966266700895
      Two-electron energy =     71.978970031822
 Nuclear repulsion energy =     30.634622697946

        Time for solution =      0.1s


             ONIOM HIGH+MODEL
             ----------------

                                 NWChem DFT Module
                                 -----------------



  Caching 1-el integrals 
   Time after variat. SCF:      4.0
   Time prior to 1st pass:      4.0


         Total DFT energy =     -114.483241688789
      One electron energy =     -216.046077096874
           Coulomb energy =       85.605124934015
    Exchange-Corr. energy =      -14.676912223876
 Nuclear repulsion energy =       30.634622697946

 Numeric. integr. density =       15.999999975996

     Total iterative time =      0.1s



                  Occupations of the irreducible representations
                  ----------------------------------------------

                     irrep           alpha         beta
                     --------     --------     --------
                     a'                7.0          7.0
                     a"                1.0          1.0

               ONIOM summary
               -------------

        +   LOW + REAL     -150.944694802843
        +  HIGH + MODEL    -114.483241688789
        -   LOW + MODEL    -112.352673971127
           ------------ 
        =        ONIOM2    -153.075262520505

 Line search: 
     step= 1.00 grad=-3.3D-07 hess= 1.4D-07 energy=   -153.075263 mode=downhill
 new step= 1.21                   predicted energy=   -153.075263
  no constraints, skipping    0.0000000000000000     
  no constraints, skipping    0.0000000000000000     
  no constraints, skipping    0.0000000000000000     

          --------
          Step   4
          --------


                         Geometry "geometry" -> "geometry"
                         ---------------------------------

 Output coordinates in angstroms (scale by  1.889725989 to convert to a.u.)

  No.       Tag          Charge          X              Y              Z
 ---- ---------------- ---------- -------------- -------------- --------------
    1 O                    8.0000     0.26053178     1.26333219     0.00000000
    2 H                    1.0000    -1.53065523     0.28213945     0.00000000
    3 C                    6.0000    -0.42122521     0.22467318     0.00000000
    4 H                    1.0000    -0.15625852    -1.73362481     0.88002059
    5 H                    1.0000    -0.15625852    -1.73362481    -0.88002059
    6 H                    1.0000     1.26060593    -1.13908503     0.00000000
    7 C                    6.0000     0.17652125    -1.18904867     0.00000000

      Atomic Mass 
      ----------- 

      O                 15.994910
      H                  1.007825
      C                 12.000000


 Effective nuclear repulsion energy (a.u.)      68.5051443348

            Nuclear Dipole moment (a.u.) 
            ----------------------------
        X                 Y               Z
 ---------------- ---------------- ----------------
     0.0632379635    -0.0071631497     0.0000000000

      Symmetry information
      --------------------

 Group name             Cs        
 Group number              2
 Group order               2
 No. of unique centers     6

      Symmetry unique atoms

     1    2    3    4    6    7

                                NWChem ONIOM Module
                                -------------------


       Theory
       ------
         high  theory=dft  basis="dunning"
          low  theory=scf  basis="sto-3g"

      Vectors
      -------
          High-model  ./oniom2.hmmos
            Low-real  ./oniom2.lrmos
           Low-model  ./oniom2.lmmos

     Geometry
     --------
         real     7 atoms with charge  0.0000
        model     3 atoms with charge  0.0000
             Bonds between model and real/intermediate
                       3   7  0.71  "H oniom"

  Making model geometry 

              ONIOM LOW+REAL
              --------------
                                 NWChem SCF Module
                                 -----------------



  ao basis        = "sto-3g"
  functions       =    19
  atoms           =     7
  closed shells   =    12
  open shells     =     0
  charge          =   0.00
  wavefunction    = RHF 
  input vectors   = atomic
  output vectors  = ./oniom2.movecs
  use symmetry    = T
  symmetry adapt  = T


 Forming initial guess at       4.1s


 Starting SCF solution at       4.2s



       Final RHF  results 
       ------------------ 

         Total SCF energy =   -150.944694467942
      One-electron energy =   -342.080923838894
      Two-electron energy =    122.631085036187
 Nuclear repulsion energy =     68.505144334766

        Time for solution =      0.1s


                              NWChem Gradients Module
                              -----------------------



                         RHF ENERGY GRADIENTS

    atom               coordinates                        gradient
                 x          y          z           x          y          z
   1 O       0.492334   2.387352   0.000000    0.025951   0.041095   0.000000
   2 H      -2.892519   0.533166   0.000000   -0.006634   0.002969   0.000000
   3 C      -0.796000   0.424571   0.000000   -0.020823  -0.043600   0.000000
   4 H      -0.295286  -3.276076   1.662998   -0.000016  -0.000012  -0.000017
   5 H      -0.295286  -3.276076  -1.662998   -0.000016  -0.000012   0.000017
   6 H       2.382200  -2.152559   0.000000    0.000042   0.000010   0.000000
   7 C       0.333577  -2.246976   0.000000    0.001496  -0.000449   0.000000

              ONIOM LOW+MODEL
              ---------------
                                 NWChem SCF Module
                                 -----------------



  ao basis        = "sto-3g"
  functions       =    12
  atoms           =     4
  closed shells   =     8
  open shells     =     0
  charge          =   0.00
  wavefunction    = RHF 
  input vectors   = atomic
  output vectors  = ./oniom2.movecs
  use symmetry    = T
  symmetry adapt  = T


 Forming initial guess at       4.3s


 Starting SCF solution at       4.3s



       Final RHF  results 
       ------------------ 

         Total SCF energy =   -112.352674947187
      One-electron energy =   -214.966324564230
      Two-electron energy =     71.979002641063
 Nuclear repulsion energy =     30.634646975981

        Time for solution =      0.1s


                              NWChem Gradients Module
                              -----------------------



                         RHF ENERGY GRADIENTS

    atom               coordinates                        gradient
                 x          y          z           x          y          z
   1 O       0.492334   2.387352   0.000000    0.022921   0.044683   0.000000
   2 H      -2.892519   0.533166   0.000000   -0.008693   0.004980   0.000000
   3 C      -0.796000   0.424571   0.000000   -0.009137  -0.057857   0.000000
   4 H on    0.004870  -1.469556   0.000000   -0.005091   0.008194   0.000000

             ONIOM HIGH+MODEL
             ----------------

                                 NWChem DFT Module
                                 -----------------



  Caching 1-el integrals 
   Time after variat. SCF:      4.4
   Time prior to 1st pass:      4.4


         Total DFT energy =     -114.483243005871
      One electron energy =     -216.046205378898
           Coulomb energy =       85.605244975739
    Exchange-Corr. energy =      -14.676929578693
 Nuclear repulsion energy =       30.634646975981

 Numeric. integr. density =       15.999999975959

     Total iterative time =      0.1s



                  Occupations of the irreducible representations
                  ----------------------------------------------

                     irrep           alpha         beta
                     --------     --------     --------
                     a'                7.0          7.0
                     a"                1.0          1.0



                         DFT ENERGY GRADIENTS

[...]
          15     0.28880     0.00499    -0.11536    -0.01517     0.05101    -0.11535
          16    -0.00000    -0.01104     0.00000     0.01731     0.15582     0.00000
          17    -0.00000    -0.41705     0.00000     0.10135    -0.58902    -0.00000
          18    -0.40239     0.00000    -0.17276     0.00000     0.00000    -0.21273
          19    -0.00000    -0.02487     0.00000     0.02289     0.12503    -0.00000
          20     0.00000    -0.11075    -0.00000    -0.16923    -0.00553     0.00000
          21     0.01412    -0.00000     0.03500    -0.00000     0.00000     0.11259

                   13          14          15          16          17          18
 
 Frequency       1430.11     1691.32     1718.80     1804.82     1816.40     2956.68
 
           1     0.07190    -0.00515     0.06895    -0.00000    -0.01963    -0.00000
           2     0.05543    -0.00553     0.11069    -0.00000    -0.02817    -0.00024
           3     0.00000    -0.00000    -0.00000    -0.00071     0.00000    -0.00000
           4    -0.10543     0.01734    -0.06623    -0.00000     0.03337    -0.95409
           5    -0.86674     0.01557     0.19604    -0.00000    -0.05993     0.05768
           6    -0.00000    -0.00000     0.00000    -0.02887     0.00000     0.00000
           7    -0.05346     0.01107    -0.09314    -0.00000     0.03534     0.08089
           8     0.01083    -0.00474    -0.19486    -0.00000     0.05720    -0.00646
           9    -0.00000     0.00000     0.00000     0.01399    -0.00000    -0.00000
          10     0.07191     0.29275    -0.17169    -0.45109    -0.35470     0.00249
          11    -0.07064    -0.37944    -0.03834     0.10588    -0.34653    -0.00248
          12     0.00770    -0.17623    -0.12176    -0.05182    -0.36939    -0.00479
          13     0.07191     0.29275    -0.17169     0.45109    -0.35470     0.00249
          14    -0.07064    -0.37944    -0.03834    -0.10588    -0.34653    -0.00248
          15    -0.00770     0.17623     0.12176    -0.05182     0.36939     0.00479
          16    -0.05155    -0.02407     0.03409    -0.00000     0.02663     0.00405
          17     0.13536    -0.51764    -0.01921    -0.00000     0.35035     0.00718
          18     0.00000     0.00000     0.00000    -0.71685     0.00000     0.00000
          19    -0.04157    -0.05281     0.03291     0.00000     0.04534    -0.00158
          20    -0.01179     0.11802     0.03901     0.00000     0.01413     0.00169
          21     0.00000    -0.00000     0.00000     0.05828    -0.00000    -0.00000

                   19          20          21
 
 Frequency       3563.61     3737.97     3762.31
 
           1    -0.00033    -0.00000    -0.00017
           2    -0.00078    -0.00000    -0.00040
           3    -0.00000    -0.00027    -0.00000
           4     0.00079    -0.00000    -0.00679
           5    -0.00273    -0.00000     0.00366
           6    -0.00000    -0.00079    -0.00000
           7     0.00132    -0.00000     0.00028
           8    -0.00087    -0.00000     0.00059
           9     0.00000     0.00035    -0.00000
          10    -0.17849    -0.20727    -0.10651
          11    -0.29014    -0.33720    -0.17614
          12     0.47579     0.53944     0.29064
          13    -0.17849     0.20727    -0.10651
          14    -0.29014     0.33720    -0.17614
          15    -0.47579     0.53944    -0.29064
          16     0.52512     0.00000    -0.79841
          17     0.02612     0.00000    -0.03869
          18     0.00000    -0.00395     0.00000
          19    -0.01507     0.00000     0.08546
          20     0.04868    -0.00000     0.03248
          21    -0.00000    -0.09021     0.00000


        Vibrational analysis via the FX method 
  --- with translations and rotations projected out ---
  --- via the Eckart algorithm                      ---
 Projected Nuclear Hessian trans-rot subspace norm:3.2943D-33
                         (should be close to zero!) 

          --------------------------------------------------------
          MASS-WEIGHTED PROJECTED HESSIAN (Hartree/Bohr/Bohr/Kamu)
          --------------------------------------------------------


               1            2            3            4            5            6            7            8            9           10
   ----- ----- ----- ----- -----
    1    1.72533D+01
    2    1.91566D+01  3.38023D+01
    3    3.73496D-19 -3.17077D-17  1.20966D+00
    4   -6.06457D+00 -4.50751D+00  4.42196D-17  3.06532D+02
    5   -1.15340D+01 -7.88676D-01  1.09339D-16 -1.31444D+01  6.91125D+01
    6    5.42057D-17  2.09042D-16  4.82974D+00  4.55899D-16  4.32377D-16  2.17493D+01
    7   -1.96893D+01 -1.90282D+01  1.43900D-17 -7.94588D+01  8.39519D+00 -6.39983D-17  5.77267D+01
    8   -1.90890D+01 -3.50932D+01  1.27052D-17  9.01133D+00 -1.81048D+01 -1.15435D-16  1.34549D+01  6.54472D+01
    9   -1.03338D-17  3.33151D-17 -4.17713D+00  3.71545D-17  1.16311D-16 -1.74740D+01  6.56105D-18  2.97726D-17  1.73869D+01
   10   -1.86509D-01  4.89903D-01  4.18656D-01  1.21313D-01 -1.11141D+00  1.42890D+00  2.35481D+00  2.48623D+00 -4.99970D+00  1.05124D+02
   11    1.05930D+00 -6.09498D-01 -6.47723D-01 -1.15392D-01  1.87936D+00 -3.22197D+00 -4.94621D+00 -5.85188D+00  9.20854D+00  6.19064D+01
   12   -1.10812D-01 -6.99724D-01 -2.97746D-01 -2.81699D-02 -3.13725D-01 -2.80377D-01 -3.41300D-01 -7.41261D-01  1.91729D+00 -1.01760D+02
   13   -1.86509D-01  4.89903D-01 -4.18656D-01  1.21313D-01 -1.11141D+00 -1.42890D+00  2.35481D+00  2.48623D+00  4.99970D+00  5.29666D+00
   14    1.05930D+00 -6.09498D-01  6.47723D-01 -1.15392D-01  1.87936D+00  3.22197D+00 -4.94621D+00 -5.85188D+00 -9.20854D+00  8.70623D+00
   15    1.10812D-01  6.99724D-01 -2.97746D-01  2.81699D-02  3.13725D-01 -2.80377D-01  3.41300D-01  7.41261D-01  1.91729D+00 -1.41329D+01
   16    4.14836D-01 -7.54682D-01  1.74382D-16  6.93649D-01  8.56482D-01 -4.39858D-16 -3.00841D+00 -5.44315D-01 -6.63264D-18 -4.20649D+00
   17   -8.81263D-01  1.55117D+00  1.18402D-16  1.45640D+00 -7.06251D+00 -1.54474D-16  1.36427D+01  1.47270D+00 -1.10775D-16 -2.20772D+01
   18    4.70196D-17  2.79398D-16 -2.18336D-01  5.10476D-16 -2.50441D-16  1.66028D+00  1.12918D-16  2.50928D-16 -8.72062D-02  3.80689D+01
   19    1.51548D+00 -1.84737D+00  2.11108D-17 -2.64444D+00  9.12621D+00 -1.29474D-15 -1.24607D+01  4.68884D+00 -1.15352D-16 -3.29556D+01
   20   -4.36915D-02 -3.79982D+00 -2.57382D-16 -3.53226D-01 -5.62305D-02 -7.14817D-16  4.99371D+00 -1.67198D+01  8.52178D-17 -1.67954D+01
   21    1.37453D-20 -9.05647D-17  1.61674D+00  2.24132D-16  2.69557D-16  5.27633D+00  1.02263D-18  4.74062D-17 -8.58633D+00  2.66558D+01


              11           12           13           14           15           16           17           18           19           20
   ----- ----- ----- ----- -----
   11    1.69414D+02
   12   -1.64484D+02  3.34335D+02
   13    8.70623D+00  1.41329D+01  1.05124D+02
   14    1.54626D+01  2.22710D+01  6.19064D+01  1.69414D+02
   15   -2.22710D+01 -2.09720D+01  1.01760D+02  1.64484D+02  3.34335D+02
   16    2.97842D+00 -6.01016D+00 -4.20649D+00  2.97842D+00  6.01016D+00  4.79669D+02
   17    5.63682D-01 -4.17454D+00 -2.20772D+01  5.63682D-01  4.17454D+00  1.98504D+01  7.00674D+01
   18   -1.49541D+00  5.41325D+00 -3.80689D+01  1.49541D+00  5.41325D+00  9.67518D-16  2.07482D-15  6.76453D+01
   19   -1.75702D+01  2.76137D+01 -3.29556D+01 -1.75702D+01 -2.76137D+01 -1.34243D+02 -6.00398D+00 -8.41265D-16  6.94826D+01
   20   -4.77302D+01  4.40634D+01 -1.67954D+01 -4.77302D+01 -4.40634D+01 -6.31161D+00 -2.18492D+01  4.27226D-16  6.72291D+00  5.51196D+01
   21    4.70283D+01 -9.38744D+01 -2.66558D+01 -4.70283D+01 -9.38744D+01  6.23209D-16 -5.11888D-17 -2.28832D+01 -3.51966D-18 -9.64490D-19


              21
   ----- ----- ----- ----- -----
   21    6.62323D+01

 center of mass
 --------------
 x =   0.02762550 y =   0.18355257 z =   0.00000000

 moments of inertia (a.u.)
 ------------------
         184.592766815658          -0.754465856038           0.000000000000
          -0.754465856038          32.683697125767           0.000000000000
           0.000000000000           0.000000000000         206.127655332271

 Rotational Constants
 --------------------
 A=   1.842113 cm-1  (  2.650331 K)
 B=   0.326118 cm-1  (  0.469200 K)
 C=   0.292053 cm-1  (  0.420190 K)


 Temperature                      =   298.15K
 frequency scaling parameter      =   1.0000

 Zero-Point correction to Energy  =   39.299 kcal/mol  (  0.062627 au)
 Thermal correction to Energy     =   41.695 kcal/mol  (  0.066445 au)
 Thermal correction to Enthalpy   =   42.287 kcal/mol  (  0.067388 au)

 Total Entropy                    =   62.503 cal/mol-K
   - Translational                =   37.256 cal/mol-K (mol. weight =  44.0262)
   - Rotational                   =   21.737 cal/mol-K (symmetry #  =        1)
   - Vibrational                  =    3.510 cal/mol-K

 Cv (constant volume heat capacity) =   10.613 cal/mol-K
   - Translational                  =    2.979 cal/mol-K
   - Rotational                     =    2.979 cal/mol-K
   - Vibrational                    =    4.654 cal/mol-K



          -------------------------------------------------
          NORMAL MODE EIGENVECTORS IN CARTESIAN COORDINATES
          -------------------------------------------------
             (Projected Frequencies expressed in cm-1)

                    1           2           3           4           5           6
 
 P.Frequency       -0.00       -0.00        0.00        0.00        0.00        0.00
 
           1     0.02736    -0.20989     0.00024     0.03695     0.01009    -0.00217
           2    -0.01417     0.01225    -0.00054    -0.01285    -0.15245    -0.00194
           3     0.07916     0.00218     0.20971    -0.04286    -0.00504     0.05717
           4    -0.02716    -0.13939    -0.00033    -0.05598     0.00118     0.00225
           5     0.08535    -0.11646     0.00049     0.15680    -0.13619    -0.01001
           6    -0.42893    -0.01240     0.17675     0.23352     0.02007    -0.11937
           7    -0.03035    -0.13526    -0.00036    -0.06143     0.00066     0.00251
           8     0.02371    -0.03674    -0.00015     0.05172    -0.14626    -0.00501
           9    -0.11099    -0.00305     0.14436     0.05727     0.00582    -0.08575
          10    -0.39112    -0.00193     0.02059    -0.10745    -0.00572    -0.02052
          11     0.01327    -0.01728    -0.07016     0.01993    -0.14694    -0.10400
          12    -0.02561     0.00010    -0.01775     0.00038     0.00623    -0.29910
          13     0.11282     0.01286    -0.02357    -0.38636    -0.02851     0.04319
          14     0.00471    -0.01811     0.06956     0.03332    -0.15039     0.09636
          15    -0.02561     0.00010    -0.01775     0.00038     0.00623    -0.29910
          16    -0.10612    -0.03726    -0.00115    -0.19059    -0.01172     0.00866
          17    -0.06973     0.08412    -0.00112    -0.10757    -0.16153     0.00256
          18     0.37718     0.01172    -0.00609    -0.21963    -0.01328    -0.18013
          19    -0.10890    -0.03367    -0.00118    -0.19533    -0.01217     0.00888
          20    -0.00950     0.00622    -0.00049    -0.00489    -0.15169    -0.00232
          21     0.06703     0.00263     0.01714    -0.04821     0.00085    -0.22506

                    7           8           9          10          11          12
 
 P.Frequency      166.87      490.00      861.91      989.45     1253.28     1260.83
 
           1     0.00000    -0.06825     0.00000     0.03018     0.01809     0.00000
           2    -0.00000     0.12836     0.00000     0.07051    -0.03383    -0.00000
           3     0.07193     0.00000    -0.03881    -0.00000    -0.00000     0.02147
           4    -0.00000     0.12475    -0.00000    -0.08377    -0.13853     0.00000
           5     0.00000    -0.13666    -0.00000     0.31393    -0.12389     0.00000
           6    -0.29313     0.00000    -0.70588    -0.00000    -0.00000     0.35023
           7    -0.00000     0.13729    -0.00000    -0.09391    -0.11504     0.00000
           8     0.00000    -0.01003     0.00000     0.08611     0.09153    -0.00000
           9    -0.09634     0.00000     0.11047     0.00000     0.00000    -0.13348
          10     0.35695    -0.18532     0.14500     0.21645    -0.21134     0.12890
          11     0.23131    -0.02317    -0.32544    -0.27159     0.11272    -0.44364
          12     0.29219    -0.00500    -0.11511     0.01526    -0.05107    -0.11548
          13    -0.35695    -0.18532    -0.14500     0.21645    -0.21134    -0.12890
          14    -0.23131    -0.02317     0.32544    -0.27159     0.11272     0.44364
          15     0.29219     0.00500    -0.11511    -0.01526     0.05107    -0.11548
          16    -0.00000    -0.01092    -0.00000     0.01733     0.15573     0.00000
          17    -0.00000    -0.41701     0.00000     0.10133    -0.58861     0.00000
          18    -0.42368     0.00000    -0.17386     0.00000     0.00000    -0.21283
          19    -0.00000    -0.02474    -0.00000     0.02290     0.12498    -0.00000
          20    -0.00000    -0.11067     0.00000    -0.16936    -0.00553     0.00000
          21     0.01159    -0.00000     0.03448    -0.00000     0.00000     0.11272

                   13          14          15          16          17          18
 
 P.Frequency     1429.10     1691.42     1718.85     1804.82     1816.35     2956.40
 
           1     0.07196    -0.00529     0.06898     0.00000    -0.01957     0.00001
           2     0.05553    -0.00572     0.11073     0.00000    -0.02804    -0.00022
           3     0.00000     0.00000    -0.00000     0.00071    -0.00000    -0.00000
           4    -0.10534     0.01743    -0.06629    -0.00000     0.03323    -0.95405
           5    -0.86620     0.01564     0.19533     0.00000    -0.05907     0.05802
           6     0.00000    -0.00000     0.00000     0.02884     0.00000     0.00000
           7    -0.05311     0.01124    -0.09326     0.00000     0.03528     0.08091
           8     0.01104    -0.00440    -0.19496    -0.00000     0.05694    -0.00647
           9     0.00000     0.00000     0.00000    -0.01399     0.00000     0.00000
          10     0.07259     0.29318    -0.17074     0.45108    -0.35481     0.00254
          11    -0.07132    -0.37937    -0.03860    -0.10583    -0.34667    -0.00246
          12     0.00767    -0.17595    -0.12162     0.05184    -0.36957    -0.00467
          13     0.07259     0.29318    -0.17074    -0.45108    -0.35481     0.00254
          14    -0.07132    -0.37937    -0.03860     0.10583    -0.34667    -0.00246
          15    -0.00767     0.17595     0.12162     0.05184     0.36957     0.00467
          16    -0.05186    -0.02413     0.03400     0.00000     0.02667     0.00397
          17     0.13677    -0.51761    -0.02059    -0.00000     0.35032     0.00722
          18    -0.00000     0.00000    -0.00000     0.71686     0.00000    -0.00000
          19    -0.04179    -0.05287     0.03271    -0.00000     0.04538    -0.00156
          20    -0.01181     0.11791     0.03917     0.00000     0.01419     0.00171
          21    -0.00000     0.00000     0.00000    -0.05828    -0.00000     0.00000

                   19          20          21
 
 P.Frequency     3563.62     3737.98     3762.31
 
           1    -0.00033     0.00000    -0.00017
           2    -0.00078     0.00000    -0.00040
           3    -0.00000     0.00027     0.00000
           4     0.00084    -0.00000    -0.00664
           5    -0.00270    -0.00000     0.00372
           6    -0.00000     0.00078     0.00000
           7     0.00132    -0.00000     0.00026
           8    -0.00087     0.00000     0.00058
           9     0.00000    -0.00035     0.00000
          10    -0.17848     0.20728    -0.10651
          11    -0.29015     0.33720    -0.17615
          12     0.47578    -0.53944     0.29065
          13    -0.17848    -0.20728    -0.10651
          14    -0.29015    -0.33720    -0.17615
          15    -0.47578    -0.53944    -0.29065
          16     0.52514    -0.00000    -0.79840
          17     0.02612     0.00000    -0.03869
          18     0.00000     0.00393    -0.00000
          19    -0.01507    -0.00000     0.08546
          20     0.04868    -0.00000     0.03248
          21    -0.00000     0.09021    -0.00000
 vib:animation  F

 Task  times  cpu:       17.8s     wall:       20.4s


                                NWChem Input Module
                                -------------------


 Summary of allocated global arrays
-----------------------------------
  No active global arrays



                         GA Statistics for process    0
                         ------------------------------

       create   destroy   get      put      acc     scatter   gather  read&inc
calls: 3.71e+04 3.71e+04 3.21e+05 6.84e+04 1.59e+05    0        0     2.19e+04 
number of processes/call 1.21e+00 1.23e+00 1.11e+00 0.00e+00 0.00e+00
bytes total:             1.11e+08 4.80e+07 3.17e+07 0.00e+00 0.00e+00 1.75e+05
bytes remote:            2.83e+07 5.01e+06 1.07e+07 0.00e+00 0.00e+00 0.00e+00
Max memory consumed for GA by this process: 39688 bytes

MA_summarize_allocated_blocks: starting scan ...
MA_summarize_allocated_blocks: scan completed: 0 heap blocks, 0 stack blocks
MA usage statistics:

	allocation statistics:
					      heap	     stack
					      ----	     -----
	current number of blocks	         0	         0
	maximum number of blocks	        25	        57
	current total bytes		         0	         0
	maximum total bytes		   2538888	  22514456
	maximum total K-bytes		      2539	     22515
	maximum total M-bytes		         3	        23


                                     CITATION
                                     --------
                Please cite the following reference when publishing
                           results obtained with NWChem:

                 M. Valiev, E.J. Bylaska, N. Govind, K. Kowalski,
              T.P. Straatsma, H.J.J. van Dam, D. Wang, J. Nieplocha,
                        E. Apra, T.L. Windus, W.A. de Jong
                 "NWChem: a comprehensive and scalable open-source
                  solution for large scale molecular simulations"
                      Comput. Phys. Commun. 181, 1477 (2010)
                           doi:10.1016/j.cpc.2010.04.018

                                      AUTHORS
                                      -------
          E. Apra, E. J. Bylaska, W. A. de Jong, N. Govind, K. Kowalski,
       T. P. Straatsma, M. Valiev, H. J. J. van Dam, D. Wang, T. L. Windus,
        J. Hammond, J. Autschbach, K. Bhaskaran-Nair, J. Brabec, K. Lopata,
    S. A. Fischer, S. Krishnamoorthy, M. Jacquelin, W. Ma, M. Klemm, O. Villa,
      Y. Chen, V. Anisimov, F. Aquino, S. Hirata, M. T. Hackler, V. Konjkov,
            D. Mejia-Rodriguez, T. Risthaus, M. Malagoli, A. Marenich,
   A. Otero-de-la-Roza, J. Mullin, P. Nichols, R. Peverati, J. Pittner, Y. Zhao,
        P.-D. Fan, A. Fonari, M. J. Williamson, R. J. Harrison, J. R. Rehr,
      M. Dupuis, D. Silverstein, D. M. A. Smith, J. Nieplocha, V. Tipparaju,
    M. Krishnan, B. E. Van Kuiken, A. Vazquez-Mayagoitia, L. Jensen, M. Swart,
      Q. Wu, T. Van Voorhis, A. A. Auer, M. Nooijen, L. D. Crosby, E. Brown,
      G. Cisneros, G. I. Fann, H. Fruchtl, J. Garza, K. Hirao, R. A. Kendall,
      J. A. Nichols, K. Tsemekhman, K. Wolinski, J. Anchell, D. E. Bernholdt,
      P. Borowski, T. Clark, D. Clerc, H. Dachsel, M. J. O. Deegan, K. Dyall,
    D. Elwood, E. Glendening, M. Gutowski, A. C. Hess, J. Jaffe, B. G. Johnson,
     J. Ju, R. Kobayashi, R. Kutteh, Z. Lin, R. Littlefield, X. Long, B. Meng,
      T. Nakajima, S. Niu, L. Pollack, M. Rosing, K. Glaesemann, G. Sandrone,
      M. Stave, H. Taylor, G. Thomas, J. H. van Lenthe, A. T. Wong, Z. Zhang.

 Total times  cpu:       21.7s     wall:       25.1s
[0] ARMCI Warning: Freed 1 leaked allocations
