 argument  1 = /home/list1234/source/nwchem-6.8.1-release/QA/tests/pkzb/pkzb.nw



============================== echo of input deck ==============================
echo
title "Test PKZB functional"

start pkzb

geometry
  H     -1.62522691     0.82336660    -0.41716581
  N     -1.18023841    -0.07061179    -0.42251903
  C      0.19940157     0.03911263    -0.37821942
  H      0.77252807    -0.11338046    -1.30706692
  F      0.87977314    -0.05004215     0.77235361
end

basis cartesian
  C library 6-31g*
  N library 6-31g*
  F library 6-31g*
  H library 6-31g
end

dft
  xc xpkzb99 cpkzb99
  grid xfine
  vectors atomic
end
task dft

dft
  mult 1
  odft
  xc xpkzb99 cpkzb99
  grid xfine
  vectors atomic
end
task dft

dft
  mult 3
  odft
  xc xpkzb99 cpkzb99
  grid xfine
  vectors atomic
end
task dft
================================================================================


                                         
                                         


              Northwest Computational Chemistry Package (NWChem) 6.8
              ------------------------------------------------------


                    Environmental Molecular Sciences Laboratory
                       Pacific Northwest National Laboratory
                                Richland, WA 99352

                              Copyright (c) 1994-2018
                       Pacific Northwest National Laboratory
                            Battelle Memorial Institute

             NWChem is an open-source computational chemistry package
                        distributed under the terms of the
                      Educational Community License (ECL) 2.0
             A copy of the license is included with this distribution
                              in the LICENSE.TXT file

                                  ACKNOWLEDGMENT
                                  --------------

            This software and its documentation were developed at the
            EMSL at Pacific Northwest National Laboratory, a multiprogram
            national laboratory, operated for the U.S. Department of Energy
            by Battelle under Contract Number DE-AC05-76RL01830. Support
            for this work was provided by the Department of Energy Office
            of Biological and Environmental Research, Office of Basic
            Energy Sciences, and the Office of Advanced Scientific Computing.


           Job information
           ---------------

    hostname        = list1234-B360M-H
    program         = /home/list1234/source/nwchem-6.8.1-release/bin/LINUX64/nwchem
    date            = Sun Jun 30 14:01:19 2019

    compiled        = Sun_Jun_30_11:55:59_2019
    source          = /home/list1234/source/nwchem-6.8.1-release
    nwchem branch   = Development
    nwchem revision = N/A
    ga revision     = 5.6.5
    use scalapack   = T
    input           = /home/list1234/source/nwchem-6.8.1-release/QA/tests/pkzb/pkzb.nw
    prefix          = pkzb.
    data base       = ./pkzb.db
    status          = startup
    nproc           =        4
    time left       =     -1s



           Memory information
           ------------------

    heap     =   86247162 doubles =    658.0 Mbytes
    stack    =   86247167 doubles =    658.0 Mbytes
    global   =  172494336 doubles =   1316.0 Mbytes (distinct from heap & stack)
    total    =  344988665 doubles =   2632.1 Mbytes
    verify   = yes
    hardfail = no 


           Directory information
           ---------------------

  0 permanent = .
  0 scratch   = .




                                NWChem Input Module
                                -------------------


                               Test PKZB functional
                               --------------------

 Scaling coordinates for geometry "geometry" by  1.889725989
 (inverse scale =  0.529177249)

 C1  symmetry detected

          ------
          auto-z
          ------
  no constraints, skipping    0.0000000000000000     
  no constraints, skipping    0.0000000000000000     


                             Geometry "geometry" -> ""
                             -------------------------

 Output coordinates in angstroms (scale by  1.889725989 to convert to a.u.)

  No.       Tag          Charge          X              Y              Z
 ---- ---------------- ---------- -------------- -------------- --------------
    1 H                    1.0000    -0.45702107     1.63174773     0.78857687
    2 N                    7.0000    -0.23616506     1.22924561    -0.09824637
    3 C                    6.0000     0.42748187     0.02114609     0.03395304
    4 H                    1.0000     1.51697132    -0.00488043    -0.12981864
    5 F                    9.0000    -0.21907623    -1.15094035    -0.01941687

      Atomic Mass 
      ----------- 

      H                  1.007825
      N                 14.003070
      C                 12.000000
      F                 18.998400


 Effective nuclear repulsion energy (a.u.)      65.4147877949

            Nuclear Dipole moment (a.u.) 
            ----------------------------
        X                 Y               Z
 ---------------- ---------------- ----------------
    -0.0000000000    -0.0000000000     0.0000000000



                                Z-matrix (autoz)
                                -------- 

 Units are Angstrom for bonds and degrees for angles

      Type          Name      I     J     K     L     M      Value
      ----------- --------  ----- ----- ----- ----- ----- ----------
    1 Stretch                  1     2                       0.99862
    2 Stretch                  2     3                       1.38471
    3 Stretch                  3     4                       1.10204
    4 Stretch                  3     5                       1.33965
    5 Bend                     1     2     3               111.89243
    6 Bend                     2     3     4               118.70039
    7 Bend                     2     3     5               121.88504
    8 Bend                     4     3     5               116.77914
    9 Torsion                  1     2     3     4        -102.85465
   10 Torsion                  1     2     3     5          96.14431


            XYZ format geometry
            -------------------
     5
 geometry
 H                    -0.45702107     1.63174773     0.78857687
 N                    -0.23616506     1.22924561    -0.09824637
 C                     0.42748187     0.02114609     0.03395304
 H                     1.51697132    -0.00488043    -0.12981864
 F                    -0.21907623    -1.15094035    -0.01941687

 ==============================================================================
                                internuclear distances
 ------------------------------------------------------------------------------
       center one      |      center two      | atomic units |  angstroms
 ------------------------------------------------------------------------------
    2 N                |   1 H                |     1.88712  |     0.99862
    3 C                |   2 N                |     2.61671  |     1.38471
    4 H                |   3 C                |     2.08255  |     1.10204
    5 F                |   3 C                |     2.53158  |     1.33965
 ------------------------------------------------------------------------------
                         number of included internuclear distances:          4
 ==============================================================================



 ==============================================================================
                                 internuclear angles
 ------------------------------------------------------------------------------
        center 1       |       center 2       |       center 3       |  degrees
 ------------------------------------------------------------------------------
    1 H                |   2 N                |   3 C                |   111.89
    2 N                |   3 C                |   4 H                |   118.70
    2 N                |   3 C                |   5 F                |   121.89
    4 H                |   3 C                |   5 F                |   116.78
 ------------------------------------------------------------------------------
                            number of included internuclear angles:          4
 ==============================================================================



                      Basis "ao basis" -> "" (cartesian)
                      -----
  C (Carbon)
  ----------
            Exponent  Coefficients 
       -------------- ---------------------------------------------------------
  1 S  3.04752490E+03  0.001835
  1 S  4.57369510E+02  0.014037
  1 S  1.03948690E+02  0.068843
  1 S  2.92101550E+01  0.232184
  1 S  9.28666300E+00  0.467941
  1 S  3.16392700E+00  0.362312

  2 S  7.86827240E+00 -0.119332
  2 S  1.88128850E+00 -0.160854
  2 S  5.44249300E-01  1.143456

  3 P  7.86827240E+00  0.068999
  3 P  1.88128850E+00  0.316424
  3 P  5.44249300E-01  0.744308

  4 S  1.68714400E-01  1.000000

  5 P  1.68714400E-01  1.000000

  6 D  8.00000000E-01  1.000000

  N (Nitrogen)
  ------------
            Exponent  Coefficients 
       -------------- ---------------------------------------------------------
  1 S  4.17351100E+03  0.001835
  1 S  6.27457900E+02  0.013995
  1 S  1.42902100E+02  0.068587
  1 S  4.02343300E+01  0.232241
  1 S  1.28202100E+01  0.469070
  1 S  4.39043700E+00  0.360455

  2 S  1.16263580E+01 -0.114961
  2 S  2.71628000E+00 -0.169118
  2 S  7.72218000E-01  1.145852

  3 P  1.16263580E+01  0.067580
  3 P  2.71628000E+00  0.323907
  3 P  7.72218000E-01  0.740895

  4 S  2.12031300E-01  1.000000

  5 P  2.12031300E-01  1.000000

  6 D  8.00000000E-01  1.000000

  F (Fluorine)
  ------------
            Exponent  Coefficients 
       -------------- ---------------------------------------------------------
  1 S  7.00171309E+03  0.001820
  1 S  1.05136609E+03  0.013916
  1 S  2.39285690E+02  0.068405
  1 S  6.73974453E+01  0.233186
  1 S  2.15199573E+01  0.471267
  1 S  7.40310130E+00  0.356619

  2 S  2.08479528E+01 -0.108507
  2 S  4.80830834E+00 -0.146452
  2 S  1.34406986E+00  1.128689

  3 P  2.08479528E+01  0.071629
  3 P  4.80830834E+00  0.345912
  3 P  1.34406986E+00  0.722470

  4 S  3.58151393E-01  1.000000

  5 P  3.58151393E-01  1.000000

  6 D  8.00000000E-01  1.000000

  H (Hydrogen)
  ------------
            Exponent  Coefficients 
       -------------- ---------------------------------------------------------
  1 S  1.87311370E+01  0.033495
  1 S  2.82539370E+00  0.234727
  1 S  6.40121700E-01  0.813757

  2 S  1.61277800E-01  1.000000



 Summary of "ao basis" -> "" (cartesian)
 ------------------------------------------------------------------------------
       Tag                 Description            Shells   Functions and Types
 ---------------- ------------------------------  ------  ---------------------
 C                           6-31g*                  6       15   3s2p1d
 N                           6-31g*                  6       15   3s2p1d
 F                           6-31g*                  6       15   3s2p1d
 H                           6-31g                   2        2   2s



                                 NWChem DFT Module
                                 -----------------


                               Test PKZB functional




 Summary of "ao basis" -> "ao basis" (cartesian)
 ------------------------------------------------------------------------------
       Tag                 Description            Shells   Functions and Types
 ---------------- ------------------------------  ------  ---------------------
 C                           6-31g*                  6       15   3s2p1d
 N                           6-31g*                  6       15   3s2p1d
 F                           6-31g*                  6       15   3s2p1d
 H                           6-31g                   2        2   2s


  Caching 1-el integrals 

            General Information
            -------------------
          SCF calculation type: DFT
          Wavefunction type:  closed shell.
          No. of atoms     :     5
          No. of electrons :    24
           Alpha electrons :    12
            Beta electrons :    12
          Charge           :     0
          Spin multiplicity:     1
          Use of symmetry is: off; symmetry adaption is: off
          Maximum number of iterations:  30
          AO basis - number of functions:    49
                     number of shells:    22
          Convergence on energy requested:  1.00D-06
          Convergence on density requested:  1.00D-05
          Convergence on gradient requested:  5.00D-04

              XC Information
              --------------
                  PKZB metaGGA Exchange Functional  1.000          
             PKZB99 metaGGA Correlation Functional  1.000          

             Grid Information
             ----------------
          Grid used for XC integration:  xfine     
          Radial quadrature: Mura-Knowles        
          Angular quadrature: Lebedev. 
          Tag              B.-S. Rad. Rad. Pts. Rad. Cut. Ang. Pts.
          ---              ---------- --------- --------- ---------
          H                   0.35      100           8.0      1202
          N                   0.65      100           7.0      1454
          C                   0.70      100           7.0      1454
          F                   0.50      100           8.0      1454
          Grid pruning is: on 
          Number of quadrature shells:   500
          Spatial weights used:  Erf1

          Convergence Information
          -----------------------
          Convergence aids based upon iterative change in 
          total energy or number of iterations. 
          Levelshifting, if invoked, occurs when the 
          HOMO/LUMO gap drops below (HL_TOL):  1.00D-02
          DIIS, if invoked, will attempt to extrapolate 
          using up to (NFOCK): 10 stored Fock matrices.

                    Damping( 0%)  Levelshifting(0.5)       DIIS
                  --------------- ------------------- ---------------
          dE  on:    start            ASAP                start   
          dE off:    2 iters         30 iters            30 iters 


      Screening Tolerance Information
      -------------------------------
          Density screening/tol_rho:  1.00D-10
          AO Gaussian exp screening on grid/accAOfunc:  14
          CD Gaussian exp screening on grid/accCDfunc:  20
          XC Gaussian exp screening on grid/accXCfunc:  20
          Schwarz screening/accCoul:  1.00D-08


      Superposition of Atomic Density Guess
      -------------------------------------

 Sum of atomic energies:        -192.32278949

      Non-variational initial energy
      ------------------------------

 Total energy =    -193.147498
 1-e energy   =    -394.179153
 2-e energy   =     135.616868
 HOMO         =      -0.281088
 LUMO         =      -0.025805

   Time after variat. SCF:      0.1
   Time prior to 1st pass:      0.1

 Integral file          = ./pkzb.aoints.0
 Record size in doubles =  65536        No. of integs per rec  =  43688
 Max. records in memory =      7        Max. records in file   = 161638
 No. of bits per label  =      8        No. of bits per value  =     64


 #quartets = 3.098D+04 #integrals = 7.749D+05 #direct =  0.0% #cached =100.0%


File balance: exchanges=     0  moved=     0  time=   0.0


 Grid_pts file          = ./pkzb.gridpts.0
 Record size in doubles =  12289        No. of grid_pts per rec  =   3070
 Max. records in memory =     67        Max. recs in file   =    862003


           Memory utilization after 1st SCF pass: 
           Heap Space remaining (MW):       84.96            84962610
          Stack Space remaining (MW):       86.25            86246748

   convergence    iter        energy       DeltaE   RMS-Dens  Diis-err    time
 ---------------- ----- ----------------- --------- --------- ---------  ------
 d= 0,ls=0.0,diis     1   -193.2846134243 -2.59D+02  5.54D-02  1.25D+00     0.7
 d= 0,ls=0.0,diis     2   -191.8737473969  1.41D+00  4.97D-02  1.18D+01     1.3
 d= 0,ls=0.0,diis     3   -193.3673002982 -1.49D+00  1.26D-02  7.91D-01     1.8
 d= 0,ls=0.0,diis     4   -193.4402311589 -7.29D-02  2.33D-03  7.46D-02     2.3
 d= 0,ls=0.0,diis     5   -193.4469317096 -6.70D-03  4.95D-04  9.64D-04     2.8
  Resetting Diis
 d= 0,ls=0.0,diis     6   -193.4470653652 -1.34D-04  8.25D-05  1.90D-05     3.3
 d= 0,ls=0.0,diis     7   -193.4470673440 -1.98D-06  9.85D-05  3.16D-06     3.8
 d= 0,ls=0.0,diis     8   -193.4470638173  3.53D-06  7.48D-05  3.21D-05     4.2
 d= 0,ls=0.0,diis     9   -193.4470677348 -3.92D-06  1.18D-05  5.38D-07     4.8
 d= 0,ls=0.0,diis    10   -193.4470677862 -5.15D-08  3.15D-06  8.12D-08     5.3


         Total DFT energy =     -193.447067786246
      One electron energy =     -395.186694427994
           Coulomb energy =      159.358270711390
    Exchange-Corr. energy =      -23.033431864554
 Nuclear repulsion energy =       65.414787794912

 Numeric. integr. density =       24.000000013388

     Total iterative time =      5.2s



                       DFT Final Molecular Orbital Analysis
                       ------------------------------------

 Vector    1  Occ=2.000000D+00  E=-2.432566D+01
              MO Center= -2.2D-01, -1.2D+00, -1.9D-02, r^2= 1.2D-02
   Bfn.  Coefficient  Atom+Function         Bfn.  Coefficient  Atom+Function  
  ----- ------------  ---------------      ----- ------------  ---------------
    35      0.993301  5 F  s          

 Vector    2  Occ=2.000000D+00  E=-1.398369D+01
              MO Center= -2.4D-01,  1.2D+00, -9.8D-02, r^2= 2.0D-02
   Bfn.  Coefficient  Atom+Function         Bfn.  Coefficient  Atom+Function  
  ----- ------------  ---------------      ----- ------------  ---------------
     3      0.993380  2 N  s                  4      0.032836  2 N  s          

 Vector    3  Occ=2.000000D+00  E=-1.006783D+01
              MO Center=  4.3D-01,  2.1D-02,  3.4D-02, r^2= 2.8D-02
   Bfn.  Coefficient  Atom+Function         Bfn.  Coefficient  Atom+Function  
  ----- ------------  ---------------      ----- ------------  ---------------
    18      0.993942  3 C  s                 19      0.040626  3 C  s          

 Vector    4  Occ=2.000000D+00  E=-1.163803D+00
              MO Center= -1.3D-01, -9.9D-01, -1.2D-02, r^2= 4.1D-01
   Bfn.  Coefficient  Atom+Function         Bfn.  Coefficient  Atom+Function  
  ----- ------------  ---------------      ----- ------------  ---------------
    36      0.505300  5 F  s                 40      0.431400  5 F  s          
    35     -0.219318  5 F  s                 19      0.117061  3 C  s          
    21     -0.095657  3 C  py                38      0.086107  5 F  py         
    18     -0.064304  3 C  s                 20     -0.052045  3 C  px         
    37      0.050903  5 F  px                42      0.040926  5 F  py         

 Vector    5  Occ=2.000000D+00  E=-7.839881D-01
              MO Center= -3.2D-02,  8.3D-01,  6.9D-02, r^2= 9.5D-01
   Bfn.  Coefficient  Atom+Function         Bfn.  Coefficient  Atom+Function  
  ----- ------------  ---------------      ----- ------------  ---------------
     4      0.363461  2 N  s                  8      0.351219  2 N  s          
    19      0.236387  3 C  s                  3     -0.174296  2 N  s          
    21      0.143756  3 C  py                23      0.130007  3 C  s          
     1      0.128802  1 H  s                 40     -0.117079  5 F  s          
    18     -0.114157  3 C  s                 36     -0.094543  5 F  s          

 Vector    6  Occ=2.000000D+00  E=-5.929279D-01
              MO Center=  2.0D-01, -1.7D-01,  3.6D-02, r^2= 2.0D+00
   Bfn.  Coefficient  Atom+Function         Bfn.  Coefficient  Atom+Function  
  ----- ------------  ---------------      ----- ------------  ---------------
    19      0.297028  3 C  s                 38      0.249161  5 F  py         
    23      0.246016  3 C  s                 40     -0.243208  5 F  s          
    37      0.207300  5 F  px                 8     -0.204245  2 N  s          
     4     -0.175359  2 N  s                 33      0.159973  4 H  s          
    36     -0.143174  5 F  s                 42      0.142825  5 F  py         

 Vector    7  Occ=2.000000D+00  E=-4.849753D-01
              MO Center=  3.3D-01, -5.1D-01, -3.7D-02, r^2= 1.5D+00
   Bfn.  Coefficient  Atom+Function         Bfn.  Coefficient  Atom+Function  
  ----- ------------  ---------------      ----- ------------  ---------------
    38      0.440733  5 F  py                20     -0.332722  3 C  px         
    42      0.266207  5 F  py                33     -0.197452  4 H  s          
    21     -0.182292  3 C  py                40     -0.153012  5 F  s          
    34     -0.123243  4 H  s                 24     -0.097038  3 C  px         
     5     -0.094547  2 N  px                23     -0.087173  3 C  s          

 Vector    8  Occ=2.000000D+00  E=-4.521629D-01
              MO Center= -1.1D-01,  2.5D-01,  7.5D-02, r^2= 1.9D+00
   Bfn.  Coefficient  Atom+Function         Bfn.  Coefficient  Atom+Function  
  ----- ------------  ---------------      ----- ------------  ---------------
    37      0.301159  5 F  px                 6      0.258910  2 N  py         
    21     -0.218759  3 C  py                39      0.201610  5 F  pz         
     1      0.200317  1 H  s                  7      0.190421  2 N  pz         
    41      0.187583  5 F  px                20      0.179284  3 C  px         
    22      0.144372  3 C  pz                43      0.130169  5 F  pz         

 Vector    9  Occ=2.000000D+00  E=-4.187348D-01
              MO Center= -1.3D-01, -7.1D-01,  4.6D-02, r^2= 1.2D+00
   Bfn.  Coefficient  Atom+Function         Bfn.  Coefficient  Atom+Function  
  ----- ------------  ---------------      ----- ------------  ---------------
    39      0.536833  5 F  pz                43      0.358060  5 F  pz         
    22      0.204822  3 C  pz                37     -0.185884  5 F  px         
    26      0.135824  3 C  pz                 6     -0.121893  2 N  py         
    21      0.120007  3 C  py                41     -0.118442  5 F  px         
     8     -0.101702  2 N  s                 23      0.078171  3 C  s          

 Vector   10  Occ=2.000000D+00  E=-3.429862D-01
              MO Center=  8.3D-03, -4.5D-01, -9.1D-03, r^2= 1.8D+00
   Bfn.  Coefficient  Atom+Function         Bfn.  Coefficient  Atom+Function  
  ----- ------------  ---------------      ----- ------------  ---------------
    37      0.482033  5 F  px                41      0.330591  5 F  px         
    38     -0.239291  5 F  py                 8      0.214741  2 N  s          
    20     -0.183312  3 C  px                34     -0.171037  4 H  s          
     7     -0.167853  2 N  pz                 6     -0.163805  2 N  py         
    42     -0.163262  5 F  py                33     -0.161935  4 H  s          

 Vector   11  Occ=2.000000D+00  E=-2.722549D-01
              MO Center= -1.1D-01,  7.2D-01, -1.4D-01, r^2= 1.7D+00
   Bfn.  Coefficient  Atom+Function         Bfn.  Coefficient  Atom+Function  
  ----- ------------  ---------------      ----- ------------  ---------------
     7      0.358932  2 N  pz                 8     -0.287876  2 N  s          
    11      0.246867  2 N  pz                22      0.240017  3 C  pz         
    39     -0.241197  5 F  pz                 6     -0.212604  2 N  py         
    43     -0.184757  5 F  pz                 4     -0.158256  2 N  s          
    10     -0.158880  2 N  py                26      0.150015  3 C  pz         

 Vector   12  Occ=2.000000D+00  E=-1.683292D-01
              MO Center= -1.4D-01,  1.0D+00, -7.6D-02, r^2= 1.3D+00
   Bfn.  Coefficient  Atom+Function         Bfn.  Coefficient  Atom+Function  
  ----- ------------  ---------------      ----- ------------  ---------------
     5      0.515954  2 N  px                 9      0.407641  2 N  px         
     6      0.258161  2 N  py                10      0.230047  2 N  py         
    40      0.174636  5 F  s                 38      0.163407  5 F  py         
    34     -0.160020  4 H  s                 25      0.149952  3 C  py         
    42      0.142536  5 F  py                33     -0.089050  4 H  s          

 Vector   13  Occ=0.000000D+00  E=-1.037791D-01
              MO Center=  1.8D-01,  3.1D-01,  4.5D-02, r^2= 1.7D+00
   Bfn.  Coefficient  Atom+Function         Bfn.  Coefficient  Atom+Function  
  ----- ------------  ---------------      ----- ------------  ---------------
    22      0.560078  3 C  pz                26      0.460610  3 C  pz         
     8      0.290331  2 N  s                  7     -0.266763  2 N  pz         
    39     -0.255231  5 F  pz                11     -0.235628  2 N  pz         
    43     -0.219930  5 F  pz                 2     -0.209822  1 H  s          
    23      0.159570  3 C  s                  1     -0.154399  1 H  s          

 Vector   14  Occ=0.000000D+00  E= 8.391572D-02
              MO Center=  8.5D-01,  1.9D-01,  5.8D-02, r^2= 3.0D+00
   Bfn.  Coefficient  Atom+Function         Bfn.  Coefficient  Atom+Function  
  ----- ------------  ---------------      ----- ------------  ---------------
    23      1.584391  3 C  s                 34     -1.340661  4 H  s          
     8     -0.730122  2 N  s                  2      0.707422  1 H  s          
    40     -0.429131  5 F  s                 11     -0.290775  2 N  pz         
    24      0.288462  3 C  px                42     -0.241845  5 F  py         
    19      0.240534  3 C  s                 38     -0.208162  5 F  py         

 Vector   15  Occ=0.000000D+00  E= 1.287856D-01
              MO Center=  6.7D-02,  1.2D+00,  6.9D-01, r^2= 3.4D+00
   Bfn.  Coefficient  Atom+Function         Bfn.  Coefficient  Atom+Function  
  ----- ------------  ---------------      ----- ------------  ---------------
     2      1.545415  1 H  s                  8     -1.208858  2 N  s          
    34      1.022791  4 H  s                 11     -0.686773  2 N  pz         
    24     -0.567139  3 C  px                23     -0.495478  3 C  s          
     7     -0.272689  2 N  pz                20     -0.224382  3 C  px         
    26      0.221488  3 C  pz                 9      0.192394  2 N  px         

 Vector   16  Occ=0.000000D+00  E= 1.689433D-01
              MO Center=  4.8D-01, -5.2D-02,  2.4D-02, r^2= 2.4D+00
   Bfn.  Coefficient  Atom+Function         Bfn.  Coefficient  Atom+Function  
  ----- ------------  ---------------      ----- ------------  ---------------
    34     -1.014960  4 H  s                 25      0.966358  3 C  py         
    40      0.851266  5 F  s                 24      0.777549  3 C  px         
     8     -0.617752  2 N  s                 20      0.436525  3 C  px         
     9     -0.413018  2 N  px                 2      0.385885  1 H  s          
    42      0.378685  5 F  py                21      0.354636  3 C  py         

 Vector   17  Occ=0.000000D+00  E= 2.806611D-01
              MO Center=  2.5D-01,  4.5D-01,  1.8D-02, r^2= 2.3D+00
   Bfn.  Coefficient  Atom+Function         Bfn.  Coefficient  Atom+Function  
  ----- ------------  ---------------      ----- ------------  ---------------
    25     -1.552354  3 C  py                 8      1.512429  2 N  s          
    23     -1.470025  3 C  s                 10     -1.238557  2 N  py         
    24      0.964412  3 C  px                 2      0.664832  1 H  s          
     9      0.639704  2 N  px                34     -0.454841  4 H  s          
     6     -0.359981  2 N  py                20      0.313111  3 C  px         

 Vector   18  Occ=0.000000D+00  E= 5.006856D-01
              MO Center=  4.2D-01, -2.7D-01,  2.2D-02, r^2= 1.9D+00
   Bfn.  Coefficient  Atom+Function         Bfn.  Coefficient  Atom+Function  
  ----- ------------  ---------------      ----- ------------  ---------------
    25      1.363505  3 C  py                21     -0.895692  3 C  py         
    40      0.751783  5 F  s                 23     -0.739352  3 C  s          
    19      0.366995  3 C  s                 24      0.355132  3 C  px         
     8     -0.309528  2 N  s                 38     -0.271894  5 F  py         
    10     -0.185387  2 N  py                45      0.181105  5 F  dxy        

 Vector   19  Occ=0.000000D+00  E= 5.201762D-01
              MO Center=  4.8D-01,  2.9D-02, -1.7D-02, r^2= 2.0D+00
   Bfn.  Coefficient  Atom+Function         Bfn.  Coefficient  Atom+Function  
  ----- ------------  ---------------      ----- ------------  ---------------
    26      1.216428  3 C  pz                22     -0.962299  3 C  pz         
    24      0.446769  3 C  px                 8      0.277946  2 N  s          
    23     -0.269802  3 C  s                 20     -0.221760  3 C  px         
    10     -0.153131  2 N  py                40      0.148461  5 F  s          
     6      0.129145  2 N  py                25     -0.120400  3 C  py         

 Vector   20  Occ=0.000000D+00  E= 5.666403D-01
              MO Center= -1.5D-01,  2.4D-01,  2.2D-01, r^2= 1.8D+00
   Bfn.  Coefficient  Atom+Function         Bfn.  Coefficient  Atom+Function  
  ----- ------------  ---------------      ----- ------------  ---------------
    24     -1.463730  3 C  px                23      1.345599  3 C  s          
    19     -0.857172  3 C  s                 25      0.755090  3 C  py         
     8     -0.695686  2 N  s                 20      0.629901  3 C  px         
    34      0.586863  4 H  s                 21     -0.359431  3 C  py         
     2     -0.309525  1 H  s                 26      0.306280  3 C  pz         

 Vector   21  Occ=0.000000D+00  E= 6.557080D-01
              MO Center=  6.1D-01,  3.5D-01, -7.0D-02, r^2= 2.1D+00
   Bfn.  Coefficient  Atom+Function         Bfn.  Coefficient  Atom+Function  
  ----- ------------  ---------------      ----- ------------  ---------------
    24      1.040579  3 C  px                23      0.827385  3 C  s          
    33     -0.748130  4 H  s                  5     -0.509578  2 N  px         
    19     -0.468878  3 C  s                  9      0.314690  2 N  px         
     8      0.260235  2 N  s                 34     -0.254489  4 H  s          
    20     -0.222712  3 C  px                37     -0.185903  5 F  px         

 Vector   22  Occ=0.000000D+00  E= 7.074611D-01
              MO Center= -4.0D-01,  1.6D+00, -1.8D-01, r^2= 1.4D+00
   Bfn.  Coefficient  Atom+Function         Bfn.  Coefficient  Atom+Function  
  ----- ------------  ---------------      ----- ------------  ---------------
    10      1.162838  2 N  py                23      0.738834  3 C  s          
     6     -0.594780  2 N  py                 7      0.572197  2 N  pz         
     9     -0.514990  2 N  px                 1     -0.474731  1 H  s          
    11     -0.407785  2 N  pz                25      0.340272  3 C  py         
     8     -0.291218  2 N  s                 24     -0.236290  3 C  px         

 Vector   23  Occ=0.000000D+00  E= 7.885378D-01
              MO Center= -2.1D-02,  1.0D+00, -1.1D-01, r^2= 2.4D+00
   Bfn.  Coefficient  Atom+Function         Bfn.  Coefficient  Atom+Function  
  ----- ------------  ---------------      ----- ------------  ---------------
    24      1.473067  3 C  px                34     -1.140900  4 H  s          
    23      0.905122  3 C  s                  9     -0.805789  2 N  px         
    11     -0.720813  2 N  pz                10     -0.706135  2 N  py         
     5      0.580546  2 N  px                19     -0.464237  3 C  s          
     1      0.432584  1 H  s                 20     -0.424745  3 C  px         

 Vector   24  Occ=0.000000D+00  E= 8.056616D-01
              MO Center=  9.4D-01,  3.1D-01, -1.0D-01, r^2= 2.5D+00
   Bfn.  Coefficient  Atom+Function         Bfn.  Coefficient  Atom+Function  
  ----- ------------  ---------------      ----- ------------  ---------------
    23      1.795651  3 C  s                 34     -1.652964  4 H  s          
    19     -0.836679  3 C  s                 33      0.836967  4 H  s          
    24      0.521195  3 C  px                 9      0.517955  2 N  px         
    20     -0.454789  3 C  px                 5     -0.382979  2 N  px         
    10      0.257736  2 N  py                25     -0.202348  3 C  py         

 Vector   25  Occ=0.000000D+00  E= 8.377386D-01
              MO Center= -7.5D-03,  9.9D-01,  1.3D-01, r^2= 2.6D+00
   Bfn.  Coefficient  Atom+Function         Bfn.  Coefficient  Atom+Function  
  ----- ------------  ---------------      ----- ------------  ---------------
    23      1.271226  3 C  s                 24      1.245972  3 C  px         
    34     -1.136927  4 H  s                  1     -0.870580  1 H  s          
    11      0.665728  2 N  pz                19     -0.639726  3 C  s          
     2      0.552381  1 H  s                 26     -0.516203  3 C  pz         
     9     -0.474954  2 N  px                10     -0.392794  2 N  py         

 Vector   26  Occ=0.000000D+00  E= 9.291536D-01
              MO Center= -2.7D-01,  1.3D+00,  2.3D-01, r^2= 2.2D+00
   Bfn.  Coefficient  Atom+Function         Bfn.  Coefficient  Atom+Function  
  ----- ------------  ---------------      ----- ------------  ---------------
    23      2.317723  3 C  s                  2     -1.705617  1 H  s          
    10      1.379360  2 N  py                11      1.262561  2 N  pz         
     9     -0.973408  2 N  px                25      0.846135  3 C  py         
     7     -0.721406  2 N  pz                19     -0.628300  3 C  s          
     6     -0.504121  2 N  py                34     -0.453112  4 H  s          

 Vector   27  Occ=0.000000D+00  E= 1.073314D+00
              MO Center= -3.9D-01, -1.3D+00, -1.1D-02, r^2= 1.6D+00
   Bfn.  Coefficient  Atom+Function         Bfn.  Coefficient  Atom+Function  
  ----- ------------  ---------------      ----- ------------  ---------------
    40      2.273387  5 F  s                 36     -1.120952  5 F  s          
     8     -0.816833  2 N  s                 42     -0.763400  5 F  py         
    38      0.538027  5 F  py                49     -0.526905  5 F  dzz        
    44     -0.519290  5 F  dxx               25      0.503625  3 C  py         
    47     -0.475280  5 F  dyy               41     -0.404376  5 F  px         

 Vector   28  Occ=0.000000D+00  E= 1.123390D+00
              MO Center=  4.7D-03,  5.6D-01,  4.1D-02, r^2= 2.4D+00
   Bfn.  Coefficient  Atom+Function         Bfn.  Coefficient  Atom+Function  
  ----- ------------  ---------------      ----- ------------  ---------------
     8      4.406907  2 N  s                 23     -2.825945  3 C  s          
     4     -1.454897  2 N  s                 10     -1.264485  2 N  py         
    25     -1.203135  3 C  py                24      0.841684  3 C  px         
    40      0.803408  5 F  s                  9      0.662174  2 N  px         
     2     -0.494599  1 H  s                 19      0.463390  3 C  s          

 Vector   29  Occ=0.000000D+00  E= 1.175969D+00
              MO Center= -1.1D-01, -7.6D-01, -1.6D-02, r^2= 1.5D+00
   Bfn.  Coefficient  Atom+Function         Bfn.  Coefficient  Atom+Function  
  ----- ------------  ---------------      ----- ------------  ---------------
    43      0.993711  5 F  pz                39     -0.827487  5 F  pz         
     8      0.630675  2 N  s                 26     -0.437665  3 C  pz         
    29     -0.410299  3 C  dxz               11      0.404852  2 N  pz         
     4     -0.250835  2 N  s                 24      0.246227  3 C  px         
    31     -0.244227  3 C  dyz               34     -0.214233  4 H  s          

 Vector   30  Occ=0.000000D+00  E= 1.320455D+00
              MO Center= -1.6D-01, -6.8D-01, -1.7D-02, r^2= 2.0D+00
   Bfn.  Coefficient  Atom+Function         Bfn.  Coefficient  Atom+Function  
  ----- ------------  ---------------      ----- ------------  ---------------
     8      2.047219  2 N  s                 24      1.400812  3 C  px         
    41     -0.997866  5 F  px                25     -0.941781  3 C  py         
    23     -0.779700  3 C  s                 10     -0.668556  2 N  py         
    34     -0.643528  4 H  s                 37      0.646581  5 F  px         
    42      0.628278  5 F  py                 4     -0.478147  2 N  s          

 Vector   31  Occ=0.000000D+00  E= 1.373262D+00
              MO Center= -4.6D-02, -1.2D-01, -1.9D-02, r^2= 1.9D+00
   Bfn.  Coefficient  Atom+Function         Bfn.  Coefficient  Atom+Function  
  ----- ------------  ---------------      ----- ------------  ---------------
    31      0.936068  3 C  dyz               48     -0.477197  5 F  dyz        
    16     -0.436773  2 N  dyz               46     -0.430418  5 F  dxz        
    43      0.381707  5 F  pz                14      0.360160  2 N  dxz        
    40     -0.347492  5 F  s                 41     -0.341960  5 F  px         
    17      0.295887  2 N  dzz                1      0.227078  1 H  s          

 Vector   32  Occ=0.000000D+00  E= 1.411620D+00
              MO Center=  7.9D-02, -2.9D-01,  9.5D-03, r^2= 1.7D+00
   Bfn.  Coefficient  Atom+Function         Bfn.  Coefficient  Atom+Function  
  ----- ------------  ---------------      ----- ------------  ---------------
    29      1.015851  3 C  dxz                8     -0.773196  2 N  s          
    48     -0.621758  5 F  dyz               25      0.510160  3 C  py         
    16      0.428910  2 N  dyz               43      0.395092  5 F  pz         
    41      0.392041  5 F  px                40      0.372295  5 F  s          
    23      0.357738  3 C  s                 24     -0.343089  3 C  px         

 Vector   33  Occ=0.000000D+00  E= 1.628298D+00
              MO Center= -1.5D-02, -3.2D-01, -3.7D-02, r^2= 1.8D+00
   Bfn.  Coefficient  Atom+Function         Bfn.  Coefficient  Atom+Function  
  ----- ------------  ---------------      ----- ------------  ---------------
    40      2.748486  5 F  s                 36     -1.311006  5 F  s          
    42      0.758874  5 F  py                25      0.737573  3 C  py         
    23     -0.683541  3 C  s                 47     -0.657391  5 F  dyy        
     8     -0.614084  2 N  s                 41      0.528094  5 F  px         
    38     -0.441806  5 F  py                45     -0.426794  5 F  dxy        

 Vector   34  Occ=0.000000D+00  E= 1.671364D+00
              MO Center=  1.2D-02,  4.6D-02, -3.3D-02, r^2= 2.0D+00
   Bfn.  Coefficient  Atom+Function         Bfn.  Coefficient  Atom+Function  
  ----- ------------  ---------------      ----- ------------  ---------------
    40      1.223040  5 F  s                  8     -0.912232  2 N  s          
    25      0.843368  3 C  py                14     -0.800838  2 N  dxz        
    23      0.681746  3 C  s                 49     -0.605254  5 F  dzz        
    45     -0.504987  5 F  dxy               28     -0.480531  3 C  dxy        
    16     -0.470045  2 N  dyz               36     -0.449657  5 F  s          

 Vector   35  Occ=0.000000D+00  E= 1.686799D+00
              MO Center= -1.2D-01,  4.1D-01, -8.5D-02, r^2= 1.7D+00
   Bfn.  Coefficient  Atom+Function         Bfn.  Coefficient  Atom+Function  
  ----- ------------  ---------------      ----- ------------  ---------------
    14      1.030648  2 N  dxz               16      0.553288  2 N  dyz        
    25      0.523297  3 C  py                28     -0.507878  3 C  dxy        
    23      0.443998  3 C  s                 44      0.417187  5 F  dxx        
    48      0.378575  5 F  dyz                8     -0.349717  2 N  s          
    12     -0.321002  2 N  dxx               49     -0.274543  5 F  dzz        

 Vector   36  Occ=0.000000D+00  E= 1.721748D+00
              MO Center= -1.3D-02, -5.4D-01,  2.9D-02, r^2= 1.5D+00
   Bfn.  Coefficient  Atom+Function         Bfn.  Coefficient  Atom+Function  
  ----- ------------  ---------------      ----- ------------  ---------------
    46      0.893932  5 F  dxz               48     -0.666370  5 F  dyz        
    24     -0.550512  3 C  px                14     -0.472704  2 N  dxz        
    33      0.458797  4 H  s                 45      0.460879  5 F  dxy        
    28     -0.379861  3 C  dxy               47     -0.366201  5 F  dyy        
    27     -0.316047  3 C  dxx               23     -0.312767  3 C  s          

 Vector   37  Occ=0.000000D+00  E= 1.789518D+00
              MO Center= -9.1D-02, -5.4D-01, -1.1D-01, r^2= 1.6D+00
   Bfn.  Coefficient  Atom+Function         Bfn.  Coefficient  Atom+Function  
  ----- ------------  ---------------      ----- ------------  ---------------
    46      1.195894  5 F  dxz               23      0.515507  3 C  s          
    14      0.480889  2 N  dxz               45     -0.470847  5 F  dxy        
    16     -0.430536  2 N  dyz               40     -0.389972  5 F  s          
    47      0.391792  5 F  dyy               33     -0.347713  4 H  s          
    48     -0.275832  5 F  dyz               24      0.265027  3 C  px         

 Vector   38  Occ=0.000000D+00  E= 1.846316D+00
              MO Center= -6.3D-02, -2.8D-01,  3.1D-02, r^2= 2.0D+00
   Bfn.  Coefficient  Atom+Function         Bfn.  Coefficient  Atom+Function  
  ----- ------------  ---------------      ----- ------------  ---------------
    40      2.574621  5 F  s                 24      1.328313  3 C  px         
    23     -1.150562  3 C  s                 36     -0.913933  5 F  s          
    47     -0.668674  5 F  dyy               44     -0.615340  5 F  dxx        
    13      0.583534  2 N  dxy               25      0.547794  3 C  py         
    42      0.533004  5 F  py                10     -0.508001  2 N  py         

 Vector   39  Occ=0.000000D+00  E= 1.966842D+00
              MO Center=  1.4D-01, -1.7D-01,  9.0D-03, r^2= 1.4D+00
   Bfn.  Coefficient  Atom+Function         Bfn.  Coefficient  Atom+Function  
  ----- ------------  ---------------      ----- ------------  ---------------
    23      1.665373  3 C  s                 40     -1.320593  5 F  s          
    32     -0.902481  3 C  dzz                8     -0.862973  2 N  s          
    45      0.729836  5 F  dxy               24     -0.500424  3 C  px         
    19     -0.485697  3 C  s                 36      0.417783  5 F  s          
    30      0.406159  3 C  dyy               49      0.306765  5 F  dzz        

 Vector   40  Occ=0.000000D+00  E= 2.081027D+00
              MO Center= -3.3D-02,  5.5D-01,  6.0D-02, r^2= 1.6D+00
   Bfn.  Coefficient  Atom+Function         Bfn.  Coefficient  Atom+Function  
  ----- ------------  ---------------      ----- ------------  ---------------
     8      1.485546  2 N  s                 29      0.917321  3 C  dxz        
    13     -0.886070  2 N  dxy               11      0.749266  2 N  pz         
     1     -0.588458  1 H  s                 23     -0.567105  3 C  s          
    48      0.523436  5 F  dyz                4     -0.502578  2 N  s          
    31     -0.498467  3 C  dyz               17      0.493907  2 N  dzz        

 Vector   41  Occ=0.000000D+00  E= 2.177784D+00
              MO Center=  1.2D-01,  1.4D-01, -2.1D-02, r^2= 1.6D+00
   Bfn.  Coefficient  Atom+Function         Bfn.  Coefficient  Atom+Function  
  ----- ------------  ---------------      ----- ------------  ---------------
    28      1.053726  3 C  dxy                8     -0.815518  2 N  s          
    13      0.805994  2 N  dxy               29      0.632267  3 C  dxz        
    23      0.531652  3 C  s                 10      0.500071  2 N  py         
    48      0.453955  5 F  dyz               16     -0.448712  2 N  dyz        
    45      0.399134  5 F  dxy               17      0.381005  2 N  dzz        

 Vector   42  Occ=0.000000D+00  E= 2.320668D+00
              MO Center= -7.4D-02,  4.8D-01, -4.4D-02, r^2= 1.8D+00
   Bfn.  Coefficient  Atom+Function         Bfn.  Coefficient  Atom+Function  
  ----- ------------  ---------------      ----- ------------  ---------------
     8      1.319219  2 N  s                 16      0.921535  2 N  dyz        
    48     -0.852108  5 F  dyz                1     -0.798920  1 H  s          
    29     -0.739344  3 C  dxz               23     -0.695997  3 C  s          
    12     -0.604123  2 N  dxx               28      0.558448  3 C  dxy        
    24      0.513689  3 C  px                17      0.476934  2 N  dzz        

 Vector   43  Occ=0.000000D+00  E= 2.437725D+00
              MO Center=  5.4D-02,  7.6D-02, -2.9D-03, r^2= 1.7D+00
   Bfn.  Coefficient  Atom+Function         Bfn.  Coefficient  Atom+Function  
  ----- ------------  ---------------      ----- ------------  ---------------
    31      1.508012  3 C  dyz               48      0.944326  5 F  dyz        
    16      0.924666  2 N  dyz               14     -0.700852  2 N  dxz        
    46      0.692517  5 F  dxz                8      0.658744  2 N  s          
     1     -0.444967  1 H  s                 23     -0.430179  3 C  s          
    43      0.318443  5 F  pz                13     -0.289033  2 N  dxy        

 Vector   44  Occ=0.000000D+00  E= 2.548432D+00
              MO Center= -2.3D-02,  6.0D-01, -4.5D-02, r^2= 1.6D+00
   Bfn.  Coefficient  Atom+Function         Bfn.  Coefficient  Atom+Function  
  ----- ------------  ---------------      ----- ------------  ---------------
     8      2.092399  2 N  s                 23     -1.696285  3 C  s          
    10     -1.310229  2 N  py                24      1.105123  3 C  px         
    15      0.940222  2 N  dyy               28      0.779018  3 C  dxy        
    25     -0.689130  3 C  py                40      0.687443  5 F  s          
    27     -0.655631  3 C  dxx               17     -0.534594  2 N  dzz        

 Vector   45  Occ=0.000000D+00  E= 2.719831D+00
              MO Center=  6.1D-02,  1.5D-01, -2.2D-02, r^2= 1.8D+00
   Bfn.  Coefficient  Atom+Function         Bfn.  Coefficient  Atom+Function  
  ----- ------------  ---------------      ----- ------------  ---------------
    13      1.281042  2 N  dxy               28     -1.183641  3 C  dxy        
     8     -1.086169  2 N  s                 23      0.958298  3 C  s          
    30      0.753519  3 C  dyy               10      0.630773  2 N  py         
    21      0.629225  3 C  py                27     -0.626156  3 C  dxx        
    47      0.626773  5 F  dyy               25      0.615311  3 C  py         

 Vector   46  Occ=0.000000D+00  E= 2.939714D+00
              MO Center= -1.6D-04, -6.7D-01, -5.3D-03, r^2= 1.3D+00
   Bfn.  Coefficient  Atom+Function         Bfn.  Coefficient  Atom+Function  
  ----- ------------  ---------------      ----- ------------  ---------------
    40      2.125383  5 F  s                 23     -1.531594  3 C  s          
    45      1.523967  5 F  dxy               42      1.292836  5 F  py         
    19     -1.045667  3 C  s                 36     -1.018577  5 F  s          
    28     -0.953272  3 C  dxy               21      0.814003  3 C  py         
    47      0.771595  5 F  dyy               41      0.719542  5 F  px         

 Vector   47  Occ=0.000000D+00  E= 3.664562D+00
              MO Center= -2.2D-01,  1.2D+00, -8.9D-02, r^2= 1.0D+00
   Bfn.  Coefficient  Atom+Function         Bfn.  Coefficient  Atom+Function  
  ----- ------------  ---------------      ----- ------------  ---------------
     8      3.604603  2 N  s                 12     -1.537761  2 N  dxx        
    17     -1.504204  2 N  dzz               15     -1.451080  2 N  dyy        
    23     -1.137400  3 C  s                  4      1.053369  2 N  s          
    40      0.770340  5 F  s                  2     -0.616208  1 H  s          
    24      0.593032  3 C  px                19      0.567651  3 C  s          

 Vector   48  Occ=0.000000D+00  E= 4.066638D+00
              MO Center=  6.8D-02, -6.3D-01,  4.0D-03, r^2= 1.6D+00
   Bfn.  Coefficient  Atom+Function         Bfn.  Coefficient  Atom+Function  
  ----- ------------  ---------------      ----- ------------  ---------------
    40      6.424474  5 F  s                 19     -2.066365  3 C  s          
    44     -2.074835  5 F  dxx               23     -1.999448  3 C  s          
    47     -1.994990  5 F  dyy               49     -2.000252  5 F  dzz        
    36     -1.489363  5 F  s                 30      1.450548  3 C  dyy        
    32      1.272938  3 C  dzz               27      1.209421  3 C  dxx        

 Vector   49  Occ=0.000000D+00  E= 4.221999D+00
              MO Center=  2.4D-01, -3.1D-01,  2.1D-02, r^2= 1.8D+00
   Bfn.  Coefficient  Atom+Function         Bfn.  Coefficient  Atom+Function  
  ----- ------------  ---------------      ----- ------------  ---------------
    40      6.984662  5 F  s                 49     -2.169919  5 F  dzz        
    19      2.011715  3 C  s                 44     -1.936807  5 F  dxx        
    30     -1.795380  3 C  dyy               36     -1.787178  5 F  s          
    47     -1.427403  5 F  dyy               27     -1.411202  3 C  dxx        
    42      1.301592  5 F  py                32     -1.048939  3 C  dzz        


 center of mass
 --------------
 x =  -0.05108870 y =  -0.11090912 z =  -0.02706111

 moments of inertia (a.u.)
 ------------------
         177.277805604554           0.000000000000           0.000000000000
           0.000000000000          25.609104683858           0.000000000000
           0.000000000000           0.000000000000         197.243046469324

     Multipole analysis of the density
     ---------------------------------

     L   x y z        total         alpha         beta         nuclear
     -   - - -        -----         -----         ----         -------
     0   0 0 0     -0.000000    -12.000000    -12.000000     24.000000

     1   1 0 0      0.525431      0.262716      0.262716     -0.000000
     1   0 1 0     -0.299009     -0.149505     -0.149505     -0.000000
     1   0 0 1      0.518105      0.259053      0.259053      0.000000

     2   2 0 0    -11.931650    -13.873736    -13.873736     15.815822
     2   1 1 0     -0.441035      0.603952      0.603952     -1.648939
     2   1 0 1     -0.567185      0.197682      0.197682     -0.962548
     2   0 2 0    -13.638550    -51.751467    -51.751467     89.864384
     2   0 1 1      1.745553     -0.283260     -0.283260      2.312073
     2   0 0 2    -11.659864     -7.109414     -7.109414      2.558963


 Parallel integral file used      20 records with       0 large values


 Task  times  cpu:        5.2s     wall:        5.2s


                                NWChem Input Module
                                -------------------



                                 NWChem DFT Module
                                 -----------------


                               Test PKZB functional




 Summary of "ao basis" -> "ao basis" (cartesian)
 ------------------------------------------------------------------------------
       Tag                 Description            Shells   Functions and Types
 ---------------- ------------------------------  ------  ---------------------
 C                           6-31g*                  6       15   3s2p1d
 N                           6-31g*                  6       15   3s2p1d
 F                           6-31g*                  6       15   3s2p1d
 H                           6-31g                   2        2   2s


  Caching 1-el integrals 

            General Information
            -------------------
          SCF calculation type: DFT
          Wavefunction type:  spin polarized.
          No. of atoms     :     5
          No. of electrons :    24
           Alpha electrons :    12
            Beta electrons :    12
          Charge           :     0
          Spin multiplicity:     1
          Use of symmetry is: off; symmetry adaption is: off
          Maximum number of iterations:  30
          AO basis - number of functions:    49
                     number of shells:    22
          Convergence on energy requested:  1.00D-06
          Convergence on density requested:  1.00D-05
          Convergence on gradient requested:  5.00D-04

              XC Information
              --------------
                  PKZB metaGGA Exchange Functional  1.000          
             PKZB99 metaGGA Correlation Functional  1.000          

             Grid Information
             ----------------
          Grid used for XC integration:  xfine     
          Radial quadrature: Mura-Knowles        
          Angular quadrature: Lebedev. 
          Tag              B.-S. Rad. Rad. Pts. Rad. Cut. Ang. Pts.
          ---              ---------- --------- --------- ---------
          H                   0.35      100           8.0      1202
          N                   0.65      100           7.0      1454
          C                   0.70      100           7.0      1454
          F                   0.50      100           8.0      1454
          Grid pruning is: on 
          Number of quadrature shells:   500
          Spatial weights used:  Erf1

          Convergence Information
          -----------------------
          Convergence aids based upon iterative change in 
          total energy or number of iterations. 
          Levelshifting, if invoked, occurs when the 
          HOMO/LUMO gap drops below (HL_TOL):  1.00D-02
          DIIS, if invoked, will attempt to extrapolate 
          using up to (NFOCK): 10 stored Fock matrices.

                    Damping( 0%)  Levelshifting(0.5)       DIIS
                  --------------- ------------------- ---------------
          dE  on:    start            ASAP                start   
          dE off:    2 iters         30 iters            30 iters 


      Screening Tolerance Information
      -------------------------------
          Density screening/tol_rho:  1.00D-10
          AO Gaussian exp screening on grid/accAOfunc:  14
          CD Gaussian exp screening on grid/accCDfunc:  20
          XC Gaussian exp screening on grid/accXCfunc:  20
          Schwarz screening/accCoul:  1.00D-08


      Superposition of Atomic Density Guess
      -------------------------------------

 Sum of atomic energies:        -192.32278949

      Non-variational initial energy
      ------------------------------

 Total energy =    -193.147498
 1-e energy   =    -394.179153
 2-e energy   =     135.616868
 HOMO         =      -0.281088
 LUMO         =      -0.025805

   Time after variat. SCF:      5.3
   Time prior to 1st pass:      5.3

 Integral file          = ./pkzb.aoints.0
 Record size in doubles =  65536        No. of integs per rec  =  43688
 Max. records in memory =      7        Max. records in file   = 161632
 No. of bits per label  =      8        No. of bits per value  =     64


 #quartets = 3.095D+04 #integrals = 7.618D+05 #direct =  0.0% #cached =100.0%


File balance: exchanges=     0  moved=     0  time=   0.0


 Grid_pts file          = ./pkzb.gridpts.0
 Record size in doubles =  12289        No. of grid_pts per rec  =   3070
 Max. records in memory =     67        Max. recs in file   =    861973


           Memory utilization after 1st SCF pass: 
           Heap Space remaining (MW):       84.96            84962610
          Stack Space remaining (MW):       86.25            86246580

   convergence    iter        energy       DeltaE   RMS-Dens  Diis-err    time
 ---------------- ----- ----------------- --------- --------- ---------  ------
 d= 0,ls=0.0,diis     1   -193.2846131654 -2.59D+02  2.77D-02  3.12D-01     6.2
                                                     2.77D-02  3.12D-01
 d= 0,ls=0.0,diis     2   -191.8737476517  1.41D+00  2.49D-02  2.95D+00     7.3
                                                     2.49D-02  2.95D+00
 d= 0,ls=0.0,diis     3   -193.3673001503 -1.49D+00  6.29D-03  1.98D-01     8.4
                                                     6.29D-03  1.98D-01
 d= 0,ls=0.0,diis     4   -193.4402308869 -7.29D-02  1.17D-03  1.87D-02     9.5
                                                     1.17D-03  1.87D-02
 d= 0,ls=0.0,diis     5   -193.4469314536 -6.70D-03  2.47D-04  2.41D-04    10.6
                                                     2.47D-04  2.41D-04
  Resetting Diis
 d= 0,ls=0.0,diis     6   -193.4470653627 -1.34D-04  4.13D-05  4.74D-06    11.8
                                                     4.13D-05  4.74D-06
 d= 0,ls=0.0,diis     7   -193.4470673416 -1.98D-06  4.93D-05  7.89D-07    13.0
                                                     4.93D-05  7.89D-07
 d= 0,ls=0.0,diis     8   -193.4470638153  3.53D-06  3.74D-05  8.02D-06    14.2
                                                     3.74D-05  8.02D-06
 d= 0,ls=0.0,diis     9   -193.4470677323 -3.92D-06  5.90D-06  1.34D-07    15.4
                                                     5.90D-06  1.34D-07
 d= 0,ls=0.0,diis    10   -193.4470677838 -5.15D-08  1.57D-06  2.03D-08    16.6
                                                     1.57D-06  2.03D-08


         Total DFT energy =     -193.447067783780
      One electron energy =     -395.186694437095
           Coulomb energy =      159.358270723891
    Exchange-Corr. energy =      -23.033431865488
 Nuclear repulsion energy =       65.414787794912

 Numeric. integr. density =       24.000000014250

     Total iterative time =     11.3s



                    DFT Final Alpha Molecular Orbital Analysis
                    ------------------------------------------

 Vector    1  Occ=1.000000D+00  E=-2.432566D+01
              MO Center= -2.2D-01, -1.2D+00, -1.9D-02, r^2= 1.2D-02
   Bfn.  Coefficient  Atom+Function         Bfn.  Coefficient  Atom+Function  
  ----- ------------  ---------------      ----- ------------  ---------------
    35      0.993301  5 F  s          

 Vector    2  Occ=1.000000D+00  E=-1.398369D+01
              MO Center= -2.4D-01,  1.2D+00, -9.8D-02, r^2= 2.0D-02
   Bfn.  Coefficient  Atom+Function         Bfn.  Coefficient  Atom+Function  
  ----- ------------  ---------------      ----- ------------  ---------------
     3      0.993380  2 N  s                  4      0.032836  2 N  s          

 Vector    3  Occ=1.000000D+00  E=-1.006783D+01
              MO Center=  4.3D-01,  2.1D-02,  3.4D-02, r^2= 2.8D-02
   Bfn.  Coefficient  Atom+Function         Bfn.  Coefficient  Atom+Function  
  ----- ------------  ---------------      ----- ------------  ---------------
    18      0.993942  3 C  s                 19      0.040626  3 C  s          

 Vector    4  Occ=1.000000D+00  E=-1.163803D+00
              MO Center= -1.3D-01, -9.9D-01, -1.2D-02, r^2= 4.1D-01
   Bfn.  Coefficient  Atom+Function         Bfn.  Coefficient  Atom+Function  
  ----- ------------  ---------------      ----- ------------  ---------------
    36      0.505300  5 F  s                 40      0.431400  5 F  s          
    35     -0.219318  5 F  s                 19      0.117061  3 C  s          
    21     -0.095657  3 C  py                38      0.086107  5 F  py         
    18     -0.064304  3 C  s                 20     -0.052045  3 C  px         
    37      0.050903  5 F  px                42      0.040926  5 F  py         

 Vector    5  Occ=1.000000D+00  E=-7.839881D-01
              MO Center= -3.2D-02,  8.3D-01,  6.9D-02, r^2= 9.5D-01
   Bfn.  Coefficient  Atom+Function         Bfn.  Coefficient  Atom+Function  
  ----- ------------  ---------------      ----- ------------  ---------------
     4      0.363461  2 N  s                  8      0.351219  2 N  s          
    19      0.236387  3 C  s                  3     -0.174296  2 N  s          
    21      0.143756  3 C  py                23      0.130007  3 C  s          
     1      0.128802  1 H  s                 40     -0.117079  5 F  s          
    18     -0.114157  3 C  s                 36     -0.094543  5 F  s          

 Vector    6  Occ=1.000000D+00  E=-5.929279D-01
              MO Center=  2.0D-01, -1.7D-01,  3.6D-02, r^2= 2.0D+00
   Bfn.  Coefficient  Atom+Function         Bfn.  Coefficient  Atom+Function  
  ----- ------------  ---------------      ----- ------------  ---------------
    19      0.297028  3 C  s                 38      0.249161  5 F  py         
    23      0.246016  3 C  s                 40     -0.243208  5 F  s          
    37      0.207300  5 F  px                 8     -0.204245  2 N  s          
     4     -0.175359  2 N  s                 33      0.159973  4 H  s          
    36     -0.143174  5 F  s                 42      0.142825  5 F  py         

 Vector    7  Occ=1.000000D+00  E=-4.849753D-01
              MO Center=  3.3D-01, -5.1D-01, -3.7D-02, r^2= 1.5D+00
   Bfn.  Coefficient  Atom+Function         Bfn.  Coefficient  Atom+Function  
  ----- ------------  ---------------      ----- ------------  ---------------
    38      0.440733  5 F  py                20     -0.332722  3 C  px         
    42      0.266207  5 F  py                33     -0.197452  4 H  s          
    21     -0.182292  3 C  py                40     -0.153012  5 F  s          
    34     -0.123243  4 H  s                 24     -0.097038  3 C  px         
     5     -0.094547  2 N  px                23     -0.087173  3 C  s          

 Vector    8  Occ=1.000000D+00  E=-4.521629D-01
              MO Center= -1.1D-01,  2.5D-01,  7.5D-02, r^2= 1.9D+00
   Bfn.  Coefficient  Atom+Function         Bfn.  Coefficient  Atom+Function  
  ----- ------------  ---------------      ----- ------------  ---------------
    37      0.301159  5 F  px                 6      0.258910  2 N  py         
    21     -0.218759  3 C  py                39      0.201610  5 F  pz         
     1      0.200317  1 H  s                  7      0.190421  2 N  pz         
    41      0.187583  5 F  px                20      0.179284  3 C  px         
    22      0.144372  3 C  pz                43      0.130169  5 F  pz         

 Vector    9  Occ=1.000000D+00  E=-4.187348D-01
              MO Center= -1.3D-01, -7.1D-01,  4.6D-02, r^2= 1.2D+00
   Bfn.  Coefficient  Atom+Function         Bfn.  Coefficient  Atom+Function  
  ----- ------------  ---------------      ----- ------------  ---------------
    39      0.536833  5 F  pz                43      0.358060  5 F  pz         
    22      0.204822  3 C  pz                37     -0.185884  5 F  px         
    26      0.135824  3 C  pz                 6     -0.121893  2 N  py         
    21      0.120007  3 C  py                41     -0.118442  5 F  px         
     8     -0.101702  2 N  s                 23      0.078171  3 C  s          

 Vector   10  Occ=1.000000D+00  E=-3.429862D-01
              MO Center=  8.3D-03, -4.5D-01, -9.1D-03, r^2= 1.8D+00
   Bfn.  Coefficient  Atom+Function         Bfn.  Coefficient  Atom+Function  
  ----- ------------  ---------------      ----- ------------  ---------------
    37      0.482033  5 F  px                41      0.330591  5 F  px         
    38     -0.239291  5 F  py                 8      0.214741  2 N  s          
    20     -0.183312  3 C  px                34     -0.171037  4 H  s          
     7     -0.167853  2 N  pz                 6     -0.163805  2 N  py         
    42     -0.163262  5 F  py                33     -0.161935  4 H  s          

 Vector   11  Occ=1.000000D+00  E=-2.722549D-01
              MO Center= -1.1D-01,  7.2D-01, -1.4D-01, r^2= 1.7D+00
   Bfn.  Coefficient  Atom+Function         Bfn.  Coefficient  Atom+Function  
  ----- ------------  ---------------      ----- ------------  ---------------
     7      0.358932  2 N  pz                 8     -0.287876  2 N  s          
    11      0.246867  2 N  pz                22      0.240017  3 C  pz         
    39     -0.241197  5 F  pz                 6     -0.212604  2 N  py         
    43     -0.184757  5 F  pz                 4     -0.158256  2 N  s          
    10     -0.158879  2 N  py                26      0.150015  3 C  pz         

 Vector   12  Occ=1.000000D+00  E=-1.683292D-01
              MO Center= -1.4D-01,  1.0D+00, -7.6D-02, r^2= 1.3D+00
   Bfn.  Coefficient  Atom+Function         Bfn.  Coefficient  Atom+Function  
  ----- ------------  ---------------      ----- ------------  ---------------
     5      0.515954  2 N  px                 9      0.407641  2 N  px         
     6      0.258161  2 N  py                10      0.230047  2 N  py         
    40      0.174636  5 F  s                 38      0.163407  5 F  py         
    34     -0.160020  4 H  s                 25      0.149952  3 C  py         
    42      0.142536  5 F  py                33     -0.089050  4 H  s          

 Vector   13  Occ=0.000000D+00  E=-1.037791D-01
              MO Center=  1.8D-01,  3.1D-01,  4.5D-02, r^2= 1.7D+00
   Bfn.  Coefficient  Atom+Function         Bfn.  Coefficient  Atom+Function  
  ----- ------------  ---------------      ----- ------------  ---------------
    22      0.560078  3 C  pz                26      0.460610  3 C  pz         
     8      0.290331  2 N  s                  7     -0.266763  2 N  pz         
    39     -0.255231  5 F  pz                11     -0.235628  2 N  pz         
    43     -0.219930  5 F  pz                 2     -0.209822  1 H  s          
    23      0.159570  3 C  s                  1     -0.154399  1 H  s          

 Vector   14  Occ=0.000000D+00  E= 8.391572D-02
              MO Center=  8.5D-01,  1.9D-01,  5.8D-02, r^2= 3.0D+00
   Bfn.  Coefficient  Atom+Function         Bfn.  Coefficient  Atom+Function  
  ----- ------------  ---------------      ----- ------------  ---------------
    23      1.584391  3 C  s                 34     -1.340661  4 H  s          
     8     -0.730122  2 N  s                  2      0.707422  1 H  s          
    40     -0.429132  5 F  s                 11     -0.290775  2 N  pz         
    24      0.288461  3 C  px                42     -0.241845  5 F  py         
    19      0.240534  3 C  s                 38     -0.208162  5 F  py         

 Vector   15  Occ=0.000000D+00  E= 1.287856D-01
              MO Center=  6.7D-02,  1.2D+00,  6.9D-01, r^2= 3.4D+00
   Bfn.  Coefficient  Atom+Function         Bfn.  Coefficient  Atom+Function  
  ----- ------------  ---------------      ----- ------------  ---------------
     2      1.545415  1 H  s                  8     -1.208858  2 N  s          
    34      1.022791  4 H  s                 11     -0.686773  2 N  pz         
    24     -0.567139  3 C  px                23     -0.495478  3 C  s          
     7     -0.272689  2 N  pz                20     -0.224382  3 C  px         
    26      0.221488  3 C  pz                 9      0.192394  2 N  px         

 Vector   16  Occ=0.000000D+00  E= 1.689432D-01
              MO Center=  4.8D-01, -5.2D-02,  2.4D-02, r^2= 2.4D+00
   Bfn.  Coefficient  Atom+Function         Bfn.  Coefficient  Atom+Function  
  ----- ------------  ---------------      ----- ------------  ---------------
    34     -1.014960  4 H  s                 25      0.966358  3 C  py         
    40      0.851266  5 F  s                 24      0.777549  3 C  px         
     8     -0.617751  2 N  s                 20      0.436525  3 C  px         
     9     -0.413018  2 N  px                 2      0.385885  1 H  s          
    42      0.378685  5 F  py                21      0.354636  3 C  py         

 Vector   17  Occ=0.000000D+00  E= 2.806612D-01
              MO Center=  2.5D-01,  4.5D-01,  1.8D-02, r^2= 2.3D+00
   Bfn.  Coefficient  Atom+Function         Bfn.  Coefficient  Atom+Function  
  ----- ------------  ---------------      ----- ------------  ---------------
    25     -1.552354  3 C  py                 8      1.512429  2 N  s          
    23     -1.470025  3 C  s                 10     -1.238557  2 N  py         
    24      0.964412  3 C  px                 2      0.664832  1 H  s          
     9      0.639704  2 N  px                34     -0.454840  4 H  s          
     6     -0.359981  2 N  py                20      0.313111  3 C  px         

 Vector   18  Occ=0.000000D+00  E= 5.006856D-01
              MO Center=  4.2D-01, -2.7D-01,  2.2D-02, r^2= 1.9D+00
   Bfn.  Coefficient  Atom+Function         Bfn.  Coefficient  Atom+Function  
  ----- ------------  ---------------      ----- ------------  ---------------
    25      1.363505  3 C  py                21     -0.895692  3 C  py         
    40      0.751784  5 F  s                 23     -0.739352  3 C  s          
    19      0.366995  3 C  s                 24      0.355132  3 C  px         
     8     -0.309527  2 N  s                 38     -0.271894  5 F  py         
    10     -0.185387  2 N  py                45      0.181105  5 F  dxy        

 Vector   19  Occ=0.000000D+00  E= 5.201762D-01
              MO Center=  4.8D-01,  2.9D-02, -1.7D-02, r^2= 2.0D+00
   Bfn.  Coefficient  Atom+Function         Bfn.  Coefficient  Atom+Function  
  ----- ------------  ---------------      ----- ------------  ---------------
    26      1.216428  3 C  pz                22     -0.962299  3 C  pz         
    24      0.446769  3 C  px                 8      0.277946  2 N  s          
    23     -0.269802  3 C  s                 20     -0.221760  3 C  px         
    10     -0.153131  2 N  py                40      0.148461  5 F  s          
     6      0.129145  2 N  py                25     -0.120401  3 C  py         

 Vector   20  Occ=0.000000D+00  E= 5.666403D-01
              MO Center= -1.5D-01,  2.4D-01,  2.2D-01, r^2= 1.8D+00
   Bfn.  Coefficient  Atom+Function         Bfn.  Coefficient  Atom+Function  
  ----- ------------  ---------------      ----- ------------  ---------------
    24     -1.463730  3 C  px                23      1.345599  3 C  s          
    19     -0.857172  3 C  s                 25      0.755090  3 C  py         
     8     -0.695686  2 N  s                 20      0.629901  3 C  px         
    34      0.586863  4 H  s                 21     -0.359431  3 C  py         
     2     -0.309525  1 H  s                 26      0.306280  3 C  pz         

 Vector   21  Occ=0.000000D+00  E= 6.557080D-01
              MO Center=  6.1D-01,  3.5D-01, -7.0D-02, r^2= 2.1D+00
   Bfn.  Coefficient  Atom+Function         Bfn.  Coefficient  Atom+Function  
  ----- ------------  ---------------      ----- ------------  ---------------
    24      1.040579  3 C  px                23      0.827385  3 C  s          
    33     -0.748130  4 H  s                  5     -0.509578  2 N  px         
    19     -0.468878  3 C  s                  9      0.314690  2 N  px         
     8      0.260235  2 N  s                 34     -0.254489  4 H  s          
    20     -0.222712  3 C  px                37     -0.185903  5 F  px         

 Vector   22  Occ=0.000000D+00  E= 7.074611D-01
              MO Center= -4.0D-01,  1.6D+00, -1.8D-01, r^2= 1.4D+00
   Bfn.  Coefficient  Atom+Function         Bfn.  Coefficient  Atom+Function  
  ----- ------------  ---------------      ----- ------------  ---------------
    10      1.162838  2 N  py                23      0.738834  3 C  s          
     6     -0.594780  2 N  py                 7      0.572197  2 N  pz         
     9     -0.514990  2 N  px                 1     -0.474731  1 H  s          
    11     -0.407785  2 N  pz                25      0.340272  3 C  py         
     8     -0.291218  2 N  s                 24     -0.236290  3 C  px         

 Vector   23  Occ=0.000000D+00  E= 7.885378D-01
              MO Center= -2.1D-02,  1.0D+00, -1.1D-01, r^2= 2.4D+00
   Bfn.  Coefficient  Atom+Function         Bfn.  Coefficient  Atom+Function  
  ----- ------------  ---------------      ----- ------------  ---------------
    24      1.473067  3 C  px                34     -1.140900  4 H  s          
    23      0.905122  3 C  s                  9     -0.805789  2 N  px         
    11     -0.720813  2 N  pz                10     -0.706135  2 N  py         
     5      0.580546  2 N  px                19     -0.464237  3 C  s          
     1      0.432584  1 H  s                 20     -0.424745  3 C  px         

 Vector   24  Occ=0.000000D+00  E= 8.056616D-01
              MO Center=  9.4D-01,  3.1D-01, -1.0D-01, r^2= 2.5D+00
   Bfn.  Coefficient  Atom+Function         Bfn.  Coefficient  Atom+Function  
  ----- ------------  ---------------      ----- ------------  ---------------
    23      1.795651  3 C  s                 34     -1.652964  4 H  s          
    19     -0.836679  3 C  s                 33      0.836967  4 H  s          
    24      0.521194  3 C  px                 9      0.517955  2 N  px         
    20     -0.454789  3 C  px                 5     -0.382979  2 N  px         
    10      0.257736  2 N  py                25     -0.202348  3 C  py         

 Vector   25  Occ=0.000000D+00  E= 8.377386D-01
              MO Center= -7.5D-03,  9.9D-01,  1.3D-01, r^2= 2.6D+00
   Bfn.  Coefficient  Atom+Function         Bfn.  Coefficient  Atom+Function  
  ----- ------------  ---------------      ----- ------------  ---------------
    23      1.271227  3 C  s                 24      1.245972  3 C  px         
    34     -1.136927  4 H  s                  1     -0.870580  1 H  s          
    11      0.665728  2 N  pz                19     -0.639726  3 C  s          
     2      0.552381  1 H  s                 26     -0.516203  3 C  pz         
     9     -0.474954  2 N  px                10     -0.392794  2 N  py         

 Vector   26  Occ=0.000000D+00  E= 9.291536D-01
              MO Center= -2.7D-01,  1.3D+00,  2.3D-01, r^2= 2.2D+00
   Bfn.  Coefficient  Atom+Function         Bfn.  Coefficient  Atom+Function  
  ----- ------------  ---------------      ----- ------------  ---------------
    23      2.317723  3 C  s                  2     -1.705617  1 H  s          
    10      1.379360  2 N  py                11      1.262561  2 N  pz         
     9     -0.973408  2 N  px                25      0.846135  3 C  py         
     7     -0.721406  2 N  pz                19     -0.628300  3 C  s          
     6     -0.504121  2 N  py                34     -0.453112  4 H  s          

 Vector   27  Occ=0.000000D+00  E= 1.073314D+00
              MO Center= -3.9D-01, -1.3D+00, -1.1D-02, r^2= 1.6D+00
   Bfn.  Coefficient  Atom+Function         Bfn.  Coefficient  Atom+Function  
  ----- ------------  ---------------      ----- ------------  ---------------
    40      2.273387  5 F  s                 36     -1.120952  5 F  s          
     8     -0.816832  2 N  s                 42     -0.763400  5 F  py         
    38      0.538027  5 F  py                49     -0.526905  5 F  dzz        
    44     -0.519290  5 F  dxx               25      0.503625  3 C  py         
    47     -0.475280  5 F  dyy               41     -0.404376  5 F  px         

 Vector   28  Occ=0.000000D+00  E= 1.123390D+00
              MO Center=  4.7D-03,  5.6D-01,  4.1D-02, r^2= 2.4D+00
   Bfn.  Coefficient  Atom+Function         Bfn.  Coefficient  Atom+Function  
  ----- ------------  ---------------      ----- ------------  ---------------
     8      4.406907  2 N  s                 23     -2.825945  3 C  s          
     4     -1.454897  2 N  s                 10     -1.264485  2 N  py         
    25     -1.203135  3 C  py                24      0.841684  3 C  px         
    40      0.803408  5 F  s                  9      0.662174  2 N  px         
     2     -0.494599  1 H  s                 19      0.463390  3 C  s          

 Vector   29  Occ=0.000000D+00  E= 1.175969D+00
              MO Center= -1.1D-01, -7.6D-01, -1.6D-02, r^2= 1.5D+00
   Bfn.  Coefficient  Atom+Function         Bfn.  Coefficient  Atom+Function  
  ----- ------------  ---------------      ----- ------------  ---------------
    43      0.993711  5 F  pz                39     -0.827487  5 F  pz         
     8      0.630675  2 N  s                 26     -0.437665  3 C  pz         
    29     -0.410299  3 C  dxz               11      0.404852  2 N  pz         
     4     -0.250834  2 N  s                 24      0.246227  3 C  px         
    31     -0.244227  3 C  dyz               34     -0.214233  4 H  s          

 Vector   30  Occ=0.000000D+00  E= 1.320455D+00
              MO Center= -1.6D-01, -6.8D-01, -1.7D-02, r^2= 2.0D+00
   Bfn.  Coefficient  Atom+Function         Bfn.  Coefficient  Atom+Function  
  ----- ------------  ---------------      ----- ------------  ---------------
     8      2.047219  2 N  s                 24      1.400812  3 C  px         
    41     -0.997866  5 F  px                25     -0.941781  3 C  py         
    23     -0.779700  3 C  s                 10     -0.668556  2 N  py         
    34     -0.643528  4 H  s                 37      0.646581  5 F  px         
    42      0.628278  5 F  py                 4     -0.478147  2 N  s          

 Vector   31  Occ=0.000000D+00  E= 1.373262D+00
              MO Center= -4.6D-02, -1.2D-01, -1.9D-02, r^2= 1.9D+00
   Bfn.  Coefficient  Atom+Function         Bfn.  Coefficient  Atom+Function  
  ----- ------------  ---------------      ----- ------------  ---------------
    31      0.936068  3 C  dyz               48     -0.477197  5 F  dyz        
    16     -0.436773  2 N  dyz               46     -0.430418  5 F  dxz        
    43      0.381707  5 F  pz                14      0.360160  2 N  dxz        
    40     -0.347492  5 F  s                 41     -0.341960  5 F  px         
    17      0.295887  2 N  dzz                1      0.227078  1 H  s          

 Vector   32  Occ=0.000000D+00  E= 1.411620D+00
              MO Center=  7.9D-02, -2.9D-01,  9.5D-03, r^2= 1.7D+00
   Bfn.  Coefficient  Atom+Function         Bfn.  Coefficient  Atom+Function  
  ----- ------------  ---------------      ----- ------------  ---------------
    29      1.015851  3 C  dxz                8     -0.773196  2 N  s          
    48     -0.621758  5 F  dyz               25      0.510160  3 C  py         
    16      0.428910  2 N  dyz               43      0.395092  5 F  pz         
    41      0.392041  5 F  px                40      0.372295  5 F  s          
    23      0.357738  3 C  s                 24     -0.343089  3 C  px         

 Vector   33  Occ=0.000000D+00  E= 1.628298D+00
              MO Center= -1.5D-02, -3.2D-01, -3.7D-02, r^2= 1.8D+00
   Bfn.  Coefficient  Atom+Function         Bfn.  Coefficient  Atom+Function  
  ----- ------------  ---------------      ----- ------------  ---------------
    40      2.748485  5 F  s                 36     -1.311006  5 F  s          
    42      0.758874  5 F  py                25      0.737573  3 C  py         
    23     -0.683541  3 C  s                 47     -0.657391  5 F  dyy        
     8     -0.614084  2 N  s                 41      0.528094  5 F  px         
    38     -0.441806  5 F  py                45     -0.426794  5 F  dxy        

 Vector   34  Occ=0.000000D+00  E= 1.671364D+00
              MO Center=  1.2D-02,  4.6D-02, -3.3D-02, r^2= 2.0D+00
   Bfn.  Coefficient  Atom+Function         Bfn.  Coefficient  Atom+Function  
  ----- ------------  ---------------      ----- ------------  ---------------
    40      1.223041  5 F  s                  8     -0.912232  2 N  s          
    25      0.843368  3 C  py                14     -0.800837  2 N  dxz        
    23      0.681746  3 C  s                 49     -0.605254  5 F  dzz        
    45     -0.504988  5 F  dxy               28     -0.480532  3 C  dxy        
    16     -0.470045  2 N  dyz               36     -0.449658  5 F  s          

 Vector   35  Occ=0.000000D+00  E= 1.686799D+00
              MO Center= -1.2D-01,  4.1D-01, -8.5D-02, r^2= 1.7D+00
   Bfn.  Coefficient  Atom+Function         Bfn.  Coefficient  Atom+Function  
[...]
    31     -0.247934  3 C  dyz               34     -0.197453  4 H  s          
    14     -0.182971  2 N  dxz               23      0.180564  3 C  s          

 Vector   30  Occ=0.000000D+00  E= 1.344788D+00
              MO Center= -1.6D-01, -6.5D-01, -2.0D-02, r^2= 2.1D+00
   Bfn.  Coefficient  Atom+Function         Bfn.  Coefficient  Atom+Function  
  ----- ------------  ---------------      ----- ------------  ---------------
     8      1.994901  2 N  s                 24      1.398761  3 C  px         
    41     -0.984275  5 F  px                25     -0.923793  3 C  py         
    23     -0.788092  3 C  s                 10     -0.665782  2 N  py         
    34     -0.641080  4 H  s                 37      0.643496  5 F  px         
    42      0.643802  5 F  py                 4     -0.455425  2 N  s          

 Vector   31  Occ=0.000000D+00  E= 1.399464D+00
              MO Center= -5.3D-02, -2.4D-02, -2.5D-02, r^2= 1.9D+00
   Bfn.  Coefficient  Atom+Function         Bfn.  Coefficient  Atom+Function  
  ----- ------------  ---------------      ----- ------------  ---------------
    31      0.830343  3 C  dyz               16     -0.545090  2 N  dyz        
    41     -0.444287  5 F  px                46     -0.384891  5 F  dxz        
    40     -0.377552  5 F  s                 14      0.366693  2 N  dxz        
    48     -0.360950  5 F  dyz               17      0.316557  2 N  dzz        
    43      0.315024  5 F  pz                37      0.270716  5 F  px         

 Vector   32  Occ=0.000000D+00  E= 1.446336D+00
              MO Center=  5.6D-02, -2.6D-01,  7.6D-03, r^2= 1.8D+00
   Bfn.  Coefficient  Atom+Function         Bfn.  Coefficient  Atom+Function  
  ----- ------------  ---------------      ----- ------------  ---------------
    29      0.925969  3 C  dxz               48     -0.671726  5 F  dyz        
     8     -0.665369  2 N  s                 25      0.436164  3 C  py         
    43      0.438055  5 F  pz                16      0.422247  2 N  dyz        
    14      0.392306  2 N  dxz               31      0.336205  3 C  dyz        
    40      0.336352  5 F  s                 23      0.309700  3 C  s          

 Vector   33  Occ=0.000000D+00  E= 1.643202D+00
              MO Center= -6.9D-02,  2.2D-01, -4.5D-02, r^2= 1.9D+00
   Bfn.  Coefficient  Atom+Function         Bfn.  Coefficient  Atom+Function  
  ----- ------------  ---------------      ----- ------------  ---------------
    40      1.808025  5 F  s                 36     -0.918896  5 F  s          
    14      0.854525  2 N  dxz               23     -0.789159  3 C  s          
    42      0.558951  5 F  py                47     -0.459626  5 F  dyy        
    41      0.424015  5 F  px                13     -0.421095  2 N  dxy        
    38     -0.375529  5 F  py                16      0.346893  2 N  dyz        

 Vector   34  Occ=0.000000D+00  E= 1.667332D+00
              MO Center= -1.6D-01,  4.3D-01, -1.1D-01, r^2= 1.8D+00
   Bfn.  Coefficient  Atom+Function         Bfn.  Coefficient  Atom+Function  
  ----- ------------  ---------------      ----- ------------  ---------------
    40      1.641715  5 F  s                 14     -1.077049  2 N  dxz        
    36     -0.765849  5 F  s                 16     -0.639550  2 N  dyz        
    42      0.471194  5 F  py                45     -0.467251  5 F  dxy        
     8     -0.460905  2 N  s                 48     -0.445519  5 F  dyz        
    25      0.408277  3 C  py                23     -0.270788  3 C  s          

 Vector   35  Occ=0.000000D+00  E= 1.701116D+00
              MO Center=  7.4D-02, -4.3D-01, -6.6D-03, r^2= 1.8D+00
   Bfn.  Coefficient  Atom+Function         Bfn.  Coefficient  Atom+Function  
  ----- ------------  ---------------      ----- ------------  ---------------
    40      1.832781  5 F  s                 25      1.101101  3 C  py         
     8     -0.838197  2 N  s                 36     -0.685368  5 F  s          
    49     -0.675908  5 F  dzz               28     -0.656127  3 C  dxy        
    45     -0.441175  5 F  dxy               47     -0.438709  5 F  dyy        
    23      0.426737  3 C  s                  9     -0.350279  2 N  px         

 Vector   36  Occ=0.000000D+00  E= 1.744600D+00
              MO Center=  5.9D-02, -5.5D-01,  3.8D-02, r^2= 1.4D+00
   Bfn.  Coefficient  Atom+Function         Bfn.  Coefficient  Atom+Function  
  ----- ------------  ---------------      ----- ------------  ---------------
    46      0.795853  5 F  dxz               24     -0.689887  3 C  px         
    48     -0.597138  5 F  dyz               45      0.525603  5 F  dxy        
    33      0.522544  4 H  s                 28     -0.417634  3 C  dxy        
    47     -0.391765  5 F  dyy               27     -0.371105  3 C  dxx        
    29      0.334577  3 C  dxz               25      0.330027  3 C  py         

 Vector   37  Occ=0.000000D+00  E= 1.810926D+00
              MO Center= -1.1D-01, -5.8D-01, -9.9D-02, r^2= 1.6D+00
   Bfn.  Coefficient  Atom+Function         Bfn.  Coefficient  Atom+Function  
  ----- ------------  ---------------      ----- ------------  ---------------
    46      1.286402  5 F  dxz               16     -0.492865  2 N  dyz        
    14      0.428507  2 N  dxz               45     -0.413913  5 F  dxy        
    23      0.401125  3 C  s                 33     -0.320486  4 H  s          
    24      0.310564  3 C  px                47      0.305073  5 F  dyy        
    48     -0.301703  5 F  dyz               17      0.234044  2 N  dzz        

 Vector   38  Occ=0.000000D+00  E= 1.863268D+00
              MO Center= -1.1D-01, -4.4D-01,  2.8D-02, r^2= 2.0D+00
   Bfn.  Coefficient  Atom+Function         Bfn.  Coefficient  Atom+Function  
  ----- ------------  ---------------      ----- ------------  ---------------
    40      2.641973  5 F  s                 24      1.229546  3 C  px         
    23     -1.200890  3 C  s                 36     -0.968631  5 F  s          
    47     -0.730425  5 F  dyy               44     -0.652347  5 F  dxx        
    13      0.595112  2 N  dxy               42      0.557457  5 F  py         
    25      0.543494  3 C  py                10     -0.495116  2 N  py         

 Vector   39  Occ=0.000000D+00  E= 2.026664D+00
              MO Center=  1.4D-01, -5.6D-02,  2.0D-02, r^2= 1.5D+00
   Bfn.  Coefficient  Atom+Function         Bfn.  Coefficient  Atom+Function  
  ----- ------------  ---------------      ----- ------------  ---------------
    23      1.666318  3 C  s                 40     -1.221886  5 F  s          
     8     -0.958232  2 N  s                 32     -0.890568  3 C  dzz        
    45      0.666380  5 F  dxy               19     -0.542745  3 C  s          
    24     -0.499219  3 C  px                 1      0.410558  1 H  s          
    30      0.409472  3 C  dyy               36      0.377130  5 F  s          

 Vector   40  Occ=0.000000D+00  E= 2.098300D+00
              MO Center= -3.6D-02,  5.5D-01,  6.4D-02, r^2= 1.6D+00
   Bfn.  Coefficient  Atom+Function         Bfn.  Coefficient  Atom+Function  
  ----- ------------  ---------------      ----- ------------  ---------------
     8      1.577020  2 N  s                 13     -0.934250  2 N  dxy        
    29      0.874577  3 C  dxz               11      0.756262  2 N  pz         
     1     -0.622765  1 H  s                 23     -0.564073  3 C  s          
     4     -0.532231  2 N  s                 31     -0.487370  3 C  dyz        
    48      0.488999  5 F  dyz               17      0.479179  2 N  dzz        

 Vector   41  Occ=0.000000D+00  E= 2.194544D+00
              MO Center=  1.4D-01,  1.3D-01, -2.2D-02, r^2= 1.6D+00
   Bfn.  Coefficient  Atom+Function         Bfn.  Coefficient  Atom+Function  
  ----- ------------  ---------------      ----- ------------  ---------------
    28      1.061426  3 C  dxy                8     -0.798829  2 N  s          
    13      0.770534  2 N  dxy               29      0.644152  3 C  dxz        
    23      0.590170  3 C  s                 10      0.530979  2 N  py         
    17      0.418361  2 N  dzz               45      0.403521  5 F  dxy        
    48      0.397891  5 F  dyz               16     -0.387344  2 N  dyz        

 Vector   42  Occ=0.000000D+00  E= 2.324481D+00
              MO Center= -6.9D-02,  5.7D-01, -5.7D-02, r^2= 1.7D+00
   Bfn.  Coefficient  Atom+Function         Bfn.  Coefficient  Atom+Function  
  ----- ------------  ---------------      ----- ------------  ---------------
     8      1.255915  2 N  s                 16      1.086121  2 N  dyz        
    29     -0.826521  3 C  dxz                1     -0.785034  1 H  s          
    48     -0.735682  5 F  dyz               23     -0.638693  3 C  s          
    12     -0.570386  2 N  dxx               28      0.519062  3 C  dxy        
    24      0.513017  3 C  px                14     -0.470448  2 N  dxz        

 Vector   43  Occ=0.000000D+00  E= 2.479854D+00
              MO Center=  9.9D-02, -1.4D-01,  3.6D-03, r^2= 1.6D+00
   Bfn.  Coefficient  Atom+Function         Bfn.  Coefficient  Atom+Function  
  ----- ------------  ---------------      ----- ------------  ---------------
    31      1.573863  3 C  dyz               48      1.067339  5 F  dyz        
    16      0.746796  2 N  dyz               46      0.741716  5 F  dxz        
    14     -0.610257  2 N  dxz               43      0.359116  5 F  pz         
     1     -0.293289  1 H  s                 29      0.272166  3 C  dxz        
     8      0.251967  2 N  s                 23     -0.163811  3 C  s          

 Vector   44  Occ=0.000000D+00  E= 2.549483D+00
              MO Center= -7.1D-03,  5.7D-01, -4.2D-02, r^2= 1.6D+00
   Bfn.  Coefficient  Atom+Function         Bfn.  Coefficient  Atom+Function  
  ----- ------------  ---------------      ----- ------------  ---------------
     8      2.216454  2 N  s                 23     -1.818708  3 C  s          
    10     -1.347079  2 N  py                24      1.121668  3 C  px         
    15      0.926426  2 N  dyy               28      0.849696  3 C  dxy        
    25     -0.739579  3 C  py                40      0.698521  5 F  s          
    27     -0.654894  3 C  dxx               17     -0.526018  2 N  dzz        

 Vector   45  Occ=0.000000D+00  E= 2.733682D+00
              MO Center=  8.0D-02,  9.7D-02, -1.8D-02, r^2= 1.7D+00
   Bfn.  Coefficient  Atom+Function         Bfn.  Coefficient  Atom+Function  
  ----- ------------  ---------------      ----- ------------  ---------------
    13      1.245956  2 N  dxy               28     -1.153696  3 C  dxy        
     8     -1.063048  2 N  s                 23      0.971680  3 C  s          
    30      0.786892  3 C  dyy               27     -0.651059  3 C  dxx        
    47      0.621846  5 F  dyy               10      0.598579  2 N  py         
    25      0.589490  3 C  py                21      0.583825  3 C  py         

 Vector   46  Occ=0.000000D+00  E= 2.981862D+00
              MO Center= -1.9D-03, -6.9D-01, -4.3D-03, r^2= 1.2D+00
   Bfn.  Coefficient  Atom+Function         Bfn.  Coefficient  Atom+Function  
  ----- ------------  ---------------      ----- ------------  ---------------
    40      2.126215  5 F  s                 45      1.528222  5 F  dxy        
    23     -1.498362  3 C  s                 42      1.306816  5 F  py         
    36     -1.025415  5 F  s                 19     -1.005198  3 C  s          
    28     -0.970044  3 C  dxy               21      0.844158  3 C  py         
    47      0.791421  5 F  dyy               41      0.722554  5 F  px         

 Vector   47  Occ=0.000000D+00  E= 3.647262D+00
              MO Center= -2.3D-01,  1.2D+00, -9.0D-02, r^2= 1.0D+00
   Bfn.  Coefficient  Atom+Function         Bfn.  Coefficient  Atom+Function  
  ----- ------------  ---------------      ----- ------------  ---------------
     8      3.611281  2 N  s                 12     -1.541216  2 N  dxx        
    17     -1.506609  2 N  dzz               15     -1.466386  2 N  dyy        
    23     -1.144946  3 C  s                  4      1.056404  2 N  s          
    40      0.704492  5 F  s                  2     -0.619618  1 H  s          
    24      0.577309  3 C  px                10     -0.539541  2 N  py         

 Vector   48  Occ=0.000000D+00  E= 4.115041D+00
              MO Center=  7.5D-03, -7.5D-01,  6.0D-05, r^2= 1.6D+00
   Bfn.  Coefficient  Atom+Function         Bfn.  Coefficient  Atom+Function  
  ----- ------------  ---------------      ----- ------------  ---------------
    40      7.169491  5 F  s                 44     -2.274887  5 F  dxx        
    49     -2.233527  5 F  dzz               47     -2.132879  5 F  dyy        
    23     -2.040911  3 C  s                 19     -1.845407  3 C  s          
    36     -1.682663  5 F  s                 30      1.232960  3 C  dyy        
    32      1.158092  3 C  dzz               27      1.044606  3 C  dxx        

 Vector   49  Occ=0.000000D+00  E= 4.271666D+00
              MO Center=  3.0D-01, -2.1D-01,  2.7D-02, r^2= 1.6D+00
   Bfn.  Coefficient  Atom+Function         Bfn.  Coefficient  Atom+Function  
  ----- ------------  ---------------      ----- ------------  ---------------
    40      6.208247  5 F  s                 19      2.264623  3 C  s          
    30     -1.946450  3 C  dyy               49     -1.929861  5 F  dzz        
    44     -1.693434  5 F  dxx               36     -1.600461  5 F  s          
    27     -1.545171  3 C  dxx               42      1.223932  5 F  py         
    32     -1.196014  3 C  dzz               47     -1.201331  5 F  dyy        


   alpha - beta orbital overlaps 
   ----------------------------- 


   alpha      1      2      3      4      5      6      7      8      9     10
    beta      1      2      3      4      5      6      7      8      9     10
 overlap   1.000  1.000  1.000  1.000  0.999  0.997  0.993  0.991  0.987  0.965


   alpha     11     12     13     14     15     16     17     18     19     20
    beta     11     12     13     14     15     16     17     19     18     20
 overlap   0.959  0.985  0.994  0.986  0.982  0.984  0.996  0.751  0.973  0.764


   alpha     21     22     23     24     25     26     27     28     29     30
    beta     21     22     23     24     25     26     27     28     29     30
 overlap   0.941  0.983  0.916  0.845  0.903  0.993  0.772  0.770  0.997  0.962


   alpha     31     32     33     34     35     36     37     38     39     40
    beta     31     32     33     34     35     36     37     38     39     40
 overlap   0.966  0.994  0.883  0.881  0.990  0.993  0.994  0.993  0.987  0.989


   alpha     41     42     43     44     45     46     47     48     49
    beta     41     42     43     44     45     46     47     48     49
 overlap   0.998  0.994  0.999  0.997  0.999  1.000  1.000  0.991  0.991

     --------------------------
     Expectation value of S2:  
     --------------------------
      <S2> =      2.0039 (Exact =     2.0000)


 center of mass
 --------------
 x =  -0.05108870 y =  -0.11090912 z =  -0.02706111

 moments of inertia (a.u.)
 ------------------
         177.277805604554           0.000000000000           0.000000000000
           0.000000000000          25.609104683858           0.000000000000
           0.000000000000           0.000000000000         197.243046469324

     Multipole analysis of the density
     ---------------------------------

     L   x y z        total         alpha         beta         nuclear
     -   - - -        -----         -----         ----         -------
     0   0 0 0     -0.000000    -13.000000    -11.000000     24.000000

     1   1 0 0      0.248782      0.025644      0.223137     -0.000000
     1   0 1 0      0.263998     -0.997391      1.261390     -0.000000
     1   0 0 1      0.478091      0.209588      0.268503      0.000000

     2   2 0 0    -11.421701    -15.081103    -12.156420     15.815822
     2   1 1 0     -0.144569      1.159276      0.345094     -1.648939
     2   1 0 1     -0.752311     -0.052256      0.262493     -0.962548
     2   0 2 0    -12.857579    -55.418222    -47.303740     89.864384
     2   0 1 1      1.923347     -0.024085     -0.364641      2.312073
     2   0 0 2    -12.622185     -8.747212     -6.433937      2.558963


 Parallel integral file used      20 records with       0 large values


 Task  times  cpu:        7.5s     wall:        7.6s


                                NWChem Input Module
                                -------------------


 Summary of allocated global arrays
-----------------------------------
  No active global arrays



                         GA Statistics for process    0
                         ------------------------------

       create   destroy   get      put      acc     scatter   gather  read&inc
calls:  861      861     3.85e+04 2410     2.60e+04    0        0      726     
number of processes/call 1.13e+00 1.57e+00 1.06e+00 0.00e+00 0.00e+00
bytes total:             5.44e+07 7.43e+06 3.11e+07 0.00e+00 0.00e+00 5.81e+03
bytes remote:            1.27e+07 1.55e+06 5.99e+06 0.00e+00 0.00e+00 0.00e+00
Max memory consumed for GA by this process: 576544 bytes

MA_summarize_allocated_blocks: starting scan ...
MA_summarize_allocated_blocks: scan completed: 0 heap blocks, 0 stack blocks
MA usage statistics:

	allocation statistics:
					      heap	     stack
					      ----	     -----
	current number of blocks	         0	         0
	maximum number of blocks	        21	        53
	current total bytes		         0	         0
	maximum total bytes		  10276464	  22513432
	maximum total K-bytes		     10277	     22514
	maximum total M-bytes		        11	        23


                                     CITATION
                                     --------
                Please cite the following reference when publishing
                           results obtained with NWChem:

                 M. Valiev, E.J. Bylaska, N. Govind, K. Kowalski,
              T.P. Straatsma, H.J.J. van Dam, D. Wang, J. Nieplocha,
                        E. Apra, T.L. Windus, W.A. de Jong
                 "NWChem: a comprehensive and scalable open-source
                  solution for large scale molecular simulations"
                      Comput. Phys. Commun. 181, 1477 (2010)
                           doi:10.1016/j.cpc.2010.04.018

                                      AUTHORS
                                      -------
          E. Apra, E. J. Bylaska, W. A. de Jong, N. Govind, K. Kowalski,
       T. P. Straatsma, M. Valiev, H. J. J. van Dam, D. Wang, T. L. Windus,
        J. Hammond, J. Autschbach, K. Bhaskaran-Nair, J. Brabec, K. Lopata,
    S. A. Fischer, S. Krishnamoorthy, M. Jacquelin, W. Ma, M. Klemm, O. Villa,
      Y. Chen, V. Anisimov, F. Aquino, S. Hirata, M. T. Hackler, V. Konjkov,
            D. Mejia-Rodriguez, T. Risthaus, M. Malagoli, A. Marenich,
   A. Otero-de-la-Roza, J. Mullin, P. Nichols, R. Peverati, J. Pittner, Y. Zhao,
        P.-D. Fan, A. Fonari, M. J. Williamson, R. J. Harrison, J. R. Rehr,
      M. Dupuis, D. Silverstein, D. M. A. Smith, J. Nieplocha, V. Tipparaju,
    M. Krishnan, B. E. Van Kuiken, A. Vazquez-Mayagoitia, L. Jensen, M. Swart,
      Q. Wu, T. Van Voorhis, A. A. Auer, M. Nooijen, L. D. Crosby, E. Brown,
      G. Cisneros, G. I. Fann, H. Fruchtl, J. Garza, K. Hirao, R. A. Kendall,
      J. A. Nichols, K. Tsemekhman, K. Wolinski, J. Anchell, D. E. Bernholdt,
      P. Borowski, T. Clark, D. Clerc, H. Dachsel, M. J. O. Deegan, K. Dyall,
    D. Elwood, E. Glendening, M. Gutowski, A. C. Hess, J. Jaffe, B. G. Johnson,
     J. Ju, R. Kobayashi, R. Kutteh, Z. Lin, R. Littlefield, X. Long, B. Meng,
      T. Nakajima, S. Niu, L. Pollack, M. Rosing, K. Glaesemann, G. Sandrone,
      M. Stave, H. Taylor, G. Thomas, J. H. van Lenthe, A. T. Wong, Z. Zhang.

 Total times  cpu:       24.1s     wall:       24.2s
[0] ARMCI Warning: Freed 1 leaked allocations
