 argument  1 = /home/list1234/source/nwchem-6.8.1-release/QA/tests/scf_feco5/scf_feco5.nw



============================== echo of input deck ==============================
echo

start scf_feco5

# Sequential test of semi-direct SCF ... to run in parallel it is
# necessary to reduce the file sizes below by a factor of NPROC.

#fe(co)5  SCF total energy -1816.677508 ... should vary by 1 or 2 in last D.P.

# There is a total of 2 million integrals

geometry units au
  symmetry group d3h

  fe 0.0 0.0 0.0

  c 0.0 0.0 3.414358
  o 0.0 0.0 5.591323

  c 2.4417087 2.4417087 0.0
  o 3.9810552 3.9810552 0.0
end

basis noprint
  fe library 3-21g
  o  library 3-21g
  c  library 3-21g
end

title "case s2: fe(co)5  --- Default SCF ... usually disk resident"
task scf

title "case s3a: fe(co)5 --- Semi-direct SCF ... 75% caching"
scf; vectors atomic; semidirect memsize 0 filesize 300000; end
task scf

title "case s3b: fe(co)5 --- Semi-direct SCF ... 50% caching"
scf; vectors atomic; semidirect memsize 0 filesize 200000; end
task scf

#title "case s3c: fe(co)5 --- Semi-direct SCF ... 25% caching"
#scf; vectors atomic; semidirect memsize 0 filesize 100000; end
#task scf

title "case s4: fe(co)5 --- Fully-direct SCF"
scf; vectors atomic; direct; end
task scf





================================================================================


                                         
                                         


              Northwest Computational Chemistry Package (NWChem) 6.8
              ------------------------------------------------------


                    Environmental Molecular Sciences Laboratory
                       Pacific Northwest National Laboratory
                                Richland, WA 99352

                              Copyright (c) 1994-2018
                       Pacific Northwest National Laboratory
                            Battelle Memorial Institute

             NWChem is an open-source computational chemistry package
                        distributed under the terms of the
                      Educational Community License (ECL) 2.0
             A copy of the license is included with this distribution
                              in the LICENSE.TXT file

                                  ACKNOWLEDGMENT
                                  --------------

            This software and its documentation were developed at the
            EMSL at Pacific Northwest National Laboratory, a multiprogram
            national laboratory, operated for the U.S. Department of Energy
            by Battelle under Contract Number DE-AC05-76RL01830. Support
            for this work was provided by the Department of Energy Office
            of Biological and Environmental Research, Office of Basic
            Energy Sciences, and the Office of Advanced Scientific Computing.


           Job information
           ---------------

    hostname        = list1234-B360M-H
    program         = /home/list1234/source/nwchem-6.8.1-release/bin/LINUX64/nwchem
    date            = Sun Jun 30 12:37:44 2019

    compiled        = Sun_Jun_30_11:55:59_2019
    source          = /home/list1234/source/nwchem-6.8.1-release
    nwchem branch   = Development
    nwchem revision = N/A
    ga revision     = 5.6.5
    use scalapack   = T
    input           = /home/list1234/source/nwchem-6.8.1-release/QA/tests/scf_feco5/scf_feco5.nw
    prefix          = scf_feco5.
    data base       = ./scf_feco5.db
    status          = startup
    nproc           =        4
    time left       =     -1s



           Memory information
           ------------------

    heap     =   86247162 doubles =    658.0 Mbytes
    stack    =   86247167 doubles =    658.0 Mbytes
    global   =  172494336 doubles =   1316.0 Mbytes (distinct from heap & stack)
    total    =  344988665 doubles =   2632.1 Mbytes
    verify   = yes
    hardfail = no 


           Directory information
           ---------------------

  0 permanent = .
  0 scratch   = .




                                NWChem Input Module
                                -------------------


 Turning off AUTOSYM since
 SYMMETRY directive was detected!


          ------
          auto-z
          ------
  Looking for out-of-plane bends
  no constraints, skipping    0.0000000000000000     
  no constraints, skipping    0.0000000000000000     


                             Geometry "geometry" -> ""
                             -------------------------

 Output coordinates in a.u. (scale by  1.000000000 to convert to a.u.)

  No.       Tag          Charge          X              Y              Z
 ---- ---------------- ---------- -------------- -------------- --------------
    1 fe                  26.0000     0.00000000     0.00000000     0.00000000
    2 c                    6.0000    -0.00000000    -0.00000000     3.41435800
    3 c                    6.0000     0.00000000    -0.00000000    -3.41435800
    4 o                    8.0000    -0.00000000    -0.00000000     5.59132300
    5 o                    8.0000     0.00000000    -0.00000000    -5.59132300
    6 c                    6.0000     2.44170870     2.44170870     0.00000000
    7 c                    6.0000    -3.33543611     0.89372741     0.00000000
    8 c                    6.0000     0.89372741    -3.33543611     0.00000000
    9 o                    8.0000     3.98105520     3.98105520     0.00000000
   10 o                    8.0000    -5.43822254     1.45716734     0.00000000
   11 o                    8.0000     1.45716734    -5.43822254     0.00000000

      Atomic Mass 
      ----------- 

      fe                55.934900
      c                 12.000000
      o                 15.994910


 Effective nuclear repulsion energy (a.u.)     798.4956180942

            Nuclear Dipole moment (a.u.) 
            ----------------------------
        X                 Y               Z
 ---------------- ---------------- ----------------
    -0.0000000000    -0.0000000000     0.0000000000

      Symmetry information
      --------------------

 Group name             D3h       
 Group number             27
 Group order              12
 No. of unique centers     5

      Symmetry unique atoms

     1    2    4    6    9



                                Z-matrix (autoz)
                                -------- 

 Units are Angstrom for bonds and degrees for angles

      Type          Name      I     J     K     L     M      Value
      ----------- --------  ----- ----- ----- ----- ----- ----------
    1 Stretch                  1     2                       1.80680
    2 Stretch                  1     3                       1.80680
    3 Stretch                  1     6                       1.82730
    4 Stretch                  1     7                       1.82730
    5 Stretch                  1     8                       1.82730
    6 Stretch                  2     4                       1.15200
    7 Stretch                  3     5                       1.15200
    8 Stretch                  6     9                       1.15200
    9 Stretch                  7    10                       1.15200
   10 Stretch                  8    11                       1.15200
   11 Bend                     2     1     6                90.00000
   12 Bend                     2     1     7                90.00000
   13 Bend                     2     1     8                90.00000
   14 Bend                     3     1     6                90.00000
   15 Bend                     3     1     7                90.00000
   16 Bend                     3     1     8                90.00000
   17 Bend                     4     1     6                90.00000
   18 Bend                     4     1     7                90.00000
   19 Bend                     4     1     8                90.00000
   20 Bend                     5     1     6                90.00000
   21 Bend                     5     1     7                90.00000
   22 Bend                     5     1     8                90.00000
   23 Bend                     6     1     7               120.00000
   24 Bend                     6     1     8               120.00000
   25 Bend                     7     1     8               120.00000
   26 Bend                     9     1     2                90.00000
   27 Bend                     9     1     3                90.00000
   28 Bend                     9     1     7               120.00000
   29 Bend                     9     1     8               120.00000
   30 Bend                    10     1     2                90.00000
   31 Bend                    10     1     3                90.00000
   32 Bend                    10     1     6               120.00000
   33 Bend                    10     1     8               120.00000
   34 Bend                    11     1     2                90.00000
   35 Bend                    11     1     3                90.00000
   36 Bend                    11     1     6               120.00000
   37 Bend                    11     1     7               120.00000
   38 Torsion                  1     2     6     9         180.00000
   39 Torsion                  1     2     7    10         180.00000
   40 Torsion                  1     2     8    11        -180.00000
   41 Torsion                  1     3     6     9        -180.00000
   42 Torsion                  1     3     7    10        -180.00000
   43 Torsion                  1     3     8    11         180.00000
   44 Torsion                  1     6     2     4         180.00000
   45 Torsion                  1     6     3     5        -180.00000
   46 Torsion                  1     6     7    10         180.00000
   47 Torsion                  1     6     8    11         180.00000
   48 Torsion                  1     7     2     4        -180.00000
   49 Torsion                  1     7     3     5         180.00000
   50 Torsion                  1     7     6     9         180.00000
   51 Torsion                  1     7     8    11         180.00000
   52 Torsion                  1     8     2     4         180.00000
   53 Torsion                  1     8     3     5        -180.00000
   54 Torsion                  1     8     6     9         180.00000
   55 Torsion                  1     8     7    10         180.00000


            XYZ format geometry
            -------------------
    11
 geometry
 fe                    0.00000000     0.00000000     0.00000000
 c                    -0.00000000    -0.00000000     1.80680057
 c                     0.00000000    -0.00000000    -1.80680057
 o                    -0.00000000    -0.00000000     2.95880092
 o                     0.00000000    -0.00000000    -2.95880092
 c                     1.29209669     1.29209669     0.00000000
 c                    -1.76503691     0.47294021     0.00000000
 c                     0.47294021    -1.76503691     0.00000000
 o                     2.10668384     2.10668384     0.00000000
 o                    -2.87778364     0.77109980     0.00000000
 o                     0.77109980    -2.87778364     0.00000000

 ==============================================================================
                                internuclear distances
 ------------------------------------------------------------------------------
       center one      |      center two      | atomic units |       a.u.
 ------------------------------------------------------------------------------
    2 c                |   1 fe               |     3.41436  |     3.41436
    3 c                |   1 fe               |     3.41436  |     3.41436
    4 o                |   2 c                |     2.17697  |     2.17697
    5 o                |   3 c                |     2.17697  |     2.17697
    6 c                |   1 fe               |     3.45310  |     3.45310
    7 c                |   1 fe               |     3.45310  |     3.45310
    8 c                |   1 fe               |     3.45310  |     3.45310
    9 o                |   6 c                |     2.17696  |     2.17696
   10 o                |   7 c                |     2.17696  |     2.17696
   11 o                |   8 c                |     2.17696  |     2.17696
 ------------------------------------------------------------------------------
                         number of included internuclear distances:         10
 ==============================================================================



 ==============================================================================
                                 internuclear angles
 ------------------------------------------------------------------------------
        center 1       |       center 2       |       center 3       |  degrees
 ------------------------------------------------------------------------------
    2 c                |   1 fe               |   3 c                |   180.00
    2 c                |   1 fe               |   6 c                |    90.00
    2 c                |   1 fe               |   7 c                |    90.00
    2 c                |   1 fe               |   8 c                |    90.00
    3 c                |   1 fe               |   6 c                |    90.00
    3 c                |   1 fe               |   7 c                |    90.00
    3 c                |   1 fe               |   8 c                |    90.00
    6 c                |   1 fe               |   7 c                |   120.00
    6 c                |   1 fe               |   8 c                |   120.00
    7 c                |   1 fe               |   8 c                |   120.00
    1 fe               |   2 c                |   4 o                |   180.00
    1 fe               |   3 c                |   5 o                |   180.00
    1 fe               |   6 c                |   9 o                |   180.00
    1 fe               |   7 c                |  10 o                |   180.00
    1 fe               |   8 c                |  11 o                |   180.00
 ------------------------------------------------------------------------------
                            number of included internuclear angles:         15
 ==============================================================================



            case s2: fe(co)5  --- Default SCF ... usually disk resident
            -----------------------------------------------------------
                                 NWChem SCF Module
                                 -----------------


            case s2: fe(co)5  --- Default SCF ... usually disk resident



  ao basis        = "ao basis"
  functions       =   119
  atoms           =    11
  closed shells   =    48
  open shells     =     0
  charge          =   0.00
  wavefunction    = RHF 
  input vectors   = atomic
  output vectors  = ./scf_feco5.movecs
  use symmetry    = T
  symmetry adapt  = T


 Summary of "ao basis" -> "ao basis" (cartesian)
 ------------------------------------------------------------------------------
       Tag                 Description            Shells   Functions and Types
 ---------------- ------------------------------  ------  ---------------------
 fe                          3-21g                  11       29   5s4p2d
 o                           3-21g                   5        9   3s2p
 c                           3-21g                   5        9   3s2p


      Symmetry analysis of basis
      --------------------------

        a1'        29
        a1"         0
        a2'         4
        a2"        18
        e'         48
        e"         20


 Forming initial guess at       0.1s


      Superposition of Atomic Density Guess
      -------------------------------------

 Sum of atomic energies:       -1815.24436401

      Non-variational initial energy
      ------------------------------

 Total energy =   -1818.607107
 1-e energy   =   -4094.538473
 2-e energy   =    1477.435748
 HOMO         =      -0.233831
 LUMO         =      -0.015290


      Symmetry analysis of molecular orbitals - initial
      -------------------------------------------------

  Numbering of irreducible representations: 

     1 a1'         2 a1"         3 a2'         4 a2"         5 e'      
     6 e"      

  Orbital symmetries:

     1 a1'         2 a1'         3 a2"         4 e'          5 e'      
     6 a1'         7 a1'         8 a2"         9 e'         10 e'      
    11 a1'        12 a2"        13 a1'        14 e'         15 e'      
    16 a1'        17 a2"        18 e'         19 e'         20 a1'     
    21 a2"        22 e'         23 e'         24 a1'        25 a1'     
    26 a2"        27 e'         28 e'         29 a1'        30 a1'     
    31 e"         32 e"         33 a2"        34 e'         35 e'      
    36 e'         37 e'         38 a2'        39 e"         40 e"      
    41 a1'        42 e'         43 e'         44 a2"        45 e"      
    46 e"         47 e'         48 e'         49 a1'        50 e"      
    51 e"         52 e'         53 e'         54 a2"        55 a2'     
    56 e'         57 e'         58 a1'     


 Starting SCF solution at       0.2s



 ----------------------------------------------
         Quadratically convergent ROHF

 Convergence threshold     :          1.000E-04
 Maximum no. of iterations :           30
 Final Fock-matrix accuracy:          1.000E-07
 ----------------------------------------------


 Integral file          = ./scf_feco5.aoints.0
 Record size in doubles =  65536        No. of integs per rec  =  43688
 Max. records in memory =     23        Max. records in file   = 161723
 No. of bits per label  =      8        No. of bits per value  =     64


 #quartets = 1.935D+05 #integrals = 1.938D+06 #direct =  0.0% #cached =100.0%


File balance: exchanges=     0  moved=     0  time=   0.0


              iter       energy          gnorm     gmax       time
             ----- ------------------- --------- --------- --------
                 1    -1816.3884267963  1.87D+00  5.01D-01      0.4
                 2    -1816.6015403620  7.93D-01  2.38D-01      0.4
                 3    -1816.6471675200  5.87D-01  2.10D-01      0.4
                 4    -1816.6610428373  3.06D-01  9.19D-02      0.5
                 5    -1816.6770947064  7.76D-02  3.82D-02      0.6
                 6    -1816.6775042575  4.06D-03  1.54D-03      0.7
                 7    -1816.6775076846  2.04D-05  7.56D-06      0.9


       Final RHF  results 
       ------------------ 

         Total SCF energy =  -1816.677507684621
      One-electron energy =  -4092.290739092324
      Two-electron energy =   1477.117613313512
 Nuclear repulsion energy =    798.495618094190

        Time for solution =      0.7s



       Symmetry analysis of molecular orbitals - final
       -----------------------------------------------

  Numbering of irreducible representations: 

     1 a1'         2 a1"         3 a2'         4 a2"         5 e'      
     6 e"      

  Orbital symmetries:

     1 a1'         2 a1'         3 a2"         4 e'          5 e'      
     6 a1'         7 a2"         8 a1'         9 e'         10 e'      
    11 a2"        12 a1'        13 a1'        14 e'         15 e'      
    16 a1'        17 a2"        18 e'         19 e'         20 a1'     
    21 a2"        22 a1'        23 e'         24 e'         25 a1'     
    26 a2"        27 e'         28 e'         29 a1'        30 a1'     
    31 e"         32 e"         33 a2"        34 e'         35 e'      
    36 e'         37 e'         38 a2'        39 e"         40 e"      
    41 e'         42 e'         43 a1'        44 a2"        45 e"      
    46 e"         47 e'         48 e'         49 e"         50 e"      
    51 a1'        52 a2"        53 e'         54 e'         55 a2'     
    56 e'         57 e'         58 a2"     

             Final eigenvalues
             -----------------

              1      
    1 -259.8147
    2  -31.8753
    3  -27.3166
    4  -27.3115
    5  -27.3115
    6  -20.6092
    7  -20.6087
    8  -20.5806
    9  -20.5801
   10  -20.5801
   11  -11.3717
   12  -11.3710
   13  -11.3538
   14  -11.3529
   15  -11.3529
   16   -4.1718
   17   -2.7392
   18   -2.7276
   19   -2.7276
   20   -1.5608
   21   -1.5603
   22   -1.5360
   23   -1.5350
   24   -1.5350
   25   -0.8706
   26   -0.8228
   27   -0.8008
   28   -0.8008
   29   -0.7991
   30   -0.7302
   31   -0.6834
   32   -0.6834
   33   -0.6770
   34   -0.6765
   35   -0.6765
   36   -0.6546
   37   -0.6546
   38   -0.6418
   39   -0.6322
   40   -0.6322
   41   -0.6288
   42   -0.6288
   43   -0.6193
   44   -0.6050
   45   -0.4815
   46   -0.4815
   47   -0.3311
   48   -0.3311
   49    0.0763
   50    0.0763
   51    0.0986
   52    0.1049
   53    0.1093
   54    0.1093
   55    0.1213
   56    0.1242
   57    0.1242
   58    0.1382

                       ROHF Final Molecular Orbital Analysis
                       -------------------------------------

 Vector   25  Occ=2.000000D+00  E=-8.706148D-01  Symmetry=a1'
              MO Center=  3.5D-17, -1.0D-16, -2.1D-16, r^2= 5.1D+00
   Bfn.  Coefficient  Atom+Function         Bfn.  Coefficient  Atom+Function  
  ----- ------------  ---------------      ----- ------------  ---------------
    35      0.302347   2 C  s                44      0.302347   3 C  s         
     6     -0.211002   1 Fe s                53     -0.208837   4 O  s         
    62     -0.208837   5 O  s                71      0.206865   6 C  s         
    80      0.206865   7 C  s                89      0.206865   8 C  s         

 Vector   26  Occ=2.000000D+00  E=-8.227910D-01  Symmetry=a2"
              MO Center= -8.4D-19,  1.6D-20,  1.1D-16, r^2= 8.4D+00
   Bfn.  Coefficient  Atom+Function         Bfn.  Coefficient  Atom+Function  
  ----- ------------  ---------------      ----- ------------  ---------------
    35      0.357608   2 C  s                44     -0.357608   3 C  s         
    53     -0.332295   4 O  s                62      0.332295   5 O  s         
    52     -0.244330   4 O  pz               61     -0.244330   5 O  pz        
    56     -0.216737   4 O  pz               65     -0.216737   5 O  pz        

 Vector   27  Occ=2.000000D+00  E=-8.007896D-01  Symmetry=e'
              MO Center= -1.3D+00,  1.0D-01,  4.6D-18, r^2= 6.6D+00
   Bfn.  Coefficient  Atom+Function         Bfn.  Coefficient  Atom+Function  
  ----- ------------  ---------------      ----- ------------  ---------------
    80      0.372535   7 C  s               107     -0.370563  10 O  s         
   104      0.265569  10 O  px              108      0.242520  10 O  px        
    89     -0.216252   8 C  s               116      0.215107  11 O  s         
    76      0.164496   7 C  s                71     -0.156283   6 C  s         
    98      0.155456   9 O  s               114     -0.154310  11 O  py        

 Vector   28  Occ=2.000000D+00  E=-8.007896D-01  Symmetry=e'
              MO Center=  1.3D+00, -1.0D-01, -7.3D-19, r^2= 6.6D+00
   Bfn.  Coefficient  Atom+Function         Bfn.  Coefficient  Atom+Function  
  ----- ------------  ---------------      ----- ------------  ---------------
    71      0.339936   6 C  s                98     -0.338137   9 O  s         
    89     -0.305313   8 C  s               116      0.303697  11 O  s         
   114     -0.217519  11 O  py              118     -0.199356  11 O  py        
    95     -0.177611   9 O  px               96     -0.177161   9 O  py        
   100     -0.163101   9 O  py               99     -0.161015   9 O  px        

 Vector   29  Occ=2.000000D+00  E=-7.991258D-01  Symmetry=a1'
              MO Center=  1.2D-16,  5.3D-17, -1.9D-16, r^2= 9.0D+00
   Bfn.  Coefficient  Atom+Function         Bfn.  Coefficient  Atom+Function  
  ----- ------------  ---------------      ----- ------------  ---------------
    53      0.210119   4 O  s                62      0.210119   5 O  s         
    52      0.195828   4 O  pz               61     -0.195828   5 O  pz        
    71      0.195231   6 C  s                80      0.195231   7 C  s         
    89      0.195231   8 C  s                56      0.184963   4 O  pz        
    65     -0.184963   5 O  pz               98     -0.178899   9 O  s         

 Vector   30  Occ=2.000000D+00  E=-7.302356D-01  Symmetry=a1'
              MO Center=  8.6D-17,  1.0D-16, -1.9D-16, r^2= 7.7D+00
   Bfn.  Coefficient  Atom+Function         Bfn.  Coefficient  Atom+Function  
  ----- ------------  ---------------      ----- ------------  ---------------
    34      0.202702   2 C  pz               43     -0.202702   3 C  pz        
    52     -0.195104   4 O  pz               61      0.195104   5 O  pz        
    56     -0.179477   4 O  pz               65      0.179477   5 O  pz        
   104      0.164057  10 O  px              114      0.164057  11 O  py        
     6      0.152768   1 Fe s               108      0.152329  10 O  px        

 Vector   31  Occ=2.000000D+00  E=-6.833726D-01  Symmetry=e"
              MO Center=  1.7D-01, -1.8D-01, -2.7D-17, r^2= 6.7D+00
   Bfn.  Coefficient  Atom+Function         Bfn.  Coefficient  Atom+Function  
  ----- ------------  ---------------      ----- ------------  ---------------
    28      0.266668   1 Fe dyz              22      0.260631   1 Fe dyz       
    55      0.253838   4 O  py               64     -0.253838   5 O  py        
    51      0.248383   4 O  py               60     -0.248383   5 O  py        
    33      0.170138   2 C  py               42     -0.170138   3 C  py        
    37      0.162884   2 C  py               46     -0.162884   3 C  py        

 Vector   32  Occ=2.000000D+00  E=-6.833726D-01  Symmetry=e"
              MO Center= -1.7D-01,  1.8D-01, -6.7D-18, r^2= 6.7D+00
   Bfn.  Coefficient  Atom+Function         Bfn.  Coefficient  Atom+Function  
  ----- ------------  ---------------      ----- ------------  ---------------
    26      0.266668   1 Fe dxz              20      0.260631   1 Fe dxz       
    54      0.253838   4 O  px               63     -0.253838   5 O  px        
    50      0.248383   4 O  px               59     -0.248383   5 O  px        
    32      0.170138   2 C  px               41     -0.170138   3 C  px        
    36      0.162884   2 C  px               45     -0.162884   3 C  px        

 Vector   33  Occ=2.000000D+00  E=-6.769748D-01  Symmetry=a2"
              MO Center= -7.1D-17, -5.7D-17,  1.7D-16, r^2= 5.8D+00
   Bfn.  Coefficient  Atom+Function         Bfn.  Coefficient  Atom+Function  
  ----- ------------  ---------------      ----- ------------  ---------------
    35      0.332188   2 C  s                44     -0.332188   3 C  s         
    34     -0.228306   2 C  pz               43     -0.228306   3 C  pz        
    52      0.174131   4 O  pz               61      0.174131   5 O  pz        
     9     -0.169746   1 Fe pz               38     -0.160559   2 C  pz        
    47     -0.160559   3 C  pz               56      0.158358   4 O  pz        

 Vector   34  Occ=2.000000D+00  E=-6.764663D-01  Symmetry=e'
              MO Center= -2.7D-01,  6.2D-02, -3.1D-18, r^2= 6.9D+00
   Bfn.  Coefficient  Atom+Function         Bfn.  Coefficient  Atom+Function  
  ----- ------------  ---------------      ----- ------------  ---------------
    54      0.245320   4 O  px               63      0.245320   5 O  px        
    50      0.236239   4 O  px               59      0.236239   5 O  px        
    80     -0.225095   7 C  s                77     -0.176951   7 C  px        
    32      0.153134   2 C  px               41      0.153134   3 C  px        

 Vector   35  Occ=2.000000D+00  E=-6.764663D-01  Symmetry=e'
              MO Center=  2.7D-01, -6.2D-02,  1.4D-16, r^2= 6.9D+00
   Bfn.  Coefficient  Atom+Function         Bfn.  Coefficient  Atom+Function  
  ----- ------------  ---------------      ----- ------------  ---------------
    55      0.245320   4 O  py               64      0.245320   5 O  py        
    51      0.236239   4 O  py               60      0.236239   5 O  py        
    71      0.197014   6 C  s                89     -0.192862   8 C  s         
    33      0.153134   2 C  py               42      0.153134   3 C  py        

 Vector   36  Occ=2.000000D+00  E=-6.546476D-01  Symmetry=e'
              MO Center=  1.0D+00, -1.8D-01, -2.1D-19, r^2= 6.2D+00
   Bfn.  Coefficient  Atom+Function         Bfn.  Coefficient  Atom+Function  
  ----- ------------  ---------------      ----- ------------  ---------------
   117      0.267300  11 O  px              113      0.258348  11 O  px        
   100     -0.234330   9 O  py               96     -0.227875   9 O  py        
    99      0.190082   9 O  px               86      0.182734   8 C  px        
    95      0.183004   9 O  px               68      0.163532   6 C  px        
    90      0.164318   8 C  px        

 Vector   37  Occ=2.000000D+00  E=-6.546476D-01  Symmetry=e'
              MO Center= -1.0D+00,  1.8D-01,  2.1D-18, r^2= 6.2D+00
   Bfn.  Coefficient  Atom+Function         Bfn.  Coefficient  Atom+Function  
  ----- ------------  ---------------      ----- ------------  ---------------
   109      0.327775  10 O  py              105      0.317356  10 O  py        
    78      0.197772   7 C  py              117      0.189749  11 O  px        
    82      0.184367   7 C  py              113      0.184376  11 O  px        
    25     -0.178872   1 Fe dxy              19     -0.158914   1 Fe dxy       
    99     -0.153488   9 O  px               95     -0.150533   9 O  px        

 Vector   38  Occ=2.000000D+00  E=-6.417544D-01  Symmetry=a2'
              MO Center= -3.9D-16, -6.9D-16,  6.1D-36, r^2= 8.1D+00
   Bfn.  Coefficient  Atom+Function         Bfn.  Coefficient  Atom+Function  
  ----- ------------  ---------------      ----- ------------  ---------------
   109      0.267422  10 O  py              117     -0.267422  11 O  px        
   105      0.250407  10 O  py              113     -0.250407  11 O  px        
    99      0.195767   9 O  px              100     -0.195767   9 O  py        
    95      0.183310   9 O  px               96     -0.183310   9 O  py        

 Vector   39  Occ=2.000000D+00  E=-6.322426D-01  Symmetry=e"
              MO Center=  7.0D-01, -7.2D-01, -3.3D-17, r^2= 7.0D+00
   Bfn.  Coefficient  Atom+Function         Bfn.  Coefficient  Atom+Function  
  ----- ------------  ---------------      ----- ------------  ---------------
   119      0.316312  11 O  pz              115      0.297669  11 O  pz        
   101     -0.230110   9 O  pz               97     -0.216548   9 O  pz        
    88      0.182650   8 C  pz               55      0.176279   4 O  py        
    64     -0.176279   5 O  py               92      0.176952   8 C  pz        
    51      0.162736   4 O  py               60     -0.162736   5 O  py        

 Vector   40  Occ=2.000000D+00  E=-6.322426D-01  Symmetry=e"
              MO Center= -7.0D-01,  7.2D-01, -6.4D-18, r^2= 7.0D+00
   Bfn.  Coefficient  Atom+Function         Bfn.  Coefficient  Atom+Function  
  ----- ------------  ---------------      ----- ------------  ---------------
   110      0.315477  10 O  pz              106      0.296884  10 O  pz        
   101     -0.232391   9 O  pz               97     -0.218695   9 O  pz        
    79      0.182168   7 C  pz               54      0.176279   4 O  px        
    63     -0.176279   5 O  px               83      0.176485   7 C  pz        
    50      0.162736   4 O  px               59     -0.162736   5 O  px        

 Vector   41  Occ=2.000000D+00  E=-6.288249D-01  Symmetry=e'
              MO Center= -3.1D-01,  3.5D-02,  3.0D-17, r^2= 5.7D+00
   Bfn.  Coefficient  Atom+Function         Bfn.  Coefficient  Atom+Function  
  ----- ------------  ---------------      ----- ------------  ---------------
    80      0.407392   7 C  s                77      0.247999   7 C  px        
    89     -0.230008   8 C  s                54      0.195160   4 O  px        
    63      0.195160   5 O  px               81      0.183659   7 C  px        
    50      0.177445   4 O  px               59      0.177445   5 O  px        
    71     -0.177384   6 C  s               104     -0.157577  10 O  px        

 Vector   42  Occ=2.000000D+00  E=-6.288249D-01  Symmetry=e'
              MO Center=  3.1D-01, -3.5D-02, -6.4D-17, r^2= 5.7D+00
   Bfn.  Coefficient  Atom+Function         Bfn.  Coefficient  Atom+Function  
  ----- ------------  ---------------      ----- ------------  ---------------
    71      0.368003   6 C  s                89     -0.337621   8 C  s         
    25      0.202045   1 Fe dxy              87     -0.196367   8 C  py        
    55     -0.195160   4 O  py               64     -0.195160   5 O  py        
    19      0.180362   1 Fe dxy              68     -0.180668   6 C  px        
    51     -0.177445   4 O  py               60     -0.177445   5 O  py        

 Vector   43  Occ=2.000000D+00  E=-6.193138D-01  Symmetry=a1'
              MO Center= -1.4D-16, -1.7D-16,  9.0D-17, r^2= 3.5D+00
   Bfn.  Coefficient  Atom+Function         Bfn.  Coefficient  Atom+Function  
  ----- ------------  ---------------      ----- ------------  ---------------
    35      0.347211   2 C  s                44      0.347211   3 C  s         
    71     -0.268284   6 C  s                80     -0.268284   7 C  s         
    89     -0.268284   8 C  s                34     -0.198417   2 C  pz        
    43      0.198417   3 C  pz               29      0.195139   1 Fe dzz       
    77     -0.177195   7 C  px               87     -0.177195   8 C  py        

 Vector   44  Occ=2.000000D+00  E=-6.050385D-01  Symmetry=a2"
              MO Center= -2.8D-16, -2.7D-16, -2.5D-16, r^2= 6.7D+00
   Bfn.  Coefficient  Atom+Function         Bfn.  Coefficient  Atom+Function  
  ----- ------------  ---------------      ----- ------------  ---------------
    35      0.284854   2 C  s                44     -0.284854   3 C  s         
   101     -0.227715   9 O  pz              110     -0.227715  10 O  pz        
   119     -0.227715  11 O  pz               97     -0.210987   9 O  pz        
   106     -0.210987  10 O  pz              115     -0.210987  11 O  pz        
    34     -0.185392   2 C  pz               43     -0.185392   3 C  pz        

 Vector   45  Occ=2.000000D+00  E=-4.815081D-01  Symmetry=e"
              MO Center=  9.3D-02, -9.9D-02, -1.2D-17, r^2= 2.1D+00
   Bfn.  Coefficient  Atom+Function         Bfn.  Coefficient  Atom+Function  
  ----- ------------  ---------------      ----- ------------  ---------------
    28      0.917335   1 Fe dyz              22      0.894656   1 Fe dyz       
    55     -0.171564   4 O  py               64      0.171564   5 O  py        
   119      0.169289  11 O  pz        

 Vector   46  Occ=2.000000D+00  E=-4.815081D-01  Symmetry=e"
              MO Center= -9.3D-02,  9.9D-02,  2.9D-17, r^2= 2.1D+00
   Bfn.  Coefficient  Atom+Function         Bfn.  Coefficient  Atom+Function  
  ----- ------------  ---------------      ----- ------------  ---------------
    26      0.917335   1 Fe dxz              20      0.894656   1 Fe dxz       
    54     -0.171564   4 O  px               63      0.171564   5 O  px        
   110      0.167840  10 O  pz        

 Vector   47  Occ=2.000000D+00  E=-3.311261D-01  Symmetry=e'
              MO Center=  4.3D-01,  4.9D-02, -1.2D-17, r^2= 2.8D+00
   Bfn.  Coefficient  Atom+Function         Bfn.  Coefficient  Atom+Function  
  ----- ------------  ---------------      ----- ------------  ---------------
    11      0.740207   1 Fe px               12     -0.357628   1 Fe py        
    24      0.331907   1 Fe dxx              27     -0.331907   1 Fe dyy       
    18      0.312550   1 Fe dxx              21     -0.312550   1 Fe dyy       
    25     -0.231329   1 Fe dxy              19     -0.217838   1 Fe dxy       
    80      0.208020   7 C  s               100      0.163446   9 O  py        

 Vector   48  Occ=2.000000D+00  E=-3.311261D-01  Symmetry=e'
              MO Center= -4.3D-01, -4.9D-02,  2.4D-17, r^2= 2.8D+00
   Bfn.  Coefficient  Atom+Function         Bfn.  Coefficient  Atom+Function  
  ----- ------------  ---------------      ----- ------------  ---------------
    12      0.740207   1 Fe py               25     -0.663813   1 Fe dxy       
    19     -0.625100   1 Fe dxy              11      0.357628   1 Fe px        
   109     -0.215666  10 O  py               71     -0.199968   6 C  s         
    89      0.160333   8 C  s               105     -0.156316  10 O  py        
   117     -0.153048  11 O  px        

 Vector   49  Occ=0.000000D+00  E= 7.628335D-02  Symmetry=e"
              MO Center= -6.0D-02,  3.9D-01,  1.9D-16, r^2= 4.8D+00
   Bfn.  Coefficient  Atom+Function         Bfn.  Coefficient  Atom+Function  
  ----- ------------  ---------------      ----- ------------  ---------------
    20      0.422360   1 Fe dxz              26      0.402943   1 Fe dxz       
    36     -0.311649   2 C  px               45      0.311649   3 C  px        
    74     -0.281776   6 C  pz               83      0.264239   7 C  pz        
    54      0.238978   4 O  px               63     -0.238978   5 O  px        
   101      0.230718   9 O  pz              110     -0.216359  10 O  pz        

 Vector   50  Occ=0.000000D+00  E= 7.628335D-02  Symmetry=e"
              MO Center=  6.0D-02, -3.9D-01,  4.4D-17, r^2= 4.8D+00
   Bfn.  Coefficient  Atom+Function         Bfn.  Coefficient  Atom+Function  
  ----- ------------  ---------------      ----- ------------  ---------------
    22      0.422360   1 Fe dyz              28      0.402943   1 Fe dyz       
    92      0.315242   8 C  pz               37     -0.311649   2 C  py        
    46      0.311649   3 C  py              119     -0.258120  11 O  pz        
    55      0.238978   4 O  py               64     -0.238978   5 O  py        
    33     -0.182357   2 C  py               42      0.182357   3 C  py        

 Vector   51  Occ=0.000000D+00  E= 9.863511D-02  Symmetry=a1'
              MO Center=  1.5D-16,  1.4D-16, -2.9D-17, r^2= 1.1D+01
   Bfn.  Coefficient  Atom+Function         Bfn.  Coefficient  Atom+Function  
  ----- ------------  ---------------      ----- ------------  ---------------
    14      2.202280   1 Fe s                10     -1.364425   1 Fe s         
    71     -0.224506   6 C  s                80     -0.224506   7 C  s         
    89     -0.224506   8 C  s                35     -0.170321   2 C  s         
    44     -0.170321   3 C  s         

 Vector   52  Occ=0.000000D+00  E= 1.049466D-01  Symmetry=a2"
              MO Center=  1.0D-17,  5.9D-17, -3.4D-16, r^2= 1.1D+01
   Bfn.  Coefficient  Atom+Function         Bfn.  Coefficient  Atom+Function  
  ----- ------------  ---------------      ----- ------------  ---------------
    17      1.309584   1 Fe pz               13     -0.400108   1 Fe pz        
    35     -0.341399   2 C  s                44      0.341399   3 C  s         
   101     -0.179072   9 O  pz              110     -0.179072  10 O  pz        
   119     -0.179072  11 O  pz        

 Vector   53  Occ=0.000000D+00  E= 1.093125D-01  Symmetry=e'
              MO Center= -1.8D-01,  1.1D-01, -1.3D-17, r^2= 1.1D+01
   Bfn.  Coefficient  Atom+Function         Bfn.  Coefficient  Atom+Function  
  ----- ------------  ---------------      ----- ------------  ---------------
    16      1.318500   1 Fe py               12     -0.694927   1 Fe py        
    89      0.298476   8 C  s                71     -0.250770   6 C  s         
    19      0.222946   1 Fe dxy              25      0.214692   1 Fe dxy       
    55     -0.198818   4 O  py               64     -0.198818   5 O  py        
    37      0.190402   2 C  py               46      0.190402   3 C  py        

 Vector   54  Occ=0.000000D+00  E= 1.093125D-01  Symmetry=e'
              MO Center=  1.8D-01, -1.1D-01,  2.1D-17, r^2= 1.1D+01
   Bfn.  Coefficient  Atom+Function         Bfn.  Coefficient  Atom+Function  
  ----- ------------  ---------------      ----- ------------  ---------------
    15      1.318500   1 Fe px               11     -0.694927   1 Fe px        
    80      0.317107   7 C  s                71     -0.199868   6 C  s         
    54     -0.198818   4 O  px               63     -0.198818   5 O  px        
    36      0.190402   2 C  px               45      0.190402   3 C  px        
    19      0.177692   1 Fe dxy              25      0.171113   1 Fe dxy       

 Vector   55  Occ=0.000000D+00  E= 1.213409D-01  Symmetry=a2'
              MO Center= -1.8D-16, -1.8D-16, -2.7D-34, r^2= 5.6D+00
   Bfn.  Coefficient  Atom+Function         Bfn.  Coefficient  Atom+Function  
  ----- ------------  ---------------      ----- ------------  ---------------
    82      0.403846   7 C  py               90     -0.403846   8 C  px        
    72      0.295635   6 C  px               73     -0.295635   6 C  py        
   109     -0.285720  10 O  py              117      0.285720  11 O  px        
    78      0.260069   7 C  py               86     -0.260069   8 C  px        
    99     -0.209162   9 O  px              100      0.209162   9 O  py        

 Vector   56  Occ=0.000000D+00  E= 1.241828D-01  Symmetry=e'
              MO Center= -1.9D-01, -2.1D-02, -1.3D-16, r^2= 7.4D+00
   Bfn.  Coefficient  Atom+Function         Bfn.  Coefficient  Atom+Function  
  ----- ------------  ---------------      ----- ------------  ---------------
    16      0.724043   1 Fe py               37     -0.417941   2 C  py        
    46     -0.417941   3 C  py               12     -0.379475   1 Fe py        
    15      0.348798   1 Fe px               33     -0.259885   2 C  py        
    42     -0.259885   3 C  py               55      0.260915   4 O  py        
    64      0.260915   5 O  py               36     -0.201337   2 C  px        

 Vector   57  Occ=0.000000D+00  E= 1.241828D-01  Symmetry=e'
              MO Center=  1.9D-01,  2.1D-02, -5.3D-17, r^2= 7.4D+00
   Bfn.  Coefficient  Atom+Function         Bfn.  Coefficient  Atom+Function  
  ----- ------------  ---------------      ----- ------------  ---------------
    15      0.724043   1 Fe px               36     -0.417941   2 C  px        
    45     -0.417941   3 C  px               11     -0.379475   1 Fe px        
    16     -0.348798   1 Fe py               32     -0.259885   2 C  px        
    41     -0.259885   3 C  px               54      0.260915   4 O  px        
    63      0.260915   5 O  px               37      0.201337   2 C  py        

 Vector   58  Occ=0.000000D+00  E= 1.381889D-01  Symmetry=a2"
              MO Center= -2.6D-16, -1.0D-16,  2.6D-16, r^2= 8.7D+00
   Bfn.  Coefficient  Atom+Function         Bfn.  Coefficient  Atom+Function  
  ----- ------------  ---------------      ----- ------------  ---------------
    13      1.419024   1 Fe pz               17     -1.157077   1 Fe pz        
    35     -0.491321   2 C  s                44      0.491321   3 C  s         
    38      0.388577   2 C  pz               47      0.388577   3 C  pz        
    74      0.272236   6 C  pz               83      0.272236   7 C  pz        
    92      0.272236   8 C  pz               70      0.231566   6 C  pz        

 Vector   59  Occ=0.000000D+00  E= 1.555099D-01  Symmetry=e'
              MO Center=  7.4D-03,  3.9D-01,  5.8D-19, r^2= 4.7D+00
   Bfn.  Coefficient  Atom+Function         Bfn.  Coefficient  Atom+Function  
  ----- ------------  ---------------      ----- ------------  ---------------
    16      0.455453   1 Fe py               82     -0.333950   7 C  py        
    72      0.300385   6 C  px               89     -0.292445   8 C  s         
    73     -0.283887   6 C  py               12     -0.279876   1 Fe py        
    24     -0.279542   1 Fe dxx              27      0.279542   1 Fe dyy       
    18     -0.265823   1 Fe dxx              21      0.265823   1 Fe dyy       

 Vector   60  Occ=0.000000D+00  E= 1.555099D-01  Symmetry=e'
              MO Center= -7.4D-03, -3.9D-01, -8.1D-19, r^2= 4.7D+00
   Bfn.  Coefficient  Atom+Function         Bfn.  Coefficient  Atom+Function  
  ----- ------------  ---------------      ----- ------------  ---------------
    25      0.559083   1 Fe dxy              19      0.531647   1 Fe dxy       
    15     -0.455453   1 Fe px               90      0.427206   8 C  px        
    11      0.279876   1 Fe px               86      0.280421   8 C  px        
    71     -0.273904   6 C  s               117     -0.274127  11 O  px        
    82      0.271481   7 C  py               80      0.232625   7 C  s         

 Vector   61  Occ=0.000000D+00  E= 2.046553D-01  Symmetry=e"
              MO Center=  5.2D-01, -2.8D-01, -4.5D-17, r^2= 5.2D+00
   Bfn.  Coefficient  Atom+Function         Bfn.  Coefficient  Atom+Function  
  ----- ------------  ---------------      ----- ------------  ---------------
    92      0.449461   8 C  pz               74     -0.390943   6 C  pz        
    37      0.365938   2 C  py               46     -0.365938   3 C  py        
   119     -0.304794  11 O  pz               88      0.299567   8 C  pz        
   101      0.265112   9 O  pz               70     -0.260565   6 C  pz        
    33      0.257994   2 C  py               42     -0.257994   3 C  py        

 Vector   62  Occ=0.000000D+00  E= 2.046553D-01  Symmetry=e"
              MO Center= -5.2D-01,  2.8D-01,  1.2D-16, r^2= 5.2D+00
   Bfn.  Coefficient  Atom+Function         Bfn.  Coefficient  Atom+Function  
  ----- ------------  ---------------      ----- ------------  ---------------
    83      0.485207   7 C  pz               36      0.365938   2 C  px        
    45     -0.365938   3 C  px              110     -0.329036  10 O  pz        
    79      0.323392   7 C  pz               74     -0.293281   6 C  pz        
    32      0.257994   2 C  px               41     -0.257994   3 C  px        
    54     -0.238390   4 O  px               63      0.238390   5 O  px        

 Vector   63  Occ=0.000000D+00  E= 2.805607D-01  Symmetry=a1'
              MO Center=  1.7D-16,  1.8D-16, -7.1D-17, r^2= 2.4D+00
   Bfn.  Coefficient  Atom+Function         Bfn.  Coefficient  Atom+Function  
  ----- ------------  ---------------      ----- ------------  ---------------
    29      0.523678   1 Fe dzz              35     -0.509030   2 C  s         
    44     -0.509030   3 C  s                53      0.493866   4 O  s         
    62      0.493866   5 O  s                23      0.472782   1 Fe dzz       
    10     -0.427693   1 Fe s                38     -0.426300   2 C  pz        
    47      0.426300   3 C  pz               71      0.357230   6 C  s         

 Vector   64  Occ=0.000000D+00  E= 4.961049D-01  Symmetry=a2"
              MO Center= -1.6D-16, -4.4D-16,  9.9D-14, r^2= 8.5D+00
   Bfn.  Coefficient  Atom+Function         Bfn.  Coefficient  Atom+Function  
  ----- ------------  ---------------      ----- ------------  ---------------
    13      4.252690   1 Fe pz               38      1.887975   2 C  pz        
    47      1.887975   3 C  pz               17     -1.310401   1 Fe pz        
    53     -1.054872   4 O  s                62      1.054872   5 O  s         
    35     -0.974400   2 C  s                44      0.974400   3 C  s         
    74     -0.408066   6 C  pz               83     -0.408066   7 C  pz        

 Vector   65  Occ=0.000000D+00  E= 5.028699D-01  Symmetry=a1'
              MO Center= -1.7D-15, -9.5D-16, -1.7D-15, r^2= 4.6D+00
   Bfn.  Coefficient  Atom+Function         Bfn.  Coefficient  Atom+Function  
  ----- ------------  ---------------      ----- ------------  ---------------
    10      1.389093   1 Fe s                35     -1.201632   2 C  s         
    44     -1.201632   3 C  s                71     -1.074803   6 C  s         
    80     -1.074803   7 C  s                89     -1.074803   8 C  s         
    53      0.626844   4 O  s                62      0.626844   5 O  s         
    14      0.578790   1 Fe s                98      0.484533   9 O  s         


 center of mass
 --------------
 x =  -0.00000000 y =  -0.00000000 z =   0.00000000

 moments of inertia (a.u.)
 ------------------
        2255.012792094188           0.000000000000           0.000000000000
           0.000000000000        2255.012792094188           0.000000000000
           0.000000000000           0.000000000000        1950.260605202691

  Mulliken analysis of the total density
  --------------------------------------

    Atom       Charge   Shell Charges
 -----------   ------   -------------------------------------------------------
    1 Fe  26    25.25   1.99  2.01  6.00  1.68  5.97 -0.05  0.99  0.09  0.12  3.00  3.45
    2 C    6     5.71   1.99  0.46  1.31  1.10  0.85
    3 C    6     5.71   1.99  0.46  1.31  1.10  0.85
    4 O    8     8.47   1.99  0.44  2.07  1.57  2.41
    5 O    8     8.47   1.99  0.44  2.07  1.57  2.41
    6 C    6     5.63   1.99  0.45  1.31  1.01  0.87
    7 C    6     5.63   1.99  0.45  1.31  1.01  0.87
    8 C    6     5.63   1.99  0.45  1.31  1.01  0.87
    9 O    8     8.50   1.99  0.44  2.07  1.57  2.42
   10 O    8     8.50   1.99  0.44  2.07  1.57  2.42
   11 O    8     8.50   1.99  0.44  2.07  1.57  2.42

       Multipole analysis of the density wrt the origin
       ------------------------------------------------

     L   x y z        total         open         nuclear
     -   - - -        -----         ----         -------
     0   0 0 0     -0.000000      0.000000     96.000000

     1   1 0 0      0.000000      0.000000     -0.000000
     1   0 1 0     -0.000000      0.000000     -0.000000
     1   0 0 1      0.000000      0.000000      0.000000

     2   2 0 0    -57.470433      0.000000    487.686157
     2   1 1 0     -0.000000      0.000000     -0.000000
     2   1 0 1      0.000000      0.000000     -0.000000
     2   0 2 0    -57.470433      0.000000    487.686157
     2   0 1 1      0.000000      0.000000      0.000000
     2   0 0 2    -55.298839      0.000000    640.100373


 Parallel integral file used      47 records with       0 large values


 Task  times  cpu:        0.8s     wall:        0.9s


                                NWChem Input Module
                                -------------------


               case s3a: fe(co)5 --- Semi-direct SCF ... 75% caching
               -----------------------------------------------------
                                 NWChem SCF Module
                                 -----------------


               case s3a: fe(co)5 --- Semi-direct SCF ... 75% caching



  ao basis        = "ao basis"
  functions       =   119
  atoms           =    11
  closed shells   =    48
  open shells     =     0
  charge          =   0.00
  wavefunction    = RHF 
  input vectors   = atomic
  output vectors  = ./scf_feco5.movecs
  use symmetry    = T
  symmetry adapt  = T


 Summary of "ao basis" -> "ao basis" (cartesian)
 ------------------------------------------------------------------------------
       Tag                 Description            Shells   Functions and Types
 ---------------- ------------------------------  ------  ---------------------
 fe                          3-21g                  11       29   5s4p2d
 o                           3-21g                   5        9   3s2p
 c                           3-21g                   5        9   3s2p


      Symmetry analysis of basis
      --------------------------

        a1'        29
        a1"         0
        a2'         4
        a2"        18
        e'         48
        e"         20


 Forming initial guess at       1.0s


      Superposition of Atomic Density Guess
      -------------------------------------

 Sum of atomic energies:       -1815.24436401

 Integral file          = ./scf_feco5.aoints.0
 Record size in doubles =  65536        No. of integs per rec  =  65534
 Max. records in memory =      0        Max. records in file   =      3
 No. of bits per label  =      8        No. of bits per value  =     32


 #quartets = 1.511D+05 #integrals = 1.336D+06 #direct = 26.5% #cached = 73.5%


      Non-variational initial energy
      ------------------------------

 Total energy =   -1818.607108
 1-e energy   =   -4094.538473
 2-e energy   =    1477.435746
 HOMO         =      -0.233831
 LUMO         =      -0.015290


      Symmetry analysis of molecular orbitals - initial
      -------------------------------------------------

  Numbering of irreducible representations: 

     1 a1'         2 a1"         3 a2'         4 a2"         5 e'      
     6 e"      

  Orbital symmetries:

     1 a1'         2 a1'         3 a2"         4 e'          5 e'      
     6 a1'         7 a1'         8 a2"         9 e'         10 e'      
    11 a1'        12 a2"        13 a1'        14 e'         15 e'      
    16 a1'        17 a2"        18 e'         19 e'         20 a1'     
    21 a2"        22 e'         23 e'         24 a1'        25 a1'     
    26 a2"        27 e'         28 e'         29 a1'        30 a1'     
    31 e"         32 e"         33 a2"        34 e'         35 e'      
    36 e'         37 e'         38 a2'        39 e"         40 e"      
    41 a1'        42 e'         43 e'         44 a2"        45 e"      
    46 e"         47 e'         48 e'         49 a1'        50 e"      
    51 e"         52 e'         53 e'         54 a2"        55 a2'     
    56 e'         57 e'         58 a1'     


 Starting SCF solution at       1.1s



 ----------------------------------------------
         Quadratically convergent ROHF

 Convergence threshold     :          1.000E-04
 Maximum no. of iterations :           30
 Final Fock-matrix accuracy:          1.000E-07
 ----------------------------------------------


              iter       energy          gnorm     gmax       time
             ----- ------------------- --------- --------- --------
                 1    -1816.3884281387  1.87D+00  5.01D-01      1.2
                 2    -1816.6015415846  7.93D-01  2.38D-01      1.3
                 3    -1816.6471690938  5.87D-01  2.10D-01      1.3
                 4    -1816.6610441649  3.06D-01  9.16D-02      1.5
                 5    -1816.6770961655  7.76D-02  3.82D-02      1.7
                 6    -1816.6775057185  4.06D-03  1.16D-03      1.9
                 7    -1816.6775091471  2.04D-05  7.57D-06      2.2


       Final RHF  results 
       ------------------ 

         Total SCF energy =  -1816.677509147096
      One-electron energy =  -4092.290737467929
      Two-electron energy =   1477.117610226642
 Nuclear repulsion energy =    798.495618094190

        Time for solution =      1.1s



       Symmetry analysis of molecular orbitals - final
       -----------------------------------------------

  Numbering of irreducible representations: 

     1 a1'         2 a1"         3 a2'         4 a2"         5 e'      
     6 e"      

  Orbital symmetries:

     1 a1'         2 a1'         3 a2"         4 e'          5 e'      
     6 a1'         7 a2"         8 a1'         9 e'         10 e'      
    11 a2"        12 a1'        13 a1'        14 e'         15 e'      
    16 a1'        17 a2"        18 e'         19 e'         20 a1'     
    21 a2"        22 a1'        23 e'         24 e'         25 a1'     
    26 a2"        27 e'         28 e'         29 a1'        30 a1'     
    31 e"         32 e"         33 a2"        34 e'         35 e'      
    36 e'         37 e'         38 a2'        39 e"         40 e"      
    41 e'         42 e'         43 a1'        44 a2"        45 e"      
    46 e"         47 e'         48 e'         49 e"         50 e"      
    51 a1'        52 a2"        53 e'         54 e'         55 a2'     
    56 e'         57 e'         58 a2"     

             Final eigenvalues
             -----------------

              1      
    1 -259.8147
    2  -31.8753
    3  -27.3166
    4  -27.3115
    5  -27.3115
    6  -20.6092
    7  -20.6087
    8  -20.5806
    9  -20.5801
   10  -20.5801
   11  -11.3717
   12  -11.3710
   13  -11.3538
   14  -11.3529
   15  -11.3529
   16   -4.1718
   17   -2.7392
   18   -2.7276
   19   -2.7276
   20   -1.5608
   21   -1.5603
   22   -1.5360
   23   -1.5350
   24   -1.5350
   25   -0.8706
   26   -0.8228
   27   -0.8008
   28   -0.8008
   29   -0.7991
   30   -0.7302
   31   -0.6834
   32   -0.6834
   33   -0.6770
   34   -0.6765
   35   -0.6765
   36   -0.6546
   37   -0.6546
   38   -0.6418
   39   -0.6322
   40   -0.6322
   41   -0.6288
   42   -0.6288
   43   -0.6193
   44   -0.6050
   45   -0.4815
   46   -0.4815
   47   -0.3311
   48   -0.3311
   49    0.0763
   50    0.0763
   51    0.0986
   52    0.1049
   53    0.1093
   54    0.1093
   55    0.1213
   56    0.1242
   57    0.1242
   58    0.1382

                       ROHF Final Molecular Orbital Analysis
                       -------------------------------------

 Vector   25  Occ=2.000000D+00  E=-8.706153D-01  Symmetry=a1'
              MO Center=  1.9D-16,  1.1D-17, -1.7D-16, r^2= 5.1D+00
   Bfn.  Coefficient  Atom+Function         Bfn.  Coefficient  Atom+Function  
  ----- ------------  ---------------      ----- ------------  ---------------
    35      0.302350   2 C  s                44      0.302350   3 C  s         
     6     -0.211001   1 Fe s                53     -0.208840   4 O  s         
    62     -0.208840   5 O  s                71      0.206866   6 C  s         
    80      0.206866   7 C  s                89      0.206866   8 C  s         

 Vector   26  Occ=2.000000D+00  E=-8.227912D-01  Symmetry=a2"
              MO Center=  5.6D-18, -7.0D-18, -1.7D-16, r^2= 8.4D+00
   Bfn.  Coefficient  Atom+Function         Bfn.  Coefficient  Atom+Function  
  ----- ------------  ---------------      ----- ------------  ---------------
    35      0.357606   2 C  s                44     -0.357606   3 C  s         
    53     -0.332294   4 O  s                62      0.332294   5 O  s         
    52     -0.244330   4 O  pz               61     -0.244330   5 O  pz        
    56     -0.216737   4 O  pz               65     -0.216737   5 O  pz        

 Vector   27  Occ=2.000000D+00  E=-8.007897D-01  Symmetry=e'
              MO Center= -1.3D+00,  7.9D-02,  1.7D-19, r^2= 6.6D+00
   Bfn.  Coefficient  Atom+Function         Bfn.  Coefficient  Atom+Function  
  ----- ------------  ---------------      ----- ------------  ---------------
    80      0.372230   7 C  s               107     -0.370260  10 O  s         
   104      0.265353  10 O  px              108      0.242313  10 O  px        
    89     -0.218816   8 C  s               116      0.217658  11 O  s         
    76      0.164361   7 C  s               114     -0.156137  11 O  py        
    71     -0.153414   6 C  s                98      0.152602   9 O  s         

 Vector   28  Occ=2.000000D+00  E=-8.007897D-01  Symmetry=e'
              MO Center=  1.3D+00, -7.9D-02,  2.4D-17, r^2= 6.6D+00
   Bfn.  Coefficient  Atom+Function         Bfn.  Coefficient  Atom+Function  
  ----- ------------  ---------------      ----- ------------  ---------------
    71      0.341241   6 C  s                98     -0.339435   9 O  s         
    89     -0.303481   8 C  s               116      0.301875  11 O  s         
   114     -0.216212  11 O  py              118     -0.198169  11 O  py        
    95     -0.178287   9 O  px               96     -0.177845   9 O  py        
   100     -0.163703   9 O  py               99     -0.161656   9 O  px        

 Vector   29  Occ=2.000000D+00  E=-7.991258D-01  Symmetry=a1'
              MO Center= -1.6D-16, -3.4D-16,  6.7D-16, r^2= 9.0D+00
   Bfn.  Coefficient  Atom+Function         Bfn.  Coefficient  Atom+Function  
  ----- ------------  ---------------      ----- ------------  ---------------
    53      0.210120   4 O  s                62      0.210120   5 O  s         
    52      0.195828   4 O  pz               61     -0.195828   5 O  pz        
    71      0.195231   6 C  s                80      0.195231   7 C  s         
    89      0.195231   8 C  s                56      0.184962   4 O  pz        
    65     -0.184962   5 O  pz               98     -0.178899   9 O  s         

 Vector   30  Occ=2.000000D+00  E=-7.302360D-01  Symmetry=a1'
              MO Center=  5.8D-17,  1.1D-16,  1.4D-16, r^2= 7.7D+00
   Bfn.  Coefficient  Atom+Function         Bfn.  Coefficient  Atom+Function  
  ----- ------------  ---------------      ----- ------------  ---------------
    34      0.202702   2 C  pz               43     -0.202702   3 C  pz        
    52     -0.195103   4 O  pz               61      0.195103   5 O  pz        
    56     -0.179477   4 O  pz               65      0.179477   5 O  pz        
   104      0.164057  10 O  px              114      0.164057  11 O  py        
     6      0.152768   1 Fe s               108      0.152329  10 O  px        

 Vector   31  Occ=2.000000D+00  E=-6.833727D-01  Symmetry=e"
              MO Center=  1.9D-01, -1.5D-01,  4.3D-17, r^2= 6.7D+00
   Bfn.  Coefficient  Atom+Function         Bfn.  Coefficient  Atom+Function  
  ----- ------------  ---------------      ----- ------------  ---------------
    28      0.266053   1 Fe dyz              22      0.260029   1 Fe dyz       
    55      0.253251   4 O  py               64     -0.253251   5 O  py        
    51      0.247809   4 O  py               60     -0.247809   5 O  py        
    33      0.169744   2 C  py               42     -0.169744   3 C  py        
    37      0.162507   2 C  py               46     -0.162507   3 C  py        

 Vector   32  Occ=2.000000D+00  E=-6.833727D-01  Symmetry=e"
              MO Center= -1.9D-01,  1.5D-01, -3.3D-17, r^2= 6.7D+00
   Bfn.  Coefficient  Atom+Function         Bfn.  Coefficient  Atom+Function  
  ----- ------------  ---------------      ----- ------------  ---------------
    26      0.266053   1 Fe dxz              20      0.260029   1 Fe dxz       
    54      0.253251   4 O  px               63     -0.253251   5 O  px        
    50      0.247809   4 O  px               59     -0.247809   5 O  px        
    32      0.169744   2 C  px               41     -0.169744   3 C  px        
    36      0.162507   2 C  px               45     -0.162507   3 C  px        

 Vector   33  Occ=2.000000D+00  E=-6.769749D-01  Symmetry=a2"
              MO Center= -4.3D-17, -4.8D-17, -2.8D-17, r^2= 5.8D+00
   Bfn.  Coefficient  Atom+Function         Bfn.  Coefficient  Atom+Function  
  ----- ------------  ---------------      ----- ------------  ---------------
    35      0.332190   2 C  s                44     -0.332190   3 C  s         
    34     -0.228306   2 C  pz               43     -0.228306   3 C  pz        
    52      0.174131   4 O  pz               61      0.174131   5 O  pz        
     9     -0.169746   1 Fe pz               38     -0.160558   2 C  pz        
    47     -0.160558   3 C  pz               56      0.158359   4 O  pz        

 Vector   34  Occ=2.000000D+00  E=-6.764663D-01  Symmetry=e'
              MO Center=  2.4D-01, -1.4D-01,  3.1D-18, r^2= 6.9D+00
   Bfn.  Coefficient  Atom+Function         Bfn.  Coefficient  Atom+Function  
  ----- ------------  ---------------      ----- ------------  ---------------
    55      0.252987   4 O  py               64      0.252987   5 O  py        
    51      0.243622   4 O  py               60      0.243622   5 O  py        
    89     -0.207720   8 C  s                71      0.179047   6 C  s         
    87     -0.160586   8 C  py               33      0.157921   2 C  py        
    42      0.157921   3 C  py        

 Vector   35  Occ=2.000000D+00  E=-6.764663D-01  Symmetry=e'
              MO Center= -2.4D-01,  1.4D-01, -1.4D-15, r^2= 6.9D+00
   Bfn.  Coefficient  Atom+Function         Bfn.  Coefficient  Atom+Function  
  ----- ------------  ---------------      ----- ------------  ---------------
    54      0.252987   4 O  px               63      0.252987   5 O  px        
    50      0.243622   4 O  px               59      0.243622   5 O  px        
    80     -0.223300   7 C  s                77     -0.174560   7 C  px        
    32      0.157921   2 C  px               41      0.157921   3 C  px        

 Vector   36  Occ=2.000000D+00  E=-6.546476D-01  Symmetry=e'
              MO Center= -1.0D+00,  1.9D-01, -7.1D-19, r^2= 6.2D+00
   Bfn.  Coefficient  Atom+Function         Bfn.  Coefficient  Atom+Function  
  ----- ------------  ---------------      ----- ------------  ---------------
   109      0.327755  10 O  py              105      0.317333  10 O  py        
    78      0.197915   7 C  py              117      0.188646  11 O  px        
    82      0.184457   7 C  py              113      0.183310  11 O  px        
    25     -0.178484   1 Fe dxy              19     -0.158569   1 Fe dxy       
    99     -0.154269   9 O  px               95     -0.151285   9 O  px        

 Vector   37  Occ=2.000000D+00  E=-6.546476D-01  Symmetry=e'
              MO Center=  1.0D+00, -1.9D-01,  7.6D-19, r^2= 6.2D+00
   Bfn.  Coefficient  Atom+Function         Bfn.  Coefficient  Atom+Function  
  ----- ------------  ---------------      ----- ------------  ---------------
   117      0.268079  11 O  px              113      0.259105  11 O  px        
   100     -0.234043   9 O  py               96     -0.227606   9 O  py        
    99      0.189449   9 O  px               86      0.183076   8 C  px        
    95      0.182383   9 O  px               90      0.164672   8 C  px        
    68      0.163523   6 C  px        

 Vector   38  Occ=2.000000D+00  E=-6.417544D-01  Symmetry=a2'
              MO Center= -2.7D-16,  2.0D-16,  1.3D-33, r^2= 8.1D+00
   Bfn.  Coefficient  Atom+Function         Bfn.  Coefficient  Atom+Function  
  ----- ------------  ---------------      ----- ------------  ---------------
   109      0.267422  10 O  py              117     -0.267422  11 O  px        
   105      0.250407  10 O  py              113     -0.250407  11 O  px        
    99      0.195767   9 O  px              100     -0.195767   9 O  py        
    95      0.183310   9 O  px               96     -0.183310   9 O  py        

 Vector   39  Occ=2.000000D+00  E=-6.322426D-01  Symmetry=e"
              MO Center=  2.2D-01, -9.8D-01, -4.4D-16, r^2= 7.0D+00
   Bfn.  Coefficient  Atom+Function         Bfn.  Coefficient  Atom+Function  
  ----- ------------  ---------------      ----- ------------  ---------------
   119      0.326961  11 O  pz              115      0.307691  11 O  pz        
    88      0.188800   8 C  pz               92      0.182910   8 C  pz        
    55      0.169221   4 O  py               64     -0.169221   5 O  py        
   110     -0.169760  10 O  pz              106     -0.159755  10 O  pz        
   101     -0.157201   9 O  pz               51      0.156220   4 O  py        

 Vector   40  Occ=2.000000D+00  E=-6.322426D-01  Symmetry=e"
              MO Center= -2.2D-01,  9.8D-01,  2.2D-15, r^2= 7.0D+00
   Bfn.  Coefficient  Atom+Function         Bfn.  Coefficient  Atom+Function  
  ----- ------------  ---------------      ----- ------------  ---------------
   101      0.286782   9 O  pz              110     -0.279531  10 O  pz        
    97      0.269880   9 O  pz              106     -0.263057  10 O  pz        
    54     -0.169221   4 O  px               63      0.169221   5 O  px        
    70      0.165599   6 C  pz               79     -0.161412   7 C  pz        
    74      0.160433   6 C  pz               50     -0.156220   4 O  px        

 Vector   41  Occ=2.000000D+00  E=-6.288250D-01  Symmetry=e'
              MO Center=  1.3D-01,  2.8D-01,  6.2D-16, r^2= 5.7D+00
   Bfn.  Coefficient  Atom+Function         Bfn.  Coefficient  Atom+Function  
  ----- ------------  ---------------      ----- ------------  ---------------
    71      0.401903   6 C  s                80     -0.264389   7 C  s         
    25      0.220657   1 Fe dxy              19      0.196977   1 Fe dxy       
    69     -0.185497   6 C  py               68     -0.171132   6 C  px        
    54     -0.170027   4 O  px               63     -0.170027   5 O  px        
    50     -0.154594   4 O  px               59     -0.154594   5 O  px        

 Vector   42  Occ=2.000000D+00  E=-6.288250D-01  Symmetry=e'
              MO Center= -1.3D-01, -2.8D-01, -4.8D-17, r^2= 5.7D+00
   Bfn.  Coefficient  Atom+Function         Bfn.  Coefficient  Atom+Function  
  ----- ------------  ---------------      ----- ------------  ---------------
    89      0.384683   8 C  s                80     -0.311433   7 C  s         
    87      0.238081   8 C  py               77     -0.198240   7 C  px        
    91      0.176937   8 C  py               55      0.170027   4 O  py        
    64      0.170027   5 O  py               51      0.154594   4 O  py        
    60      0.154594   5 O  py        

 Vector   43  Occ=2.000000D+00  E=-6.193136D-01  Symmetry=a1'
              MO Center= -1.0D-14, -8.4D-15, -3.5D-18, r^2= 3.5D+00
   Bfn.  Coefficient  Atom+Function         Bfn.  Coefficient  Atom+Function  
  ----- ------------  ---------------      ----- ------------  ---------------
    35      0.347213   2 C  s                44      0.347213   3 C  s         
    71     -0.268283   6 C  s                80     -0.268283   7 C  s         
    89     -0.268283   8 C  s                34     -0.198417   2 C  pz        
    43      0.198417   3 C  pz               29      0.195139   1 Fe dzz       
    77     -0.177194   7 C  px               87     -0.177194   8 C  py        

 Vector   44  Occ=2.000000D+00  E=-6.050386D-01  Symmetry=a2"
              MO Center= -1.4D-16, -5.2D-16,  2.1D-17, r^2= 6.7D+00
   Bfn.  Coefficient  Atom+Function         Bfn.  Coefficient  Atom+Function  
  ----- ------------  ---------------      ----- ------------  ---------------
    35      0.284854   2 C  s                44     -0.284854   3 C  s         
   101     -0.227715   9 O  pz              110     -0.227715  10 O  pz        
   119     -0.227715  11 O  pz               97     -0.210987   9 O  pz        
   106     -0.210987  10 O  pz              115     -0.210987  11 O  pz        
    34     -0.185392   2 C  pz               43     -0.185392   3 C  pz        

 Vector   45  Occ=2.000000D+00  E=-4.815087D-01  Symmetry=e"
              MO Center= -1.3D-02,  1.4D-01, -1.1D-15, r^2= 2.1D+00
   Bfn.  Coefficient  Atom+Function         Bfn.  Coefficient  Atom+Function  
  ----- ------------  ---------------      ----- ------------  ---------------
    26      0.863258   1 Fe dxz              20      0.841916   1 Fe dxz       
    28      0.310655   1 Fe dyz              22      0.302975   1 Fe dyz       
    54     -0.161450   4 O  px               63      0.161450   5 O  px        
   101     -0.157912   9 O  pz        

 Vector   46  Occ=2.000000D+00  E=-4.815087D-01  Symmetry=e"
              MO Center=  1.3D-02, -1.4D-01,  7.6D-17, r^2= 2.1D+00
   Bfn.  Coefficient  Atom+Function         Bfn.  Coefficient  Atom+Function  
  ----- ------------  ---------------      ----- ------------  ---------------
    28      0.863258   1 Fe dyz              22      0.841916   1 Fe dyz       
    26     -0.310655   1 Fe dxz              20     -0.302975   1 Fe dxz       
   119      0.173923  11 O  pz               55     -0.161450   4 O  py        
    64      0.161450   5 O  py        

 Vector   47  Occ=2.000000D+00  E=-3.311259D-01  Symmetry=e'
              MO Center= -4.2D-01,  1.1D-01,  1.0D-15, r^2= 2.8D+00
   Bfn.  Coefficient  Atom+Function         Bfn.  Coefficient  Atom+Function  
  ----- ------------  ---------------      ----- ------------  ---------------
    12      0.793678   1 Fe py               25     -0.609419   1 Fe dxy       
    19     -0.573878   1 Fe dxy             109     -0.216673  10 O  py        
    11      0.214201   1 Fe px               71     -0.183583   6 C  s         
    89      0.183201   8 C  s                24     -0.175192   1 Fe dxx       
    27      0.175192   1 Fe dyy              18     -0.164975   1 Fe dxx       

 Vector   48  Occ=2.000000D+00  E=-3.311259D-01  Symmetry=e'
              MO Center=  4.2D-01, -1.1D-01,  3.4D-17, r^2= 2.8D+00
   Bfn.  Coefficient  Atom+Function         Bfn.  Coefficient  Atom+Function  
  ----- ------------  ---------------      ----- ------------  ---------------
    11      0.793678   1 Fe px               25     -0.350384   1 Fe dxy       
    19     -0.329950   1 Fe dxy              24      0.304710   1 Fe dxx       
    27     -0.304710   1 Fe dyy              18      0.286939   1 Fe dxx       
    21     -0.286939   1 Fe dyy              12     -0.214201   1 Fe py        
    80      0.211763   7 C  s               117     -0.179791  11 O  px        

 Vector   49  Occ=0.000000D+00  E= 7.628322D-02  Symmetry=e"
              MO Center=  2.8D-02, -4.0D-01, -6.1D-16, r^2= 4.8D+00
   Bfn.  Coefficient  Atom+Function         Bfn.  Coefficient  Atom+Function  
  ----- ------------  ---------------      ----- ------------  ---------------
    22      0.416411   1 Fe dyz              28      0.397267   1 Fe dyz       
    92      0.314277   8 C  pz               37     -0.307260   2 C  py        
    46      0.307260   3 C  py              119     -0.257330  11 O  pz        
    55      0.235613   4 O  py               64     -0.235613   5 O  py        
    83     -0.183340   7 C  pz               33     -0.179789   2 C  py        

 Vector   50  Occ=0.000000D+00  E= 7.628322D-02  Symmetry=e"
              MO Center= -2.8D-02,  4.0D-01, -2.3D-17, r^2= 4.8D+00
   Bfn.  Coefficient  Atom+Function         Bfn.  Coefficient  Atom+Function  
  ----- ------------  ---------------      ----- ------------  ---------------
    20      0.416411   1 Fe dxz              26      0.397267   1 Fe dxz       
    36     -0.307260   2 C  px               45      0.307260   3 C  px        
    74     -0.287299   6 C  pz               83      0.257044   7 C  pz        
    54      0.235613   4 O  px               63     -0.235613   5 O  px        
   101      0.235240   9 O  pz              110     -0.210468  10 O  pz        

 Vector   51  Occ=0.000000D+00  E= 9.863408D-02  Symmetry=a1'
              MO Center= -3.5D-15,  5.4D-15, -8.4D-15, r^2= 1.1D+01
   Bfn.  Coefficient  Atom+Function         Bfn.  Coefficient  Atom+Function  
  ----- ------------  ---------------      ----- ------------  ---------------
    14      2.202285   1 Fe s                10     -1.364410   1 Fe s         
    71     -0.224512   6 C  s                80     -0.224512   7 C  s         
    89     -0.224512   8 C  s                35     -0.170340   2 C  s         
    44     -0.170340   3 C  s         

 Vector   52  Occ=0.000000D+00  E= 1.049467D-01  Symmetry=a2"
              MO Center= -4.7D-18,  5.4D-17,  2.2D-14, r^2= 1.1D+01
   Bfn.  Coefficient  Atom+Function         Bfn.  Coefficient  Atom+Function  
  ----- ------------  ---------------      ----- ------------  ---------------
    17      1.309581   1 Fe pz               13     -0.400088   1 Fe pz        
    35     -0.341411   2 C  s                44      0.341411   3 C  s         
   101     -0.179071   9 O  pz              110     -0.179071  10 O  pz        
   119     -0.179071  11 O  pz        

 Vector   53  Occ=0.000000D+00  E= 1.093124D-01  Symmetry=e'
              MO Center= -1.1D-01,  1.8D-01, -6.2D-17, r^2= 1.1D+01
   Bfn.  Coefficient  Atom+Function         Bfn.  Coefficient  Atom+Function  
  ----- ------------  ---------------      ----- ------------  ---------------
    16      1.319741   1 Fe py               12     -0.695579   1 Fe py        
    89      0.316685   8 C  s                71     -0.202025   6 C  s         
    55     -0.199003   4 O  py               64     -0.199003   5 O  py        
    37      0.190578   2 C  py               46      0.190578   3 C  py        
    19      0.179609   1 Fe dxy              25      0.172959   1 Fe dxy       

 Vector   54  Occ=0.000000D+00  E= 1.093124D-01  Symmetry=e'
              MO Center=  1.1D-01, -1.8D-01, -3.6D-17, r^2= 1.1D+01
   Bfn.  Coefficient  Atom+Function         Bfn.  Coefficient  Atom+Function  
  ----- ------------  ---------------      ----- ------------  ---------------
    15      1.319741   1 Fe px               11     -0.695579   1 Fe px        
    80      0.299477   7 C  s                71     -0.249036   6 C  s         
    19      0.221404   1 Fe dxy              25      0.213207   1 Fe dxy       
    54     -0.199003   4 O  px               63     -0.199003   5 O  px        
    36      0.190578   2 C  px               45      0.190578   3 C  px        

 Vector   55  Occ=0.000000D+00  E= 1.213409D-01  Symmetry=a2'
              MO Center=  5.2D-17, -1.1D-15,  3.3D-29, r^2= 5.6D+00
   Bfn.  Coefficient  Atom+Function         Bfn.  Coefficient  Atom+Function  
  ----- ------------  ---------------      ----- ------------  ---------------
    82      0.403846   7 C  py               90     -0.403846   8 C  px        
    72      0.295636   6 C  px               73     -0.295636   6 C  py        
   109     -0.285720  10 O  py              117      0.285720  11 O  px        
    78      0.260070   7 C  py               86     -0.260070   8 C  px        
    99     -0.209162   9 O  px              100      0.209162   9 O  py        

 Vector   56  Occ=0.000000D+00  E= 1.241828D-01  Symmetry=e'
              MO Center= -1.8D-01, -4.7D-02, -5.9D-17, r^2= 7.4D+00
   Bfn.  Coefficient  Atom+Function         Bfn.  Coefficient  Atom+Function  
  ----- ------------  ---------------      ----- ------------  ---------------
    16      0.698527   1 Fe py               37     -0.403216   2 C  py        
    46     -0.403216   3 C  py               15      0.397430   1 Fe px        
    12     -0.366099   1 Fe py               33     -0.250728   2 C  py        
    42     -0.250728   3 C  py               55      0.251722   4 O  py        
    64      0.251722   5 O  py               36     -0.229412   2 C  px        

 Vector   57  Occ=0.000000D+00  E= 1.241828D-01  Symmetry=e'
              MO Center=  1.8D-01,  4.7D-02, -1.9D-17, r^2= 7.4D+00
   Bfn.  Coefficient  Atom+Function         Bfn.  Coefficient  Atom+Function  
  ----- ------------  ---------------      ----- ------------  ---------------
    15      0.698527   1 Fe px               36     -0.403216   2 C  px        
    45     -0.403216   3 C  px               16     -0.397430   1 Fe py        
    11     -0.366099   1 Fe px               32     -0.250728   2 C  px        
    41     -0.250728   3 C  px               54      0.251722   4 O  px        
    63      0.251722   5 O  px               37      0.229412   2 C  py        

 Vector   58  Occ=0.000000D+00  E= 1.381889D-01  Symmetry=a2"
              MO Center= -1.1D-16, -1.8D-16, -1.4D-14, r^2= 8.7D+00
   Bfn.  Coefficient  Atom+Function         Bfn.  Coefficient  Atom+Function  
  ----- ------------  ---------------      ----- ------------  ---------------
    13      1.419016   1 Fe pz               17     -1.157075   1 Fe pz        
    35     -0.491319   2 C  s                44      0.491319   3 C  s         
    38      0.388573   2 C  pz               47      0.388573   3 C  pz        
    74      0.272237   6 C  pz               83      0.272237   7 C  pz        
    92      0.272237   8 C  pz               70      0.231566   6 C  pz        

 Vector   59  Occ=0.000000D+00  E= 1.555100D-01  Symmetry=e'
              MO Center= -3.6D-01,  1.7D-01,  6.1D-15, r^2= 4.7D+00
   Bfn.  Coefficient  Atom+Function         Bfn.  Coefficient  Atom+Function  
  ----- ------------  ---------------      ----- ------------  ---------------
    25     -0.492956   1 Fe dxy              16      0.487601   1 Fe py        
    19     -0.468764   1 Fe dxy              82     -0.427846   7 C  py        
    12     -0.299630   1 Fe py               78     -0.283498   7 C  py        
[...]
              MO Center= -4.2D-16,  5.1D-16,  2.2D-16, r^2= 6.7D+00
   Bfn.  Coefficient  Atom+Function         Bfn.  Coefficient  Atom+Function  
  ----- ------------  ---------------      ----- ------------  ---------------
    35      0.284855   2 C  s                44     -0.284855   3 C  s         
   101     -0.227715   9 O  pz              110     -0.227715  10 O  pz        
   119     -0.227715  11 O  pz               97     -0.210987   9 O  pz        
   106     -0.210987  10 O  pz              115     -0.210987  11 O  pz        
    34     -0.185392   2 C  pz               43     -0.185392   3 C  pz        

 Vector   45  Occ=2.000000D+00  E=-4.815078D-01  Symmetry=e"
              MO Center= -1.2D-01, -6.0D-02,  3.5D-17, r^2= 2.1D+00
   Bfn.  Coefficient  Atom+Function         Bfn.  Coefficient  Atom+Function  
  ----- ------------  ---------------      ----- ------------  ---------------
    26      0.746081   1 Fe dxz              20      0.727636   1 Fe dxz       
    28     -0.533932   1 Fe dyz              22     -0.520731   1 Fe dyz       
   110      0.163385  10 O  pz        

 Vector   46  Occ=2.000000D+00  E=-4.815078D-01  Symmetry=e"
              MO Center=  1.2D-01,  6.0D-02,  1.8D-17, r^2= 2.1D+00
   Bfn.  Coefficient  Atom+Function         Bfn.  Coefficient  Atom+Function  
  ----- ------------  ---------------      ----- ------------  ---------------
    28      0.746081   1 Fe dyz              22      0.727636   1 Fe dyz       
    26      0.533932   1 Fe dxz              20      0.520731   1 Fe dxz       
   101     -0.172184   9 O  pz        

 Vector   47  Occ=2.000000D+00  E=-3.311260D-01  Symmetry=e'
              MO Center=  8.6D-02, -4.2D-01,  2.9D-17, r^2= 2.8D+00
   Bfn.  Coefficient  Atom+Function         Bfn.  Coefficient  Atom+Function  
  ----- ------------  ---------------      ----- ------------  ---------------
    11      0.787256   1 Fe px               25     -0.619148   1 Fe dxy       
    19     -0.583040   1 Fe dxy              12      0.236710   1 Fe py        
   117     -0.217007  11 O  px               71     -0.186512   6 C  s         
    80      0.180101   7 C  s                24      0.166446   1 Fe dxx       
    27     -0.166446   1 Fe dyy              18      0.156739   1 Fe dxx       

 Vector   48  Occ=2.000000D+00  E=-3.311260D-01  Symmetry=e'
              MO Center= -8.6D-02,  4.2D-01, -3.5D-16, r^2= 2.8D+00
   Bfn.  Coefficient  Atom+Function         Bfn.  Coefficient  Atom+Function  
  ----- ------------  ---------------      ----- ------------  ---------------
    12      0.787256   1 Fe py               25     -0.332892   1 Fe dxy       
    19     -0.313478   1 Fe dxy              24     -0.309574   1 Fe dxx       
    27      0.309574   1 Fe dyy              18     -0.291520   1 Fe dxx       
    21      0.291520   1 Fe dyy              11     -0.236710   1 Fe px        
    89      0.211664   8 C  s               109     -0.176250  10 O  py        

 Vector   49  Occ=0.000000D+00  E= 7.628347D-02  Symmetry=e"
              MO Center= -3.9D-01,  5.5D-02,  3.5D-17, r^2= 4.8D+00
   Bfn.  Coefficient  Atom+Function         Bfn.  Coefficient  Atom+Function  
  ----- ------------  ---------------      ----- ------------  ---------------
    20      0.421569   1 Fe dxz              26      0.402188   1 Fe dxz       
    83      0.315138   7 C  pz               36     -0.311066   2 C  px        
    45      0.311066   3 C  px              110     -0.258035  10 O  pz        
    54      0.238531   4 O  px               63     -0.238531   5 O  px        
    32     -0.182016   2 C  px               41      0.182016   3 C  px        

 Vector   50  Occ=0.000000D+00  E= 7.628347D-02  Symmetry=e"
              MO Center=  3.9D-01, -5.5D-02,  1.7D-17, r^2= 4.8D+00
   Bfn.  Coefficient  Atom+Function         Bfn.  Coefficient  Atom+Function  
  ----- ------------  ---------------      ----- ------------  ---------------
    22      0.421569   1 Fe dyz              28      0.402188   1 Fe dyz       
    37     -0.311066   2 C  py               46      0.311066   3 C  py        
    74     -0.282576   6 C  pz               92      0.263259   8 C  pz        
    55      0.238531   4 O  py               64     -0.238531   5 O  py        
   101      0.231374   9 O  pz              119     -0.215556  11 O  pz        

 Vector   51  Occ=0.000000D+00  E= 9.863474D-02  Symmetry=a1'
              MO Center=  1.8D-16,  4.3D-16,  2.1D-17, r^2= 1.1D+01
   Bfn.  Coefficient  Atom+Function         Bfn.  Coefficient  Atom+Function  
  ----- ------------  ---------------      ----- ------------  ---------------
    14      2.202288   1 Fe s                10     -1.364414   1 Fe s         
    71     -0.224515   6 C  s                80     -0.224515   7 C  s         
    89     -0.224515   8 C  s                35     -0.170339   2 C  s         
    44     -0.170339   3 C  s         

 Vector   52  Occ=0.000000D+00  E= 1.049467D-01  Symmetry=a2"
              MO Center=  3.2D-16,  4.7D-16,  6.2D-17, r^2= 1.1D+01
   Bfn.  Coefficient  Atom+Function         Bfn.  Coefficient  Atom+Function  
  ----- ------------  ---------------      ----- ------------  ---------------
    17      1.309594   1 Fe pz               13     -0.400118   1 Fe pz        
    35     -0.341398   2 C  s                44      0.341398   3 C  s         
   101     -0.179070   9 O  pz              110     -0.179070  10 O  pz        
   119     -0.179070  11 O  pz        

 Vector   53  Occ=0.000000D+00  E= 1.093122D-01  Symmetry=e'
              MO Center= -1.0D-01,  1.9D-01, -5.1D-15, r^2= 1.1D+01
   Bfn.  Coefficient  Atom+Function         Bfn.  Coefficient  Atom+Function  
  ----- ------------  ---------------      ----- ------------  ---------------
    16      1.312844   1 Fe py               12     -0.691952   1 Fe py        
    89      0.318512   8 C  s                55     -0.197964   4 O  py        
    64     -0.197964   5 O  py               15     -0.192555   1 Fe px        
    71     -0.191445   6 C  s                37      0.189585   2 C  py        
    46      0.189585   3 C  py               91     -0.172206   8 C  py        

 Vector   54  Occ=0.000000D+00  E= 1.093122D-01  Symmetry=e'
              MO Center=  1.0D-01, -1.9D-01,  1.2D-17, r^2= 1.1D+01
   Bfn.  Coefficient  Atom+Function         Bfn.  Coefficient  Atom+Function  
  ----- ------------  ---------------      ----- ------------  ---------------
    15      1.312844   1 Fe px               11     -0.691952   1 Fe px        
    80      0.294424   7 C  s                71     -0.257256   6 C  s         
    19      0.228712   1 Fe dxy              25      0.220244   1 Fe dxy       
    54     -0.197964   4 O  px               63     -0.197964   5 O  px        
    16      0.192555   1 Fe py               36      0.189585   2 C  px        

 Vector   55  Occ=0.000000D+00  E= 1.213409D-01  Symmetry=a2'
              MO Center= -5.4D-16, -6.4D-16, -3.5D-32, r^2= 5.6D+00
   Bfn.  Coefficient  Atom+Function         Bfn.  Coefficient  Atom+Function  
  ----- ------------  ---------------      ----- ------------  ---------------
    82      0.403846   7 C  py               90     -0.403846   8 C  px        
    72      0.295636   6 C  px               73     -0.295636   6 C  py        
   109     -0.285720  10 O  py              117      0.285720  11 O  px        
    78      0.260070   7 C  py               86     -0.260070   8 C  px        
    99     -0.209162   9 O  px              100      0.209162   9 O  py        

 Vector   56  Occ=0.000000D+00  E= 1.241828D-01  Symmetry=e'
              MO Center=  1.1D-01, -1.5D-01,  2.8D-17, r^2= 7.4D+00
   Bfn.  Coefficient  Atom+Function         Bfn.  Coefficient  Atom+Function  
  ----- ------------  ---------------      ----- ------------  ---------------
    15      0.801684   1 Fe px               36     -0.462758   2 C  px        
    45     -0.462758   3 C  px               11     -0.420170   1 Fe px        
    32     -0.287754   2 C  px               41     -0.287754   3 C  px        
    54      0.288894   4 O  px               63      0.288894   5 O  px        
    50      0.170591   4 O  px               59      0.170591   5 O  px        

 Vector   57  Occ=0.000000D+00  E= 1.241828D-01  Symmetry=e'
              MO Center= -1.1D-01,  1.5D-01,  2.4D-16, r^2= 7.4D+00
   Bfn.  Coefficient  Atom+Function         Bfn.  Coefficient  Atom+Function  
  ----- ------------  ---------------      ----- ------------  ---------------
    16      0.801684   1 Fe py               37     -0.462758   2 C  py        
    46     -0.462758   3 C  py               12     -0.420170   1 Fe py        
    33     -0.287754   2 C  py               42     -0.287754   3 C  py        
    55      0.288894   4 O  py               64      0.288894   5 O  py        
    51      0.170591   4 O  py               60      0.170591   5 O  py        

 Vector   58  Occ=0.000000D+00  E= 1.381883D-01  Symmetry=a2"
              MO Center= -3.8D-17,  3.1D-17,  9.6D-17, r^2= 8.7D+00
   Bfn.  Coefficient  Atom+Function         Bfn.  Coefficient  Atom+Function  
  ----- ------------  ---------------      ----- ------------  ---------------
    13      1.419051   1 Fe pz               17     -1.157072   1 Fe pz        
    35     -0.491340   2 C  s                44      0.491340   3 C  s         
    38      0.388582   2 C  pz               47      0.388582   3 C  pz        
    74      0.272233   6 C  pz               83      0.272233   7 C  pz        
    92      0.272233   8 C  pz               70      0.231566   6 C  pz        

 Vector   59  Occ=0.000000D+00  E= 1.555099D-01  Symmetry=e'
              MO Center= -2.4D-01, -3.1D-01, -1.0D-16, r^2= 4.7D+00
   Bfn.  Coefficient  Atom+Function         Bfn.  Coefficient  Atom+Function  
  ----- ------------  ---------------      ----- ------------  ---------------
    25      0.601635   1 Fe dxy              19      0.572111   1 Fe dxy       
    90      0.389115   8 C  px               15     -0.371410   1 Fe px        
    82      0.362751   7 C  py               16     -0.327088   1 Fe py        
    71     -0.294750   6 C  s                86      0.251752   8 C  px        
   117     -0.241375  11 O  px               78      0.233078   7 C  py        

 Vector   60  Occ=0.000000D+00  E= 1.555099D-01  Symmetry=e'
              MO Center=  2.4D-01,  3.1D-01,  3.2D-17, r^2= 4.7D+00
   Bfn.  Coefficient  Atom+Function         Bfn.  Coefficient  Atom+Function  
  ----- ------------  ---------------      ----- ------------  ---------------
    16      0.371410   1 Fe py               15     -0.327088   1 Fe px        
    72      0.315768   6 C  px               73     -0.312975   6 C  py        
    24     -0.300817   1 Fe dxx              27      0.300817   1 Fe dyy       
    18     -0.286055   1 Fe dxx              21      0.286055   1 Fe dyy       
    89     -0.264612   8 C  s                80      0.245910   7 C  s         

 Vector   61  Occ=0.000000D+00  E= 2.046551D-01  Symmetry=e"
              MO Center=  3.5D-01,  4.8D-01,  3.7D-15, r^2= 5.2D+00
   Bfn.  Coefficient  Atom+Function         Bfn.  Coefficient  Atom+Function  
  ----- ------------  ---------------      ----- ------------  ---------------
    74      0.487237   6 C  pz              101     -0.330412   9 O  pz        
    70      0.324745   6 C  pz               36     -0.280953   2 C  px        
    45      0.280953   3 C  px               83     -0.276600   7 C  pz        
    37     -0.240217   2 C  py               46      0.240217   3 C  py        
    92     -0.210637   8 C  pz               32     -0.198077   2 C  px        

 Vector   62  Occ=0.000000D+00  E= 2.046551D-01  Symmetry=e"
              MO Center= -3.5D-01, -4.8D-01,  1.4D-15, r^2= 5.2D+00
   Bfn.  Coefficient  Atom+Function         Bfn.  Coefficient  Atom+Function  
  ----- ------------  ---------------      ----- ------------  ---------------
    92     -0.441002   8 C  pz               83      0.402918   7 C  pz        
   119      0.299058  11 O  pz               88     -0.293929   8 C  pz        
    37     -0.280953   2 C  py               46      0.280953   3 C  py        
   110     -0.273232  10 O  pz               79      0.268546   7 C  pz        
    36      0.240217   2 C  px               45     -0.240217   3 C  px        

 Vector   63  Occ=0.000000D+00  E= 2.805596D-01  Symmetry=a1'
              MO Center= -1.9D-16,  1.2D-15, -6.9D-17, r^2= 2.4D+00
   Bfn.  Coefficient  Atom+Function         Bfn.  Coefficient  Atom+Function  
  ----- ------------  ---------------      ----- ------------  ---------------
    29      0.523676   1 Fe dzz              35     -0.509044   2 C  s         
    44     -0.509044   3 C  s                53      0.493878   4 O  s         
    62      0.493878   5 O  s                23      0.472780   1 Fe dzz       
    10     -0.427675   1 Fe s                38     -0.426308   2 C  pz        
    47      0.426308   3 C  pz               71      0.357223   6 C  s         

 Vector   64  Occ=0.000000D+00  E= 4.961060D-01  Symmetry=a2"
              MO Center= -1.1D-16,  1.1D-16, -9.2D-16, r^2= 8.5D+00
   Bfn.  Coefficient  Atom+Function         Bfn.  Coefficient  Atom+Function  
  ----- ------------  ---------------      ----- ------------  ---------------
    13      4.252875   1 Fe pz               38      1.887963   2 C  pz        
    47      1.887963   3 C  pz               17     -1.310403   1 Fe pz        
    53     -1.054827   4 O  s                62      1.054827   5 O  s         
    35     -0.974541   2 C  s                44      0.974541   3 C  s         
    74     -0.408099   6 C  pz               83     -0.408099   7 C  pz        

 Vector   65  Occ=0.000000D+00  E= 5.028690D-01  Symmetry=a1'
              MO Center=  6.2D-16,  1.2D-15,  8.3D-16, r^2= 4.6D+00
   Bfn.  Coefficient  Atom+Function         Bfn.  Coefficient  Atom+Function  
  ----- ------------  ---------------      ----- ------------  ---------------
    10      1.389294   1 Fe s                35     -1.201657   2 C  s         
    44     -1.201657   3 C  s                71     -1.074800   6 C  s         
    80     -1.074800   7 C  s                89     -1.074800   8 C  s         
    53      0.626850   4 O  s                62      0.626850   5 O  s         
    14      0.578703   1 Fe s                98      0.484487   9 O  s         


 center of mass
 --------------
 x =  -0.00000000 y =  -0.00000000 z =   0.00000000

 moments of inertia (a.u.)
 ------------------
        2255.012792094188           0.000000000000           0.000000000000
           0.000000000000        2255.012792094188           0.000000000000
           0.000000000000           0.000000000000        1950.260605202691

  Mulliken analysis of the total density
  --------------------------------------

    Atom       Charge   Shell Charges
 -----------   ------   -------------------------------------------------------
    1 Fe  26    25.25   1.99  2.01  6.00  1.68  5.97 -0.05  0.99  0.09  0.12  3.00  3.45
    2 C    6     5.71   1.99  0.46  1.31  1.10  0.85
    3 C    6     5.71   1.99  0.46  1.31  1.10  0.85
    4 O    8     8.47   1.99  0.44  2.07  1.57  2.41
    5 O    8     8.47   1.99  0.44  2.07  1.57  2.41
    6 C    6     5.63   1.99  0.45  1.31  1.01  0.87
    7 C    6     5.63   1.99  0.45  1.31  1.01  0.87
    8 C    6     5.63   1.99  0.45  1.31  1.01  0.87
    9 O    8     8.50   1.99  0.44  2.07  1.57  2.42
   10 O    8     8.50   1.99  0.44  2.07  1.57  2.42
   11 O    8     8.50   1.99  0.44  2.07  1.57  2.42

       Multipole analysis of the density wrt the origin
       ------------------------------------------------

     L   x y z        total         open         nuclear
     -   - - -        -----         ----         -------
     0   0 0 0     -0.000000      0.000000     96.000000

     1   1 0 0      0.000000      0.000000     -0.000000
     1   0 1 0     -0.000000      0.000000     -0.000000
     1   0 0 1      0.000000      0.000000      0.000000

     2   2 0 0    -57.470433      0.000000    487.686157
     2   1 1 0     -0.000000      0.000000     -0.000000
     2   1 0 1      0.000000      0.000000     -0.000000
     2   0 2 0    -57.470433      0.000000    487.686157
     2   0 1 1      0.000000      0.000000      0.000000
     2   0 0 2    -55.298866      0.000000    640.100373


 Task  times  cpu:        3.2s     wall:        3.3s


                                NWChem Input Module
                                -------------------


 Summary of allocated global arrays
-----------------------------------
  No active global arrays



                         GA Statistics for process    0
                         ------------------------------

       create   destroy   get      put      acc     scatter   gather  read&inc
calls: 2831     2831     5.70e+04 2.13e+04 7.90e+04    0        0     6056     
number of processes/call 1.37e+00 1.32e+00 1.02e+00 0.00e+00 0.00e+00
bytes total:             2.17e+08 7.17e+07 1.26e+08 0.00e+00 0.00e+00 4.84e+04
bytes remote:            1.36e+08 1.68e+07 7.42e+07 0.00e+00 0.00e+00 0.00e+00
Max memory consumed for GA by this process: 404736 bytes

MA_summarize_allocated_blocks: starting scan ...
MA_summarize_allocated_blocks: scan completed: 0 heap blocks, 0 stack blocks
MA usage statistics:

	allocation statistics:
					      heap	     stack
					      ----	     -----
	current number of blocks	         0	         0
	maximum number of blocks	        18	        14
	current total bytes		         0	         0
	maximum total bytes		  12517872	  22512216
	maximum total K-bytes		     12518	     22513
	maximum total M-bytes		        13	        23


                                     CITATION
                                     --------
                Please cite the following reference when publishing
                           results obtained with NWChem:

                 M. Valiev, E.J. Bylaska, N. Govind, K. Kowalski,
              T.P. Straatsma, H.J.J. van Dam, D. Wang, J. Nieplocha,
                        E. Apra, T.L. Windus, W.A. de Jong
                 "NWChem: a comprehensive and scalable open-source
                  solution for large scale molecular simulations"
                      Comput. Phys. Commun. 181, 1477 (2010)
                           doi:10.1016/j.cpc.2010.04.018

                                      AUTHORS
                                      -------
          E. Apra, E. J. Bylaska, W. A. de Jong, N. Govind, K. Kowalski,
       T. P. Straatsma, M. Valiev, H. J. J. van Dam, D. Wang, T. L. Windus,
        J. Hammond, J. Autschbach, K. Bhaskaran-Nair, J. Brabec, K. Lopata,
    S. A. Fischer, S. Krishnamoorthy, M. Jacquelin, W. Ma, M. Klemm, O. Villa,
      Y. Chen, V. Anisimov, F. Aquino, S. Hirata, M. T. Hackler, V. Konjkov,
            D. Mejia-Rodriguez, T. Risthaus, M. Malagoli, A. Marenich,
   A. Otero-de-la-Roza, J. Mullin, P. Nichols, R. Peverati, J. Pittner, Y. Zhao,
        P.-D. Fan, A. Fonari, M. J. Williamson, R. J. Harrison, J. R. Rehr,
      M. Dupuis, D. Silverstein, D. M. A. Smith, J. Nieplocha, V. Tipparaju,
    M. Krishnan, B. E. Van Kuiken, A. Vazquez-Mayagoitia, L. Jensen, M. Swart,
      Q. Wu, T. Van Voorhis, A. A. Auer, M. Nooijen, L. D. Crosby, E. Brown,
      G. Cisneros, G. I. Fann, H. Fruchtl, J. Garza, K. Hirao, R. A. Kendall,
      J. A. Nichols, K. Tsemekhman, K. Wolinski, J. Anchell, D. E. Bernholdt,
      P. Borowski, T. Clark, D. Clerc, H. Dachsel, M. J. O. Deegan, K. Dyall,
    D. Elwood, E. Glendening, M. Gutowski, A. C. Hess, J. Jaffe, B. G. Johnson,
     J. Ju, R. Kobayashi, R. Kutteh, Z. Lin, R. Littlefield, X. Long, B. Meng,
      T. Nakajima, S. Niu, L. Pollack, M. Rosing, K. Glaesemann, G. Sandrone,
      M. Stave, H. Taylor, G. Thomas, J. H. van Lenthe, A. T. Wong, Z. Zhang.

 Total times  cpu:        6.9s     wall:        7.2s
[0] ARMCI Warning: Freed 1 leaked allocations
