 argument  1 = /home/list1234/source/nwchem-6.8.1-release/QA/tests/tagcheck/tagcheck.nw



============================== echo of input deck ==============================
echo
start tagbug

title "tag matching check with ECPs"
basis noprint
  Ca      library "lanl2dz ecp"
  F       library "6-31g"
  H       library "sto-3g"
end
ecp noprint
  CA      library "lanl2dz ecp"
end
geometry noautoz
  symmetry d2h
  h  0. 0. 2.77715371
  F  0. 0. 1.81331659
  cA 0.0 0. 0.
end
scf;noprint "final vectors analysis";end
task scf gradient
unset scf*
basis noprint
  Ca      library "lanl2dz ecp"
  F       library "6-31g"
  H       library "sto-3g"
end
ecp noprint
  Ca      library "lanl2dz ecp"
end
geometry noautoz
  symmetry d2h
  h  0. 0. 2.77715371
  F  0. 0. 1.81331659
  cA 0.0 0. 0.
end
scf;noprint "final vectors analysis";end
task scf gradient
================================================================================


                                         
                                         


              Northwest Computational Chemistry Package (NWChem) 6.8
              ------------------------------------------------------


                    Environmental Molecular Sciences Laboratory
                       Pacific Northwest National Laboratory
                                Richland, WA 99352

                              Copyright (c) 1994-2018
                       Pacific Northwest National Laboratory
                            Battelle Memorial Institute

             NWChem is an open-source computational chemistry package
                        distributed under the terms of the
                      Educational Community License (ECL) 2.0
             A copy of the license is included with this distribution
                              in the LICENSE.TXT file

                                  ACKNOWLEDGMENT
                                  --------------

            This software and its documentation were developed at the
            EMSL at Pacific Northwest National Laboratory, a multiprogram
            national laboratory, operated for the U.S. Department of Energy
            by Battelle under Contract Number DE-AC05-76RL01830. Support
            for this work was provided by the Department of Energy Office
            of Biological and Environmental Research, Office of Basic
            Energy Sciences, and the Office of Advanced Scientific Computing.


           Job information
           ---------------

    hostname        = list1234-B360M-H
    program         = /home/list1234/source/nwchem-6.8.1-release/bin/LINUX64/nwchem
    date            = Sun Jun 30 12:37:54 2019

    compiled        = Sun_Jun_30_11:55:59_2019
    source          = /home/list1234/source/nwchem-6.8.1-release
    nwchem branch   = Development
    nwchem revision = N/A
    ga revision     = 5.6.5
    use scalapack   = T
    input           = /home/list1234/source/nwchem-6.8.1-release/QA/tests/tagcheck/tagcheck.nw
    prefix          = tagbug.
    data base       = ./tagbug.db
    status          = startup
    nproc           =        4
    time left       =     -1s



           Memory information
           ------------------

    heap     =   86247162 doubles =    658.0 Mbytes
    stack    =   86247167 doubles =    658.0 Mbytes
    global   =  172494336 doubles =   1316.0 Mbytes (distinct from heap & stack)
    total    =  344988665 doubles =   2632.1 Mbytes
    verify   = yes
    hardfail = no 


           Directory information
           ---------------------

  0 permanent = .
  0 scratch   = .




                                NWChem Input Module
                                -------------------


                           tag matching check with ECPs
                           ----------------------------

 **** WARNING Zero Coefficient **** on atom "              Ca"
 angular momentum value: 0  standard basis set name: "lanl2dz ecp"
 input line that generated warning:
   314:       0.1447000              0.0000000              1.0251221
  

 Scaling coordinates for geometry "geometry" by  1.889725989
 (inverse scale =  0.529177249)

 Turning off AUTOSYM since
 SYMMETRY directive was detected!



                             Geometry "geometry" -> ""
                             -------------------------

 Output coordinates in angstroms (scale by  1.889725989 to convert to a.u.)

  No.       Tag          Charge          X              Y              Z
 ---- ---------------- ---------- -------------- -------------- --------------
    1 h                    1.0000     0.00000000     0.00000000     2.77715371
    2 h                    1.0000     0.00000000     0.00000000    -2.77715371
    3 F                    9.0000     0.00000000     0.00000000     1.81331659
    4 F                    9.0000     0.00000000     0.00000000    -1.81331659
    5 cA                  20.0000     0.00000000     0.00000000     0.00000000

      Atomic Mass 
      ----------- 

      h                  1.007825
      F                 18.998400
      cA                39.962590


 Effective nuclear repulsion energy (a.u.)     136.5519706625

            Nuclear Dipole moment (a.u.) 
            ----------------------------
        X                 Y               Z
 ---------------- ---------------- ----------------
     0.0000000000     0.0000000000     0.0000000000

      Symmetry information
      --------------------

 Group name             D2h       
 Group number             26
 Group order               8
 No. of unique centers     3

      Symmetry unique atoms

     1    3    5


            XYZ format geometry
            -------------------
     5
 geometry
 h                     0.00000000     0.00000000     2.77715371
 h                     0.00000000     0.00000000    -2.77715371
 F                     0.00000000     0.00000000     1.81331659
 F                     0.00000000     0.00000000    -1.81331659
 cA                    0.00000000     0.00000000     0.00000000

 ==============================================================================
                                internuclear distances
 ------------------------------------------------------------------------------
       center one      |      center two      | atomic units |  angstroms
 ------------------------------------------------------------------------------
    3 F                |   1 h                |     1.82139  |     0.96384
    4 F                |   2 h                |     1.82139  |     0.96384
    5 cA               |   3 F                |     3.42667  |     1.81332
    5 cA               |   4 F                |     3.42667  |     1.81332
 ------------------------------------------------------------------------------
                         number of included internuclear distances:          4
 ==============================================================================



 ==============================================================================
                                 internuclear angles
 ------------------------------------------------------------------------------
        center 1       |       center 2       |       center 3       |  degrees
 ------------------------------------------------------------------------------
    1 h                |   3 F                |   5 cA               |   180.00
    2 h                |   4 F                |   5 cA               |   180.00
    3 F                |   5 cA               |   4 F                |   180.00
 ------------------------------------------------------------------------------
                            number of included internuclear angles:          3
 ==============================================================================



                                 NWChem SCF Module
                                 -----------------


                           tag matching check with ECPs



  ao basis        = "ao basis"
  functions       =    32
  atoms           =     5
  closed shells   =    15
  open shells     =     0
  charge          =   0.00
  wavefunction    = RHF 
  input vectors   = atomic
  output vectors  = ./tagbug.movecs
  use symmetry    = T
  symmetry adapt  = T


 Summary of "ao basis" -> "ao basis" (cartesian)
 ------------------------------------------------------------------------------
       Tag                 Description            Shells   Functions and Types
 ---------------- ------------------------------  ------  ---------------------
 Ca                       lanl2dz ecp                6       12   3s3p
 F                           6-31g                   5        9   3s2p
 H                           sto-3g                  1        1   1s


      Symmetry analysis of basis
      --------------------------

        ag          9
        au          0
        b1g         0
        b1u         9
        b2g         2
        b2u         5
        b3g         2
        b3u         5


 Forming initial guess at       0.0s


      Superposition of Atomic Density Guess
      -------------------------------------

 Sum of atomic energies:        -242.89114331

      Non-variational initial energy
      ------------------------------

 Total energy =    -236.286776
 1-e energy   =    -496.893835
 2-e energy   =     180.395130
 HOMO         =      -0.139601
 LUMO         =       0.030316


      Symmetry analysis of molecular orbitals - initial
      -------------------------------------------------


 !! scf_movecs_sym_adapt:   14 vectors were symmetry contaminated

  Symmetry fudging

 !! scf_movecs_sym_adapt:   14 vectors were symmetry contaminated

  Numbering of irreducible representations: 

     1 ag          2 au          3 b1g         4 b1u         5 b2g     
     6 b2u         7 b3g         8 b3u     

  Orbital symmetries:

     1 ag          2 b1u         3 ag          4 b1u         5 ag      
     6 b1u         7 b2u         8 b3u         9 ag         10 b1u     
    11 b2g        12 b3g        13 b3u        14 b2u        15 ag      
    16 b3u        17 b2u        18 b1u        19 b3u        20 b2u     
    21 b1u        22 ag         23 b1u        24 b2g        25 b3g     


 Starting SCF solution at       0.1s



 ----------------------------------------------
         Quadratically convergent ROHF

 Convergence threshold     :          1.000E-04
 Maximum no. of iterations :           30
 Final Fock-matrix accuracy:          1.000E-07
 ----------------------------------------------


 #quartets = 7.437D+03 #integrals = 2.238D+04 #direct =  0.0% #cached =100.0%


 Integral file          = ./tagbug.aoints.0
 Record size in doubles =  65536        No. of integs per rec  =  43688
 Max. records in memory =      2        Max. records in file   = 161723
 No. of bits per label  =      8        No. of bits per value  =     64


File balance: exchanges=     0  moved=     0  time=   0.0


              iter       energy          gnorm     gmax       time
             ----- ------------------- --------- --------- --------
                 1     -235.9825480485  7.93D-01  3.65D-01      0.2
                 2     -236.0168945017  2.25D-01  7.59D-02      0.2
                 3     -236.0206055469  1.79D-02  6.64D-03      0.2
                 4     -236.0206290550  1.59D-04  8.48D-05      0.2
                 5     -236.0206290567  8.41D-06  4.19D-06      0.2


       Final RHF  results 
       ------------------ 

         Total SCF energy =   -236.020629056662
      One-electron energy =   -498.606770828329
      Two-electron energy =    182.374212489565
 Nuclear repulsion energy =     80.211929282103

        Time for solution =      0.1s



       Symmetry analysis of molecular orbitals - final
       -----------------------------------------------

  Numbering of irreducible representations: 

     1 ag          2 au          3 b1g         4 b1u         5 b2g     
     6 b2u         7 b3g         8 b3u     

  Orbital symmetries:

     1 b1u         2 ag          3 ag          4 b1u         5 ag      
     6 b1u         7 b2u         8 b3u         9 ag         10 b1u     
    11 b2g        12 b3g        13 b3u        14 b2u        15 ag      
    16 b1u        17 b2u        18 b3u        19 b2u        20 b3u     
    21 b1u        22 ag         23 b1u        24 b2g        25 b3g     

             Final eigenvalues
             -----------------

              1      
    1  -26.3763
    2  -26.3763
    3   -2.1562
    4   -1.7160
    5   -1.6881
    6   -1.2943
    7   -1.2673
    8   -1.2673
    9   -0.8737
   10   -0.7978
   11   -0.7503
   12   -0.7503
   13   -0.7453
   14   -0.7453
   15   -0.1247
   16    0.0342
   17    0.0457
   18    0.0457
   19    0.2163
   20    0.2163
   21    0.2830
   22    0.3946
   23    0.4626
   24    1.3695
   25    1.3695

 center of mass
 --------------
 x =   0.00000000 y =   0.00000000 z =   0.00000000

 moments of inertia (a.u.)
 ------------------
         501.676661422715           0.000000000000           0.000000000000
           0.000000000000         501.676661422715           0.000000000000
           0.000000000000           0.000000000000           0.000000000000

  Mulliken analysis of the total density
  --------------------------------------

    Atom       Charge   Shell Charges
 -----------   ------   -------------------------------------------------------
    1 H    1     0.51   0.51
    2 H    1     0.51   0.51
    3 F    9     9.46   2.00  0.95  3.32  0.96  2.23
    4 F    9     9.46   2.00  0.95  3.32  0.96  2.23
    5 Ca  10    10.07   2.01  0.26  1.78  5.99  0.03 -0.00

       Multipole analysis of the density wrt the origin
       ------------------------------------------------

     L   x y z        total         open         nuclear
     -   - - -        -----         ----         -------
     0   0 0 0      0.000000      0.000000     30.000000

     1   1 0 0      0.000000      0.000000      0.000000
     1   0 1 0     -0.000000      0.000000      0.000000
     1   0 0 1     -0.000000      0.000000      0.000000

     2   2 0 0    -29.330393      0.000000      0.000000
     2   1 1 0     -0.000000      0.000000      0.000000
     2   1 0 1      0.000000      0.000000      0.000000
     2   0 2 0    -29.330393      0.000000      0.000000
     2   0 1 1      0.000000      0.000000      0.000000
     2   0 0 2     -8.308192      0.000000    266.441652


 Parallel integral file used       4 records with       0 large values

                              NWChem Gradients Module
                              -----------------------


                           tag matching check with ECPs


  wavefunction    =   RHF     

  Using symmetry


                         RHF ENERGY GRADIENTS

    atom               coordinates                        gradient
                 x          y          z           x          y          z
   1 h       0.000000   0.000000   5.248060    0.000000   0.000000  -0.005189
   2 h       0.000000   0.000000  -5.248060    0.000000   0.000000   0.005189
   3 F       0.000000   0.000000   3.426671    0.000000   0.000000  -0.181727
   4 F       0.000000   0.000000  -3.426671    0.000000  -0.000000   0.181727
   5 cA      0.000000   0.000000   0.000000    0.000000   0.000000   0.000000

                 ----------------------------------------
                 |  Time  |  1-e(secs)   |  2-e(secs)   |
                 ----------------------------------------
                 |  CPU   |       0.02   |       0.04   |
                 ----------------------------------------
                 |  WALL  |       0.02   |       0.04   |
                 ----------------------------------------

 Task  times  cpu:        0.2s     wall:        0.2s


                                NWChem Input Module
                                -------------------


  unset: scf:nopen
  unset: scf:nclosed
  unset: scf:nmo
  unset: scf:dipole
  unset: scf:output vectors
  unset: scf:input vectors
  unset: scf:converged
  unset: scf:nelec
  unset: scf:scftype
  unset: scf:gradient
  unset: scf:noprint
  unset: scf:energy
  unset: scf:alpha irreps

 **** WARNING Zero Coefficient **** on atom "              Ca"
 angular momentum value: 0  standard basis set name: "lanl2dz ecp"
 input line that generated warning:
   314:       0.1447000              0.0000000              1.0251221
  

 Scaling coordinates for geometry "geometry" by  1.889725989
 (inverse scale =  0.529177249)

 Turning off AUTOSYM since
 SYMMETRY directive was detected!



                         Geometry "geometry" -> "        "
                         ---------------------------------

 Output coordinates in angstroms (scale by  1.889725989 to convert to a.u.)

  No.       Tag          Charge          X              Y              Z
 ---- ---------------- ---------- -------------- -------------- --------------
    1 h                    1.0000     0.00000000     0.00000000     2.77715371
    2 h                    1.0000     0.00000000     0.00000000    -2.77715371
    3 F                    9.0000     0.00000000     0.00000000     1.81331659
    4 F                    9.0000     0.00000000     0.00000000    -1.81331659
    5 cA                  20.0000     0.00000000     0.00000000     0.00000000

      Atomic Mass 
      ----------- 

      h                  1.007825
      F                 18.998400
      cA                39.962590


 Effective nuclear repulsion energy (a.u.)     136.5519706625

            Nuclear Dipole moment (a.u.) 
            ----------------------------
        X                 Y               Z
 ---------------- ---------------- ----------------
     0.0000000000     0.0000000000     0.0000000000

      Symmetry information
      --------------------

 Group name             D2h       
 Group number             26
 Group order               8
 No. of unique centers     3

      Symmetry unique atoms

     1    3    5


            XYZ format geometry
            -------------------
     5
 geometry
 h                     0.00000000     0.00000000     2.77715371
 h                     0.00000000     0.00000000    -2.77715371
 F                     0.00000000     0.00000000     1.81331659
 F                     0.00000000     0.00000000    -1.81331659
 cA                    0.00000000     0.00000000     0.00000000

 ==============================================================================
                                internuclear distances
 ------------------------------------------------------------------------------
       center one      |      center two      | atomic units |  angstroms
 ------------------------------------------------------------------------------
    3 F                |   1 h                |     1.82139  |     0.96384
    4 F                |   2 h                |     1.82139  |     0.96384
    5 cA               |   3 F                |     3.42667  |     1.81332
    5 cA               |   4 F                |     3.42667  |     1.81332
 ------------------------------------------------------------------------------
                         number of included internuclear distances:          4
 ==============================================================================



 ==============================================================================
                                 internuclear angles
 ------------------------------------------------------------------------------
        center 1       |       center 2       |       center 3       |  degrees
 ------------------------------------------------------------------------------
    1 h                |   3 F                |   5 cA               |   180.00
    2 h                |   4 F                |   5 cA               |   180.00
    3 F                |   5 cA               |   4 F                |   180.00
 ------------------------------------------------------------------------------
                            number of included internuclear angles:          3
 ==============================================================================



                                 NWChem SCF Module
                                 -----------------


                           tag matching check with ECPs



  ao basis        = "ao basis"
  functions       =    32
  atoms           =     5
  closed shells   =    15
  open shells     =     0
  charge          =   0.00
  wavefunction    = RHF 
  input vectors   = atomic
  output vectors  = ./tagbug.movecs
  use symmetry    = T
  symmetry adapt  = T


 Summary of "ao basis" -> "ao basis" (cartesian)
 ------------------------------------------------------------------------------
       Tag                 Description            Shells   Functions and Types
 ---------------- ------------------------------  ------  ---------------------
 Ca                       lanl2dz ecp                6       12   3s3p
 F                           6-31g                   5        9   3s2p
 H                           sto-3g                  1        1   1s


      Symmetry analysis of basis
      --------------------------

        ag          9
        au          0
        b1g         0
        b1u         9
        b2g         2
        b2u         5
        b3g         2
        b3u         5


 Forming initial guess at       0.3s


      Superposition of Atomic Density Guess
      -------------------------------------

 Sum of atomic energies:        -242.89114331

      Non-variational initial energy
      ------------------------------

 Total energy =    -236.286776
 1-e energy   =    -496.893835
 2-e energy   =     180.395130
 HOMO         =      -0.139601
 LUMO         =       0.030316


      Symmetry analysis of molecular orbitals - initial
      -------------------------------------------------


 !! scf_movecs_sym_adapt:   14 vectors were symmetry contaminated

  Symmetry fudging

 !! scf_movecs_sym_adapt:   12 vectors were symmetry contaminated

  Numbering of irreducible representations: 

     1 ag          2 au          3 b1g         4 b1u         5 b2g     
     6 b2u         7 b3g         8 b3u     

  Orbital symmetries:

     1 ag          2 b1u         3 ag          4 b1u         5 ag      
     6 b1u         7 b2u         8 b3u         9 ag         10 b1u     
    11 b2g        12 b3g        13 b3u        14 b2u        15 ag      
    16 b2u        17 b3u        18 b1u        19 b2u        20 b3u     
    21 b1u        22 ag         23 b1u        24 b2g        25 b3g     


 Starting SCF solution at       0.3s



 ----------------------------------------------
         Quadratically convergent ROHF

 Convergence threshold     :          1.000E-04
 Maximum no. of iterations :           30
 Final Fock-matrix accuracy:          1.000E-07
 ----------------------------------------------


 #quartets = 7.437D+03 #integrals = 2.238D+04 #direct =  0.0% #cached =100.0%


 Integral file          = ./tagbug.aoints.0
 Record size in doubles =  65536        No. of integs per rec  =  43688
 Max. records in memory =      2        Max. records in file   = 161723
 No. of bits per label  =      8        No. of bits per value  =     64


File balance: exchanges=     0  moved=     0  time=   0.0


              iter       energy          gnorm     gmax       time
             ----- ------------------- --------- --------- --------
                 1     -235.9825480485  7.93D-01  3.65D-01      0.4
                 2     -236.0168945017  2.25D-01  7.59D-02      0.4
                 3     -236.0206055469  1.79D-02  6.64D-03      0.4
                 4     -236.0206290550  1.59D-04  8.48D-05      0.4
                 5     -236.0206290567  8.41D-06  4.19D-06      0.5


       Final RHF  results 
       ------------------ 

         Total SCF energy =   -236.020629056662
      One-electron energy =   -498.606770828330
      Two-electron energy =    182.374212489565
 Nuclear repulsion energy =     80.211929282103

        Time for solution =      0.1s



       Symmetry analysis of molecular orbitals - final
       -----------------------------------------------

  Numbering of irreducible representations: 

     1 ag          2 au          3 b1g         4 b1u         5 b2g     
     6 b2u         7 b3g         8 b3u     

  Orbital symmetries:

     1 b1u         2 ag          3 ag          4 b1u         5 ag      
     6 b1u         7 b2u         8 b3u         9 ag         10 b1u     
    11 b2g        12 b3g        13 b3u        14 b2u        15 ag      
    16 b1u        17 b2u        18 b3u        19 b2u        20 b3u     
    21 b1u        22 ag         23 b1u        24 b2g        25 b3g     

             Final eigenvalues
             -----------------

              1      
    1  -26.3763
    2  -26.3763
    3   -2.1562
    4   -1.7160
    5   -1.6881
    6   -1.2943
    7   -1.2673
    8   -1.2673
    9   -0.8737
   10   -0.7978
   11   -0.7503
   12   -0.7503
   13   -0.7453
   14   -0.7453
   15   -0.1247
   16    0.0342
   17    0.0457
   18    0.0457
   19    0.2163
   20    0.2163
   21    0.2830
   22    0.3946
   23    0.4626
   24    1.3695
   25    1.3695

 center of mass
 --------------
 x =   0.00000000 y =   0.00000000 z =   0.00000000

 moments of inertia (a.u.)
 ------------------
         501.676661422715           0.000000000000           0.000000000000
           0.000000000000         501.676661422715           0.000000000000
           0.000000000000           0.000000000000           0.000000000000

  Mulliken analysis of the total density
  --------------------------------------

    Atom       Charge   Shell Charges
 -----------   ------   -------------------------------------------------------
    1 H    1     0.51   0.51
    2 H    1     0.51   0.51
    3 F    9     9.46   2.00  0.95  3.32  0.96  2.23
    4 F    9     9.46   2.00  0.95  3.32  0.96  2.23
    5 Ca  10    10.07   2.01  0.26  1.78  5.99  0.03 -0.00

       Multipole analysis of the density wrt the origin
       ------------------------------------------------

     L   x y z        total         open         nuclear
     -   - - -        -----         ----         -------
     0   0 0 0      0.000000      0.000000     30.000000

     1   1 0 0     -0.000000      0.000000      0.000000
     1   0 1 0      0.000000      0.000000      0.000000
     1   0 0 1      0.000000      0.000000      0.000000

     2   2 0 0    -29.330393      0.000000      0.000000
     2   1 1 0     -0.000000      0.000000      0.000000
     2   1 0 1     -0.000000      0.000000      0.000000
     2   0 2 0    -29.330393      0.000000      0.000000
     2   0 1 1     -0.000000      0.000000      0.000000
     2   0 0 2     -8.308192      0.000000    266.441652


 Parallel integral file used       4 records with       0 large values

                              NWChem Gradients Module
                              -----------------------


                           tag matching check with ECPs


  wavefunction    =   RHF     

  Using symmetry


                         RHF ENERGY GRADIENTS

    atom               coordinates                        gradient
                 x          y          z           x          y          z
   1 h       0.000000   0.000000   5.248060    0.000000   0.000000  -0.005189
   2 h       0.000000   0.000000  -5.248060    0.000000   0.000000   0.005189
   3 F       0.000000   0.000000   3.426671    0.000000   0.000000  -0.181727
   4 F       0.000000   0.000000  -3.426671    0.000000   0.000000   0.181727
   5 cA      0.000000   0.000000   0.000000    0.000000   0.000000   0.000000

                 ----------------------------------------
                 |  Time  |  1-e(secs)   |  2-e(secs)   |
                 ----------------------------------------
                 |  CPU   |       0.02   |       0.04   |
                 ----------------------------------------
                 |  WALL  |       0.02   |       0.04   |
                 ----------------------------------------

 Task  times  cpu:        0.2s     wall:        0.2s


                                NWChem Input Module
                                -------------------


 Summary of allocated global arrays
-----------------------------------
  No active global arrays



                         GA Statistics for process    0
                         ------------------------------

       create   destroy   get      put      acc     scatter   gather  read&inc
calls:  737      737     9861     2216     5542        0        0      507     
number of processes/call 1.16e+00 1.19e+00 1.11e+00 0.00e+00 0.00e+00
bytes total:             6.50e+06 2.80e+06 2.31e+06 0.00e+00 0.00e+00 4.06e+03
bytes remote:            2.58e+06 4.61e+05 1.72e+06 0.00e+00 0.00e+00 0.00e+00
Max memory consumed for GA by this process: 61784 bytes

MA_summarize_allocated_blocks: starting scan ...
MA_summarize_allocated_blocks: scan completed: 0 heap blocks, 0 stack blocks
MA usage statistics:

	allocation statistics:
					      heap	     stack
					      ----	     -----
	current number of blocks	         0	         0
	maximum number of blocks	        35	        29
	current total bytes		         0	         0
	maximum total bytes		   1075288	  22509912
	maximum total K-bytes		      1076	     22510
	maximum total M-bytes		         2	        23


                                     CITATION
                                     --------
                Please cite the following reference when publishing
                           results obtained with NWChem:

                 M. Valiev, E.J. Bylaska, N. Govind, K. Kowalski,
              T.P. Straatsma, H.J.J. van Dam, D. Wang, J. Nieplocha,
                        E. Apra, T.L. Windus, W.A. de Jong
                 "NWChem: a comprehensive and scalable open-source
                  solution for large scale molecular simulations"
                      Comput. Phys. Commun. 181, 1477 (2010)
                           doi:10.1016/j.cpc.2010.04.018

                                      AUTHORS
                                      -------
          E. Apra, E. J. Bylaska, W. A. de Jong, N. Govind, K. Kowalski,
       T. P. Straatsma, M. Valiev, H. J. J. van Dam, D. Wang, T. L. Windus,
        J. Hammond, J. Autschbach, K. Bhaskaran-Nair, J. Brabec, K. Lopata,
    S. A. Fischer, S. Krishnamoorthy, M. Jacquelin, W. Ma, M. Klemm, O. Villa,
      Y. Chen, V. Anisimov, F. Aquino, S. Hirata, M. T. Hackler, V. Konjkov,
            D. Mejia-Rodriguez, T. Risthaus, M. Malagoli, A. Marenich,
   A. Otero-de-la-Roza, J. Mullin, P. Nichols, R. Peverati, J. Pittner, Y. Zhao,
        P.-D. Fan, A. Fonari, M. J. Williamson, R. J. Harrison, J. R. Rehr,
      M. Dupuis, D. Silverstein, D. M. A. Smith, J. Nieplocha, V. Tipparaju,
    M. Krishnan, B. E. Van Kuiken, A. Vazquez-Mayagoitia, L. Jensen, M. Swart,
      Q. Wu, T. Van Voorhis, A. A. Auer, M. Nooijen, L. D. Crosby, E. Brown,
      G. Cisneros, G. I. Fann, H. Fruchtl, J. Garza, K. Hirao, R. A. Kendall,
      J. A. Nichols, K. Tsemekhman, K. Wolinski, J. Anchell, D. E. Bernholdt,
      P. Borowski, T. Clark, D. Clerc, H. Dachsel, M. J. O. Deegan, K. Dyall,
    D. Elwood, E. Glendening, M. Gutowski, A. C. Hess, J. Jaffe, B. G. Johnson,
     J. Ju, R. Kobayashi, R. Kutteh, Z. Lin, R. Littlefield, X. Long, B. Meng,
      T. Nakajima, S. Niu, L. Pollack, M. Rosing, K. Glaesemann, G. Sandrone,
      M. Stave, H. Taylor, G. Thomas, J. H. van Lenthe, A. T. Wong, Z. Zhang.

 Total times  cpu:        0.4s     wall:        0.5s
[0] ARMCI Warning: Freed 1 leaked allocations
