 argument  1 = /home/list1234/source/nwchem-6.8.1-release/QA/tests/dielsalder/dielsalder.nw



============================== echo of input deck ==============================
echo
start diels-alder-dat

title "parent diels-alder - constrained geometry optimization + saddle search"

# tests constrained optimization, saddle search,
# use of constraints with symmetry

# norbornene = -269.369082   r = 1.56877

geometry autosym  # Equil nonbornene geometry
  C   -0.56970319    -1.24200248     0.66145412
  C   -0.56970319    -1.24200248    -0.66145412
  C    0.30163937    -0.07585222     1.13282212
  C    0.30163937    -0.07585222    -1.13282212
  C    1.36288212    -0.05150460     0.00000000
  C   -0.51211483     1.21947833     0.78501047
  C   -0.51211483     1.21947833    -0.78501047
  H    0.66051824    -0.12617315    -2.14778696
  H    0.66051824    -0.12617315     2.14778696
  H    1.96152178     0.85159285     0.00000000
  H   -1.51147362     1.18303369    -1.19517710
  H   -1.51147362     1.18303369     1.19517710
  H   -1.13480012    -1.87777806    -1.31030500
  H   -1.13480012    -1.87777806     1.31030500
  H    1.99285293    -0.93012745     0.00000000
  H   -0.01020068     2.09823148     1.17132500
  H   -0.01020068     2.09823148    -1.17132500
end

basis
  c library 3-21g
  h library 3-21g
end

scf; print low; thresh 1e-8; end

geometry adjust  # move to guess geometry & apply constraints
  zcoord
    bond 6 3 2.2 r constant
    bond 7 4 2.2 r constant
  end
end

#pause
task scf optimize  # relax with constraints

geometry adjust  # release constraints
  zcoord
    bond 6 3 2.2 r
    bond 7 4 2.2 r
  end
end

task scf saddle  # go for the TS



================================================================================


                                         
                                         


              Northwest Computational Chemistry Package (NWChem) 6.8
              ------------------------------------------------------


                    Environmental Molecular Sciences Laboratory
                       Pacific Northwest National Laboratory
                                Richland, WA 99352

                              Copyright (c) 1994-2018
                       Pacific Northwest National Laboratory
                            Battelle Memorial Institute

             NWChem is an open-source computational chemistry package
                        distributed under the terms of the
                      Educational Community License (ECL) 2.0
             A copy of the license is included with this distribution
                              in the LICENSE.TXT file

                                  ACKNOWLEDGMENT
                                  --------------

            This software and its documentation were developed at the
            EMSL at Pacific Northwest National Laboratory, a multiprogram
            national laboratory, operated for the U.S. Department of Energy
            by Battelle under Contract Number DE-AC05-76RL01830. Support
            for this work was provided by the Department of Energy Office
            of Biological and Environmental Research, Office of Basic
            Energy Sciences, and the Office of Advanced Scientific Computing.


           Job information
           ---------------

    hostname        = list1234-B360M-H
    program         = /home/list1234/source/nwchem-6.8.1-release/bin/LINUX64/nwchem
    date            = Sun Jun 30 12:46:14 2019

    compiled        = Sun_Jun_30_11:55:59_2019
    source          = /home/list1234/source/nwchem-6.8.1-release
    nwchem branch   = Development
    nwchem revision = N/A
    ga revision     = 5.6.5
    use scalapack   = T
    input           = /home/list1234/source/nwchem-6.8.1-release/QA/tests/dielsalder/dielsalder.nw
    prefix          = diels-alder-dat.
    data base       = ./diels-alder-dat.db
    status          = startup
    nproc           =        4
    time left       =     -1s



           Memory information
           ------------------

    heap     =   86247162 doubles =    658.0 Mbytes
    stack    =   86247167 doubles =    658.0 Mbytes
    global   =  172494336 doubles =   1316.0 Mbytes (distinct from heap & stack)
    total    =  344988665 doubles =   2632.1 Mbytes
    verify   = yes
    hardfail = no 


           Directory information
           ---------------------

  0 permanent = .
  0 scratch   = .




                                NWChem Input Module
                                -------------------


      parent diels-alder - constrained geometry optimization + saddle search
      ----------------------------------------------------------------------

 Scaling coordinates for geometry "geometry" by  1.889725989
 (inverse scale =  0.529177249)

 CS  symmetry detected

          ------
          auto-z
          ------
  no constraints, skipping    0.0000000000000000     
  no constraints, skipping    0.0000000000000000     


                             Geometry "geometry" -> ""
                             -------------------------

 Output coordinates in angstroms (scale by  1.889725989 to convert to a.u.)

  No.       Tag          Charge          X              Y              Z
 ---- ---------------- ---------- -------------- -------------- --------------
    1 C                    6.0000    -0.51736776     1.27307394     0.66145412
    2 C                    6.0000    -0.51736776     1.27307394    -0.66145412
    3 C                    6.0000     0.32721991     0.08740284     1.13282212
    4 C                    6.0000     0.32721991     0.08740284    -1.13282212
    5 C                    6.0000     1.38763410     0.03891873     0.00000000
    6 C                    6.0000    -0.51579187    -1.18907994     0.78501047
    7 C                    6.0000    -0.51579187    -1.18907994    -0.78501047
    8 H                    1.0000     0.68715068     0.12954641    -2.14778696
    9 H                    1.0000     0.68715068     0.12954641     2.14778696
   10 H                    1.0000     1.96557378    -0.87756377     0.00000000
   11 H                    1.0000    -1.51406292    -1.12990977    -1.19517710
   12 H                    1.0000    -1.51406292    -1.12990977     1.19517710
   13 H                    1.0000    -1.06785483     1.92154068    -1.31030500
   14 H                    1.0000    -1.06785483     1.92154068     1.31030500
   15 H                    1.0000     2.03743015     0.90298264     0.00000000
   16 H                    1.0000    -0.03399885    -2.07902398     1.17132500
   17 H                    1.0000    -0.03399885    -2.07902398    -1.17132500

      Atomic Mass 
      ----------- 

      C                 12.000000
      H                  1.007825


 Effective nuclear repulsion energy (a.u.)     307.7650672208

            Nuclear Dipole moment (a.u.) 
            ----------------------------
        X                 Y               Z
 ---------------- ---------------- ----------------
    -0.0000000000     0.0000000000     0.0000000000

      Symmetry information
      --------------------

 Group name             Cs        
 Group number              2
 Group order               2
 No. of unique centers    10

      Symmetry unique atoms

     1    3    5    6    8   10   11   13   15   16



                                Z-matrix (autoz)
                                -------- 

 Units are Angstrom for bonds and degrees for angles

      Type          Name      I     J     K     L     M      Value
      ----------- --------  ----- ----- ----- ----- ----- ----------
    1 Stretch                  1     2                       1.32291
    2 Stretch                  1     3                       1.53014
    3 Stretch                  1    14                       1.06984
    4 Stretch                  2     4                       1.53014
    5 Stretch                  2    13                       1.06984
    6 Stretch                  3     5                       1.55245
    7 Stretch                  3     6                       1.56877
    8 Stretch                  3     9                       1.07772
    9 Stretch                  4     5                       1.55245
   10 Stretch                  4     7                       1.56877
   11 Stretch                  4     8                       1.07772
   12 Stretch                  5    10                       1.08349
   13 Stretch                  5    15                       1.08113
   14 Stretch                  6     7                       1.57002
   15 Stretch                  6    12                       1.08087
   16 Stretch                  6    16                       1.08322
   17 Stretch                  7    11                       1.08087
   18 Stretch                  7    17                       1.08322
   19 Bend                     1     2     4               107.94207
   20 Bend                     1     2    13               127.33648
   21 Bend                     1     3     5               100.16232
   22 Bend                     1     3     6               105.40226
   23 Bend                     1     3     9               116.36955
   24 Bend                     2     1     3               107.94207
   25 Bend                     2     1    14               127.33648
   26 Bend                     2     4     5               100.16232
   27 Bend                     2     4     7               105.40226
   28 Bend                     2     4     8               116.36955
   29 Bend                     3     1    14               124.53172
   30 Bend                     3     5     4                93.72208
   31 Bend                     3     5    10               113.00194
   32 Bend                     3     5    15               112.67976
   33 Bend                     3     6     7               102.80945
   34 Bend                     3     6    12               111.56934
   35 Bend                     3     6    16               110.51296
   36 Bend                     4     2    13               124.53172
   37 Bend                     4     5    10               113.00194
   38 Bend                     4     5    15               112.67976
   39 Bend                     4     7     6               102.80945
   40 Bend                     4     7    11               111.56934
   41 Bend                     4     7    17               110.51296
   42 Bend                     5     3     6               100.36170
   43 Bend                     5     3     9               117.40683
   44 Bend                     5     4     7               100.36170
   45 Bend                     5     4     8               117.40683
   46 Bend                     6     3     9               114.84000
   47 Bend                     6     7    11               112.30134
   48 Bend                     6     7    17               110.89372
   49 Bend                     7     4     8               114.84000
   50 Bend                     7     6    12               112.30134
   51 Bend                     7     6    16               110.89372
   52 Bend                    10     5    15               110.82020
   53 Bend                    11     7    17               108.68887
   54 Bend                    12     6    16               108.68887
   55 Torsion                  1     2     4     5         -33.14770
   56 Torsion                  1     2     4     7          70.67490
   57 Torsion                  1     2     4     8        -160.79608
   58 Torsion                  1     3     5     4         -49.53416
   59 Torsion                  1     3     5    10        -166.47232
   60 Torsion                  1     3     5    15          66.95082
   61 Torsion                  1     3     6     7          67.02536
   62 Torsion                  1     3     6    12         -53.52845
   63 Torsion                  1     3     6    16        -174.57842
   64 Torsion                  2     1     3     5          33.14770
   65 Torsion                  2     1     3     6         -70.67490
   66 Torsion                  2     1     3     9         160.79608
   67 Torsion                  2     4     5     3          49.53416
   68 Torsion                  2     4     5    10         166.47232
   69 Torsion                  2     4     5    15         -66.95082
   70 Torsion                  2     4     7     6         -67.02536
   71 Torsion                  2     4     7    11          53.52845
   72 Torsion                  2     4     7    17         174.57842
   73 Torsion                  3     1     2     4           0.00000
   74 Torsion                  3     1     2    13         175.13525
   75 Torsion                  3     5     4     7         -58.34889
   76 Torsion                  3     5     4     8         176.49217
   77 Torsion                  3     6     7     4           0.00000
   78 Torsion                  3     6     7    11        -120.04937
   79 Torsion                  3     6     7    17         118.12854
   80 Torsion                  4     2     1    14        -175.13525
   81 Torsion                  4     5     3     6          58.34889
   82 Torsion                  4     5     3     9        -176.49217
   83 Torsion                  4     7     6    12         120.04937
   84 Torsion                  4     7     6    16        -118.12854
   85 Torsion                  5     3     1    14        -151.54703
   86 Torsion                  5     3     6     7         -36.64972
   87 Torsion                  5     3     6    12        -157.20353
   88 Torsion                  5     3     6    16          81.74650
   89 Torsion                  5     4     2    13         151.54703
   90 Torsion                  5     4     7     6          36.64972
   91 Torsion                  5     4     7    11         157.20353
   92 Torsion                  5     4     7    17         -81.74650
   93 Torsion                  6     3     1    14         104.63036
   94 Torsion                  6     3     5    10         -58.58927
   95 Torsion                  6     3     5    15         174.83387
   96 Torsion                  6     7     4     8         163.53982
   97 Torsion                  7     4     2    13        -104.63036
   98 Torsion                  7     4     5    10          58.58927
   99 Torsion                  7     4     5    15        -174.83387
  100 Torsion                  7     6     3     9        -163.53982
  101 Torsion                  8     4     2    13          23.89866
  102 Torsion                  8     4     5    10         -66.56967
  103 Torsion                  8     4     5    15          60.00719
  104 Torsion                  8     4     7    11         -75.90637
  105 Torsion                  8     4     7    17          45.14360
  106 Torsion                  9     3     1    14         -23.89866
  107 Torsion                  9     3     5    10          66.56967
  108 Torsion                  9     3     5    15         -60.00719
  109 Torsion                  9     3     6    12          75.90637
  110 Torsion                  9     3     6    16         -45.14360
  111 Torsion                 11     7     6    12           0.00000
  112 Torsion                 11     7     6    16         121.82209
  113 Torsion                 12     6     7    17        -121.82209
  114 Torsion                 13     2     1    14           0.00000
  115 Torsion                 16     6     7    17           0.00000


            XYZ format geometry
            -------------------
    17
 geometry
 C                    -0.51736776     1.27307394     0.66145412
 C                    -0.51736776     1.27307394    -0.66145412
 C                     0.32721991     0.08740284     1.13282212
 C                     0.32721991     0.08740284    -1.13282212
 C                     1.38763410     0.03891873     0.00000000
 C                    -0.51579187    -1.18907994     0.78501047
 C                    -0.51579187    -1.18907994    -0.78501047
 H                     0.68715068     0.12954641    -2.14778696
 H                     0.68715068     0.12954641     2.14778696
 H                     1.96557378    -0.87756377     0.00000000
 H                    -1.51406292    -1.12990977    -1.19517710
 H                    -1.51406292    -1.12990977     1.19517710
 H                    -1.06785483     1.92154068    -1.31030500
 H                    -1.06785483     1.92154068     1.31030500
 H                     2.03743015     0.90298264     0.00000000
 H                    -0.03399885    -2.07902398     1.17132500
 H                    -0.03399885    -2.07902398    -1.17132500

 ==============================================================================
                                internuclear distances
 ------------------------------------------------------------------------------
       center one      |      center two      | atomic units |  angstroms
 ------------------------------------------------------------------------------
    2 C                |   1 C                |     2.49993  |     1.32291
    3 C                |   1 C                |     2.89155  |     1.53014
    4 C                |   2 C                |     2.89155  |     1.53014
    5 C                |   3 C                |     2.93371  |     1.55245
    5 C                |   4 C                |     2.93371  |     1.55245
    6 C                |   3 C                |     2.96455  |     1.56877
    7 C                |   4 C                |     2.96455  |     1.56877
    7 C                |   6 C                |     2.96691  |     1.57002
    8 H                |   4 C                |     2.03660  |     1.07772
    9 H                |   3 C                |     2.03660  |     1.07772
   10 H                |   5 C                |     2.04750  |     1.08349
   11 H                |   7 C                |     2.04255  |     1.08087
   12 H                |   6 C                |     2.04255  |     1.08087
   13 H                |   2 C                |     2.02170  |     1.06984
   14 H                |   1 C                |     2.02170  |     1.06984
   15 H                |   5 C                |     2.04304  |     1.08113
   16 H                |   6 C                |     2.04699  |     1.08322
   17 H                |   7 C                |     2.04699  |     1.08322
 ------------------------------------------------------------------------------
                         number of included internuclear distances:         18
 ==============================================================================



 ==============================================================================
                                 internuclear angles
 ------------------------------------------------------------------------------
        center 1       |       center 2       |       center 3       |  degrees
 ------------------------------------------------------------------------------
    2 C                |   1 C                |   3 C                |   107.94
    2 C                |   1 C                |  14 H                |   127.34
    3 C                |   1 C                |  14 H                |   124.53
    1 C                |   2 C                |   4 C                |   107.94
    1 C                |   2 C                |  13 H                |   127.34
    4 C                |   2 C                |  13 H                |   124.53
    1 C                |   3 C                |   5 C                |   100.16
    1 C                |   3 C                |   6 C                |   105.40
    1 C                |   3 C                |   9 H                |   116.37
    5 C                |   3 C                |   6 C                |   100.36
    5 C                |   3 C                |   9 H                |   117.41
    6 C                |   3 C                |   9 H                |   114.84
    2 C                |   4 C                |   5 C                |   100.16
    2 C                |   4 C                |   7 C                |   105.40
    2 C                |   4 C                |   8 H                |   116.37
    5 C                |   4 C                |   7 C                |   100.36
    5 C                |   4 C                |   8 H                |   117.41
    7 C                |   4 C                |   8 H                |   114.84
    3 C                |   5 C                |   4 C                |    93.72
    3 C                |   5 C                |  10 H                |   113.00
    3 C                |   5 C                |  15 H                |   112.68
    4 C                |   5 C                |  10 H                |   113.00
    4 C                |   5 C                |  15 H                |   112.68
   10 H                |   5 C                |  15 H                |   110.82
    3 C                |   6 C                |   7 C                |   102.81
    3 C                |   6 C                |  12 H                |   111.57
    3 C                |   6 C                |  16 H                |   110.51
    7 C                |   6 C                |  12 H                |   112.30
    7 C                |   6 C                |  16 H                |   110.89
   12 H                |   6 C                |  16 H                |   108.69
    4 C                |   7 C                |   6 C                |   102.81
    4 C                |   7 C                |  11 H                |   111.57
    4 C                |   7 C                |  17 H                |   110.51
    6 C                |   7 C                |  11 H                |   112.30
    6 C                |   7 C                |  17 H                |   110.89
   11 H                |   7 C                |  17 H                |   108.69
 ------------------------------------------------------------------------------
                            number of included internuclear angles:         36
 ==============================================================================



                      Basis "ao basis" -> "" (cartesian)
                      -----
  c (Carbon)
  ----------
            Exponent  Coefficients 
       -------------- ---------------------------------------------------------
  1 S  1.72256000E+02  0.061767
  1 S  2.59109000E+01  0.358794
  1 S  5.53335000E+00  0.700713

  2 S  3.66498000E+00 -0.395897
  2 S  7.70545000E-01  1.215840

  3 P  3.66498000E+00  0.236460
  3 P  7.70545000E-01  0.860619

  4 S  1.95857000E-01  1.000000

  5 P  1.95857000E-01  1.000000

  h (Hydrogen)
  ------------
            Exponent  Coefficients 
       -------------- ---------------------------------------------------------
  1 S  5.44717800E+00  0.156285
  1 S  8.24547000E-01  0.904691

  2 S  1.83192000E-01  1.000000



 Summary of "ao basis" -> "" (cartesian)
 ------------------------------------------------------------------------------
       Tag                 Description            Shells   Functions and Types
 ---------------- ------------------------------  ------  ---------------------
 c                           3-21g                   5        9   3s2p
 h                           3-21g                   2        2   2s



 Adjusting existing geometry named geometry

 User specification of redundant internal variables 
 --------------------------------------------------

   i   j   k   l     value       name   frz
  --- --- --- --- ------------ -------- ---
    6   3             2.200000 r          T
    7   4             2.200000 r          T

 CS  symmetry detected

          ------
          auto-z
          ------


                         Geometry "geometry" -> "geometry"
                         ---------------------------------

 Output coordinates in angstroms (scale by  1.889725989 to convert to a.u.)

  No.       Tag          Charge          X              Y              Z
 ---- ---------------- ---------- -------------- -------------- --------------
    1 C                    6.0000    -0.41904559    -1.44953632     0.67734149
    2 C                    6.0000    -0.41904559    -1.44953632    -0.67734149
    3 C                    6.0000     0.44229648    -0.27204472     1.17092544
    4 C                    6.0000     0.44229648    -0.27204472    -1.17092544
    5 C                    6.0000     1.51608289    -0.23897588     0.00000000
    6 C                    6.0000    -0.72826300     1.54114217     0.74414235
    7 C                    6.0000    -0.72826300     1.54114217    -0.74414235
    8 H                    1.0000     0.80872035    -0.32844533    -2.18291716
    9 H                    1.0000     0.80872035    -0.32844533     2.18291716
   10 H                    1.0000     2.11535824     0.66383296     0.00000000
   11 H                    1.0000    -1.72307844     1.49097324    -1.16387690
   12 H                    1.0000    -1.72307844     1.49097324     1.16387690
   13 H                    1.0000    -0.97168042    -2.10072291    -1.32163625
   14 H                    1.0000    -0.97168042    -2.10072291     1.32163625
   15 H                    1.0000     2.14194744    -1.12071655     0.00000000
   16 H                    1.0000    -0.23503031     2.42084465     1.13952538
   17 H                    1.0000    -0.23503031     2.42084465    -1.13952538

      Atomic Mass 
      ----------- 

      C                 12.000000
      H                  1.007825


 Effective nuclear repulsion energy (a.u.)     283.8696947119

            Nuclear Dipole moment (a.u.) 
            ----------------------------
        X                 Y               Z
 ---------------- ---------------- ----------------
     1.2311943983    -2.0611357947     0.0000000000

      Symmetry information
      --------------------

 Group name             Cs        
 Group number              2
 Group order               2
 No. of unique centers    10

      Symmetry unique atoms

     1    3    5    6    8   10   11   13   15   16



                                Z-matrix (autoz)
                                -------- 

 Units are Angstrom for bonds and degrees for angles

  Constants are marked with an asterisk (*).

  Constrained variables are marked with a plus sign (+).


      Type          Name      I     J     K     L     M      Value
      ----------- --------  ----- ----- ----- ----- ----- ----------
    1 Stretch                  1     2                       1.35468
    2 Stretch                  1     3                       1.54014
    3 Stretch                  1    14                       1.06984
    4 Stretch                  2     4                       1.54014
    5 Stretch                  2    13                       1.06984
    6*Stretch      r           3     6                       2.20000
    7 Stretch                  3     5                       1.58908
    8 Stretch                  3     9                       1.07776
    9*Stretch      r           4     7                       2.20000
   10 Stretch                  4     5                       1.58908
   11 Stretch                  4     8                       1.07776
   12 Stretch                  5    10                       1.08360
   13 Stretch                  5    15                       1.08128
   14 Stretch                  6     7                       1.48828
   15 Stretch                  6    12                       1.08090
   16 Stretch                  6    16                       1.08327
   17 Stretch                  7    11                       1.08090
   18 Stretch                  7    17                       1.08327
   19 Bend                     1     2     4               108.69199
   20 Bend                     1     2    13               127.02998
   21 Bend                     1     3     6               105.68649
   22 Bend                     1     3     5                99.07177
   23 Bend                     1     3     9               116.81139
   24 Bend                     2     1     3               108.69199
   25 Bend                     2     1    14               127.02998
   26 Bend                     2     4     7               105.68649
   27 Bend                     2     4     5                99.07177
   28 Bend                     2     4     8               116.81139
   29 Bend                     3     6     7               101.18586
   30 Bend                     3     6    12               112.09306
   31 Bend                     3     6    16               110.86873
   32 Bend                     3     1    14               124.14171
   33 Bend                     3     5     4                94.92876
   34 Bend                     3     5    10               113.01938
   35 Bend                     3     5    15               111.97197
   36 Bend                     4     7     6               101.18586
   37 Bend                     4     7    11               112.09306
   38 Bend                     4     7    17               110.86873
   39 Bend                     4     2    13               124.14171
   40 Bend                     4     5    10               113.01938
   41 Bend                     4     5    15               111.97197
   42 Bend                     5     3     6               101.50425
   43 Bend                     5     3     9               117.59643
   44 Bend                     5     4     7               101.50425
   45 Bend                     5     4     8               117.59643
   46 Bend                     6     3     9               113.96513
   47 Bend                     6     7    11               112.84990
   48 Bend                     6     7    17               111.40690
   49 Bend                     7     4     8               113.96513
   50 Bend                     7     6    12               112.84990
   51 Bend                     7     6    16               111.40690
   52 Bend                    10     5    15               111.05685
   53 Bend                    11     7    17               108.36160
   54 Bend                    12     6    16               108.36160
   55 Torsion                  1     2     4     7         -72.07754
   56 Torsion                  1     2     4     5          32.67355
   57 Torsion                  1     2     4     8         159.99661
   58 Torsion                  1     3     6     7         -66.74282
   59 Torsion                  1     3     6    12          53.75301
   60 Torsion                  1     3     6    16         174.99109
   61 Torsion                  1     3     5     4          49.14970
   62 Torsion                  1     3     5    10         166.73640
   63 Torsion                  1     3     5    15         -66.93805
   64 Torsion                  2     1     3     6          72.07754
   65 Torsion                  2     1     3     5         -32.67355
   66 Torsion                  2     1     3     9        -159.99661
   67 Torsion                  2     4     7     6          66.74282
   68 Torsion                  2     4     7    11         -53.75301
   69 Torsion                  2     4     7    17        -174.99109
   70 Torsion                  2     4     5     3         -49.14970
   71 Torsion                  2     4     5    10        -166.73640
   72 Torsion                  2     4     5    15          66.93805
   73 Torsion                  3     6     7     4           0.00000
   74 Torsion                  3     6     7    11         119.95853
   75 Torsion                  3     6     7    17        -117.87594
   76 Torsion                  3     1     2     4           0.00000
   77 Torsion                  3     1     2    13        -175.86582
   78 Torsion                  3     5     4     7          59.02462
   79 Torsion                  3     5     4     8        -175.93835
   80 Torsion                  4     7     6    12        -119.95853
   81 Torsion                  4     7     6    16         117.87594
   82 Torsion                  4     2     1    14         175.86582
   83 Torsion                  4     5     3     6         -59.02462
   84 Torsion                  4     5     3     9         175.93835
   85 Torsion                  5     3     6     7          36.21811
   86 Torsion                  5     3     6    12         156.71394
   87 Torsion                  5     3     6    16         -82.04798
   88 Torsion                  5     3     1    14         151.31388
   89 Torsion                  5     4     7     6         -36.21811
   90 Torsion                  5     4     7    11        -156.71394
   91 Torsion                  5     4     7    17          82.04798
   92 Torsion                  5     4     2    13        -151.31388
   93 Torsion                  6     3     1    14        -103.93503
   94 Torsion                  6     3     5    10          58.56209
   95 Torsion                  6     3     5    15        -175.11236
   96 Torsion                  6     7     4     8        -163.64907
   97 Torsion                  7     4     2    13         103.93503
   98 Torsion                  7     4     5    10         -58.56209
   99 Torsion                  7     4     5    15         175.11236
  100 Torsion                  7     6     3     9         163.64907
  101 Torsion                  8     4     7    11          75.85510
  102 Torsion                  8     4     7    17         -45.38298
  103 Torsion                  8     4     2    13         -23.99082
  104 Torsion                  8     4     5    10          66.47495
  105 Torsion                  8     4     5    15         -59.85060
  106 Torsion                  9     3     6    12         -75.85510
  107 Torsion                  9     3     6    16          45.38298
  108 Torsion                  9     3     1    14          23.99082
  109 Torsion                  9     3     5    10         -66.47495
  110 Torsion                  9     3     5    15          59.85060
  111 Torsion                 11     7     6    12           0.00000
  112 Torsion                 11     7     6    16        -122.16553
  113 Torsion                 12     6     7    17         122.16553
  114 Torsion                 13     2     1    14           0.00000
  115 Torsion                 16     6     7    17           0.00000


            XYZ format geometry
            -------------------
    17
 geometry
 C                    -0.41904559    -1.44953632     0.67734149
 C                    -0.41904559    -1.44953632    -0.67734149
 C                     0.44229648    -0.27204472     1.17092544
 C                     0.44229648    -0.27204472    -1.17092544
 C                     1.51608289    -0.23897588     0.00000000
 C                    -0.72826300     1.54114217     0.74414235
 C                    -0.72826300     1.54114217    -0.74414235
 H                     0.80872035    -0.32844533    -2.18291716
 H                     0.80872035    -0.32844533     2.18291716
 H                     2.11535824     0.66383296     0.00000000
 H                    -1.72307844     1.49097324    -1.16387690
 H                    -1.72307844     1.49097324     1.16387690
 H                    -0.97168042    -2.10072291    -1.32163625
 H                    -0.97168042    -2.10072291     1.32163625
 H                     2.14194744    -1.12071655     0.00000000
 H                    -0.23503031     2.42084465     1.13952538
 H                    -0.23503031     2.42084465    -1.13952538

 ==============================================================================
                                internuclear distances
 ------------------------------------------------------------------------------
       center one      |      center two      | atomic units |  angstroms
 ------------------------------------------------------------------------------
    2 C                |   1 C                |     2.55998  |     1.35468
    3 C                |   1 C                |     2.91044  |     1.54014
    4 C                |   2 C                |     2.91044  |     1.54014
    5 C                |   3 C                |     3.00293  |     1.58908
    5 C                |   4 C                |     3.00293  |     1.58908
    7 C                |   6 C                |     2.81245  |     1.48828
    8 H                |   4 C                |     2.03668  |     1.07776
    9 H                |   3 C                |     2.03668  |     1.07776
   10 H                |   5 C                |     2.04771  |     1.08360
   11 H                |   7 C                |     2.04261  |     1.08090
   12 H                |   6 C                |     2.04261  |     1.08090
   13 H                |   2 C                |     2.02171  |     1.06984
   14 H                |   1 C                |     2.02171  |     1.06984
   15 H                |   5 C                |     2.04333  |     1.08128
   16 H                |   6 C                |     2.04709  |     1.08327
   17 H                |   7 C                |     2.04709  |     1.08327
 ------------------------------------------------------------------------------
                         number of included internuclear distances:         16
 ==============================================================================



 ==============================================================================
                                 internuclear angles
 ------------------------------------------------------------------------------
        center 1       |       center 2       |       center 3       |  degrees
 ------------------------------------------------------------------------------
    2 C                |   1 C                |   3 C                |   108.69
    2 C                |   1 C                |  14 H                |   127.03
    3 C                |   1 C                |  14 H                |   124.14
    1 C                |   2 C                |   4 C                |   108.69
    1 C                |   2 C                |  13 H                |   127.03
    4 C                |   2 C                |  13 H                |   124.14
    1 C                |   3 C                |   5 C                |    99.07
    1 C                |   3 C                |   9 H                |   116.81
    5 C                |   3 C                |   9 H                |   117.60
    2 C                |   4 C                |   5 C                |    99.07
    2 C                |   4 C                |   8 H                |   116.81
    5 C                |   4 C                |   8 H                |   117.60
    3 C                |   5 C                |   4 C                |    94.93
    3 C                |   5 C                |  10 H                |   113.02
    3 C                |   5 C                |  15 H                |   111.97
    4 C                |   5 C                |  10 H                |   113.02
    4 C                |   5 C                |  15 H                |   111.97
   10 H                |   5 C                |  15 H                |   111.06
    7 C                |   6 C                |  12 H                |   112.85
    7 C                |   6 C                |  16 H                |   111.41
   12 H                |   6 C                |  16 H                |   108.36
    6 C                |   7 C                |  11 H                |   112.85
    6 C                |   7 C                |  17 H                |   111.41
   11 H                |   7 C                |  17 H                |   108.36
 ------------------------------------------------------------------------------
                            number of included internuclear angles:         24
 ==============================================================================





                           NWChem Geometry Optimization
                           ----------------------------




      parent diels-alder - constrained geometry optimization + saddle search


 maximum gradient threshold         (gmax) =   0.000450
 rms gradient threshold             (grms) =   0.000300
 maximum cartesian step threshold   (xmax) =   0.001800
 rms cartesian step threshold       (xrms) =   0.001200
 fixed trust radius                (trust) =   0.300000
 maximum step size to saddle      (sadstp) =   0.100000
 energy precision                  (eprec) =   1.0D-07
 maximum number of steps          (nptopt) =   20
 initial hessian option           (inhess) =    0
 line search option               (linopt) =    1
 hessian update option            (modupd) =    1
 saddle point option              (modsad) =    0
 initial eigen-mode to follow     (moddir) =    0
 initial variable to follow       (vardir) =    0
 follow first negative mode     (firstneg) =    T
 apply conjugacy                    (opcg) =    F
 source of zmatrix                         =   autoz   


          -------------------
          Energy Minimization
          -------------------


 Names of Z-matrix variables 
    1              2              3              4              5         
    6 r            7              8              9 r           10         
   11             12             13             14             15         
   16             17             18             19             20         
   21             22             23             24             25         
   26             27             28             29             30         
   31             32             33             34             35         
   36             37             38             39             40         
   41             42             43             44             45         
   46             47             48             49             50         
   51             52             53             54             55         
   56             57             58             59             60         
   61             62             63             64             65         
   66             67             68             69             70         
   71             72             73             74             75         
   76             77             78             79             80         
   81             82             83             84             85         
   86             87             88             89             90         
   91             92             93             94             95         
   96             97             98             99            100         
  101            102            103            104            105         
  106            107            108            109            110         
  111            112            113            114            115         

 Variables with the same non-blank name are constrained to be equal

     variables named        r =     6    9

 Number of frozen variables =    2
           Frozen variables =    6    9

 Using diagonal initial Hessian 
 Scaling for Hessian diagonals: bonds = 1.00  angles = 0.25  torsions = 0.10

          --------
          Step   0
          --------


                         Geometry "geometry" -> "geometry"
                         ---------------------------------

 Output coordinates in angstroms (scale by  1.889725989 to convert to a.u.)

  No.       Tag          Charge          X              Y              Z
 ---- ---------------- ---------- -------------- -------------- --------------
    1 C                    6.0000    -0.41904559    -1.44953632     0.67734149
    2 C                    6.0000    -0.41904559    -1.44953632    -0.67734149
    3 C                    6.0000     0.44229648    -0.27204472     1.17092544
    4 C                    6.0000     0.44229648    -0.27204472    -1.17092544
    5 C                    6.0000     1.51608289    -0.23897588     0.00000000
    6 C                    6.0000    -0.72826300     1.54114217     0.74414235
    7 C                    6.0000    -0.72826300     1.54114217    -0.74414235
    8 H                    1.0000     0.80872035    -0.32844533    -2.18291716
    9 H                    1.0000     0.80872035    -0.32844533     2.18291716
   10 H                    1.0000     2.11535824     0.66383296     0.00000000
   11 H                    1.0000    -1.72307844     1.49097324    -1.16387690
   12 H                    1.0000    -1.72307844     1.49097324     1.16387690
   13 H                    1.0000    -0.97168042    -2.10072291    -1.32163625
   14 H                    1.0000    -0.97168042    -2.10072291     1.32163625
   15 H                    1.0000     2.14194744    -1.12071655     0.00000000
   16 H                    1.0000    -0.23503031     2.42084465     1.13952538
   17 H                    1.0000    -0.23503031     2.42084465    -1.13952538

      Atomic Mass 
      ----------- 

      C                 12.000000
      H                  1.007825


 Effective nuclear repulsion energy (a.u.)     283.8696947119

            Nuclear Dipole moment (a.u.) 
            ----------------------------
        X                 Y               Z
 ---------------- ---------------- ----------------
     1.2311943983    -2.0611357947     0.0000000000

      Symmetry information
      --------------------

 Group name             Cs        
 Group number              2
 Group order               2
 No. of unique centers    10

      Symmetry unique atoms

     1    3    5    6    8   10   11   13   15   16

                                 NWChem SCF Module
                                 -----------------


      parent diels-alder - constrained geometry optimization + saddle search



  ao basis        = "ao basis"
  functions       =    83
  atoms           =    17
  closed shells   =    26
  open shells     =     0
  charge          =   0.00
  wavefunction    = RHF 
  input vectors   = atomic
  output vectors  = ./diels-alder-dat.movecs
  use symmetry    = T
  symmetry adapt  = T


 Forming initial guess at       0.1s


 Starting SCF solution at       0.1s



       Final RHF  results 
       ------------------ 

         Total SCF energy =   -269.211796662986
      One-electron energy =   -925.208201721386
      Two-electron energy =    372.126710346535
 Nuclear repulsion energy =    283.869694711864

        Time for solution =      0.5s


                              NWChem Gradients Module
                              -----------------------



                         RHF ENERGY GRADIENTS

    atom               coordinates                        gradient
                 x          y          z           x          y          z
   1 C      -0.791881  -2.739226   1.279990   -0.010475  -0.035386   0.006451
   2 C      -0.791881  -2.739226  -1.279990   -0.010475  -0.035386  -0.006451
   3 C       0.835819  -0.514090   2.212728    0.020146   0.003210   0.022877
   4 C       0.835819  -0.514090  -2.212728    0.020146   0.003210  -0.022877
   5 C       2.864981  -0.451599   0.000000    0.047970  -0.050270   0.000000
   6 C      -1.376218   2.912336   1.406225   -0.026509   0.034291   0.007469
   7 C      -1.376218   2.912336  -1.406225   -0.026509   0.034291  -0.007469
   8 H       1.528260  -0.620672  -4.125115    0.005069  -0.006786   0.000350
   9 H       1.528260  -0.620672   4.125115    0.005069  -0.006786  -0.000350
  10 H       3.997447   1.254462   0.000000    0.000500   0.001855   0.000000
  11 H      -3.256146   2.817531  -2.199408   -0.005928   0.016561   0.005945
  12 H      -3.256146   2.817531   2.199408   -0.005928   0.016561  -0.005945
  13 H      -1.836210  -3.969791  -2.497530    0.001141  -0.001004  -0.000590
  14 H      -1.836210  -3.969791   2.497530    0.001141  -0.001004   0.000590
  15 H       4.047694  -2.117847   0.000000    0.005864   0.002069   0.000000
  16 H      -0.444143   4.574733   2.153391   -0.010611   0.012286  -0.006383
  17 H      -0.444143   4.574733  -2.153391   -0.010611   0.012286   0.006383


@ Step       Energy      Delta E   Gmax     Grms     Xrms     Xmax   Walltime
@ ---- ---------------- -------- -------- -------- -------- -------- --------
@    0    -269.21179666  0.0D+00  0.03357  0.00625  0.00000  0.00000      0.8
                                                                    

  Internal coordinate gradient before constraints


                                Z-matrix (autoz)
                                -------- 

 Units are Angstrom for bonds and degrees for angles

  Constants are marked with an asterisk (*).

  Constrained variables are marked with a plus sign (+).


      Type          Name      I     J     K     L     M      Value     Gradient
      ----------- --------  ----- ----- ----- ----- ----- ---------- ----------
    1 Stretch                  1     2                       1.35468    0.01148
    2 Stretch                  1     3                       1.54014    0.03446
    3 Stretch                  1    14                       1.06984    0.00038
    4 Stretch                  2     4                       1.54014    0.03446
    5 Stretch                  2    13                       1.06984    0.00038
    6*Stretch      r           3     6                       2.20000    0.07669
    7 Stretch                  3     5                       1.58908    0.02455
    8 Stretch                  3     9                       1.07776    0.00175
    9*Stretch      r           4     7                       2.20000    0.07669
   10 Stretch                  4     5                       1.58908    0.02455
   11 Stretch                  4     8                       1.07776    0.00175
   12 Stretch                  5    10                       1.08360    0.00182
   13 Stretch                  5    15                       1.08128    0.00171
   14 Stretch                  6     7                       1.48828    0.00417
   15 Stretch                  6    12                       1.08090    0.00238
   16 Stretch                  6    16                       1.08327    0.00282
   17 Stretch                  7    11                       1.08090    0.00238
   18 Stretch                  7    17                       1.08327    0.00282
   19 Bend                     1     2     4               108.69199   -0.00090
   20 Bend                     1     2    13               127.02998    0.00054
   21 Bend                     1     3     6               105.68649    0.00312
   22 Bend                     1     3     5                99.07177   -0.00224
   23 Bend                     1     3     9               116.81139   -0.00194
   24 Bend                     2     1     3               108.69199   -0.00090
   25 Bend                     2     1    14               127.02998    0.00054
   26 Bend                     2     4     7               105.68649    0.00312
   27 Bend                     2     4     5                99.07177   -0.00224
   28 Bend                     2     4     8               116.81139   -0.00194
   29 Bend                     3     6     7               101.18586   -0.00069
   30 Bend                     3     6    12               112.09306    0.00516
   31 Bend                     3     6    16               110.86873    0.00454
   32 Bend                     3     1    14               124.14171    0.00029
   33 Bend                     3     5     4                94.92876   -0.00486
   34 Bend                     3     5    10               113.01938   -0.00155
   35 Bend                     3     5    15               111.97197    0.00485
   36 Bend                     4     7     6               101.18586   -0.00069
   37 Bend                     4     7    11               112.09306    0.00516
   38 Bend                     4     7    17               110.86873    0.00454
   39 Bend                     4     2    13               124.14171    0.00029
   40 Bend                     4     5    10               113.01938   -0.00155
   41 Bend                     4     5    15               111.97197    0.00485
   42 Bend                     5     3     6               101.50425    0.00535
   43 Bend                     5     3     9               117.59643   -0.00325
   44 Bend                     5     4     7               101.50425    0.00535
   45 Bend                     5     4     8               117.59643   -0.00325
   46 Bend                     6     3     9               113.96513    0.00001
   47 Bend                     6     7    11               112.84990   -0.00292
   48 Bend                     6     7    17               111.40690   -0.00304
   49 Bend                     7     4     8               113.96513    0.00001
   50 Bend                     7     6    12               112.84990   -0.00292
   51 Bend                     7     6    16               111.40690   -0.00304
   52 Bend                    10     5    15               111.05685   -0.00177
   53 Bend                    11     7    17               108.36160   -0.00267
   54 Bend                    12     6    16               108.36160   -0.00267
   55 Torsion                  1     2     4     7         -72.07754    0.00025
   56 Torsion                  1     2     4     5          32.67355    0.00596
   57 Torsion                  1     2     4     8         159.99661   -0.00099
   58 Torsion                  1     3     6     7         -66.74282   -0.00020
   59 Torsion                  1     3     6    12          53.75301   -0.00162
   60 Torsion                  1     3     6    16         174.99109    0.00173
   61 Torsion                  1     3     5     4          49.14970    0.00803
   62 Torsion                  1     3     5    10         166.73640    0.00324
   63 Torsion                  1     3     5    15         -66.93805    0.00358
   64 Torsion                  2     1     3     6          72.07754   -0.00025
   65 Torsion                  2     1     3     5         -32.67355   -0.00596
   66 Torsion                  2     1     3     9        -159.99661    0.00099
   67 Torsion                  2     4     7     6          66.74282    0.00020
   68 Torsion                  2     4     7    11         -53.75301    0.00162
   69 Torsion                  2     4     7    17        -174.99109   -0.00173
   70 Torsion                  2     4     5     3         -49.14970   -0.00803
   71 Torsion                  2     4     5    10        -166.73640   -0.00324
   72 Torsion                  2     4     5    15          66.93805   -0.00358
   73 Torsion                  3     6     7     4           0.00000    0.00000
   74 Torsion                  3     6     7    11         119.95853    0.00431
   75 Torsion                  3     6     7    17        -117.87594   -0.00357
   76 Torsion                  3     1     2     4           0.00000    0.00000
   77 Torsion                  3     1     2    13        -175.86582    0.00100
   78 Torsion                  3     5     4     7          59.02462   -0.00411
   79 Torsion                  3     5     4     8        -175.93835   -0.00191
   80 Torsion                  4     7     6    12        -119.95853   -0.00431
   81 Torsion                  4     7     6    16         117.87594    0.00357
   82 Torsion                  4     2     1    14         175.86582   -0.00100
   83 Torsion                  4     5     3     6         -59.02462    0.00411
   84 Torsion                  4     5     3     9         175.93835    0.00191
   85 Torsion                  5     3     6     7          36.21811    0.00003
   86 Torsion                  5     3     6    12         156.71394   -0.00139
   87 Torsion                  5     3     6    16         -82.04798    0.00196
   88 Torsion                  5     3     1    14         151.31388   -0.00501
   89 Torsion                  5     4     7     6         -36.21811   -0.00003
   90 Torsion                  5     4     7    11        -156.71394    0.00139
   91 Torsion                  5     4     7    17          82.04798   -0.00196
   92 Torsion                  5     4     2    13        -151.31388    0.00501
   93 Torsion                  6     3     1    14        -103.93503    0.00070
   94 Torsion                  6     3     5    10          58.56209   -0.00069
   95 Torsion                  6     3     5    15        -175.11236   -0.00034
   96 Torsion                  6     7     4     8        -163.64907    0.00018
   97 Torsion                  7     4     2    13         103.93503   -0.00070
   98 Torsion                  7     4     5    10         -58.56209    0.00069
   99 Torsion                  7     4     5    15         175.11236    0.00034
  100 Torsion                  7     6     3     9         163.64907   -0.00018
  101 Torsion                  8     4     7    11          75.85510    0.00160
  102 Torsion                  8     4     7    17         -45.38298   -0.00175
  103 Torsion                  8     4     2    13         -23.99082   -0.00194
  104 Torsion                  8     4     5    10          66.47495    0.00288
  105 Torsion                  8     4     5    15         -59.85060    0.00254
  106 Torsion                  9     3     6    12         -75.85510   -0.00160
  107 Torsion                  9     3     6    16          45.38298    0.00175
  108 Torsion                  9     3     1    14          23.99082    0.00194
  109 Torsion                  9     3     5    10         -66.47495   -0.00288
  110 Torsion                  9     3     5    15          59.85060   -0.00254
  111 Torsion                 11     7     6    12           0.00000    0.00000
  112 Torsion                 11     7     6    16        -122.16553    0.00788
  113 Torsion                 12     6     7    17         122.16553   -0.00788
  114 Torsion                 13     2     1    14           0.00000   -0.00000
  115 Torsion                 16     6     7    17           0.00000   -0.00000

  Internal coordinate gradient after constraints


                                Z-matrix (autoz)
                                -------- 

 Units are Angstrom for bonds and degrees for angles

  Constants are marked with an asterisk (*).

  Constrained variables are marked with a plus sign (+).


      Type          Name      I     J     K     L     M      Value     Gradient
      ----------- --------  ----- ----- ----- ----- ----- ---------- ----------
    1 Stretch                  1     2                       1.35468    0.00869
    2 Stretch                  1     3                       1.54014    0.03357
    3 Stretch                  1    14                       1.06984    0.00038
    4 Stretch                  2     4                       1.54014    0.03357
    5 Stretch                  2    13                       1.06984    0.00038
    6*Stretch      r           3     6                       2.20000   -0.00000
    7 Stretch                  3     5                       1.58908    0.02123
    8 Stretch                  3     9                       1.07776    0.00175
    9*Stretch      r           4     7                       2.20000    0.00000
   10 Stretch                  4     5                       1.58908    0.02123
   11 Stretch                  4     8                       1.07776    0.00175
   12 Stretch                  5    10                       1.08360    0.00182
   13 Stretch                  5    15                       1.08128    0.00171
   14 Stretch                  6     7                       1.48828    0.01146
   15 Stretch                  6    12                       1.08090    0.00238
   16 Stretch                  6    16                       1.08327    0.00282
   17 Stretch                  7    11                       1.08090    0.00238
   18 Stretch                  7    17                       1.08327    0.00282
   19 Bend                     1     2     4               108.69199   -0.00221
   20 Bend                     1     2    13               127.02998    0.00108
   21 Bend                     1     3     6               105.68649    0.00222
   22 Bend                     1     3     5                99.07177   -0.00032
   23 Bend                     1     3     9               116.81139   -0.00268
   24 Bend                     2     1     3               108.69199   -0.00221
   25 Bend                     2     1    14               127.02998    0.00108
   26 Bend                     2     4     7               105.68649    0.00222
   27 Bend                     2     4     5                99.07177   -0.00032
   28 Bend                     2     4     8               116.81139   -0.00268
   29 Bend                     3     6     7               101.18586    0.00285
   30 Bend                     3     6    12               112.09306    0.00407
   31 Bend                     3     6    16               110.86873    0.00352
   32 Bend                     3     1    14               124.14171    0.00097
   33 Bend                     3     5     4                94.92876   -0.00700
   34 Bend                     3     5    10               113.01938   -0.00159
   35 Bend                     3     5    15               111.97197    0.00611
   36 Bend                     4     7     6               101.18586    0.00285
   37 Bend                     4     7    11               112.09306    0.00407
   38 Bend                     4     7    17               110.86873    0.00352
   39 Bend                     4     2    13               124.14171    0.00097
   40 Bend                     4     5    10               113.01938   -0.00159
   41 Bend                     4     5    15               111.97197    0.00611
   42 Bend                     5     3     6               101.50425    0.00285
   43 Bend                     5     3     9               117.59643   -0.00353
   44 Bend                     5     4     7               101.50425    0.00285
   45 Bend                     5     4     8               117.59643   -0.00353
   46 Bend                     6     3     9               113.96513    0.00217
   47 Bend                     6     7    11               112.84990   -0.00399
   48 Bend                     6     7    17               111.40690   -0.00402
   49 Bend                     7     4     8               113.96513    0.00217
   50 Bend                     7     6    12               112.84990   -0.00399
   51 Bend                     7     6    16               111.40690   -0.00402
   52 Bend                    10     5    15               111.05685   -0.00218
   53 Bend                    11     7    17               108.36160   -0.00203
   54 Bend                    12     6    16               108.36160   -0.00203
   55 Torsion                  1     2     4     7         -72.07754    0.00332
   56 Torsion                  1     2     4     5          32.67355    0.00678
   57 Torsion                  1     2     4     8         159.99661    0.00051
   58 Torsion                  1     3     6     7         -66.74282   -0.00055
   59 Torsion                  1     3     6    12          53.75301   -0.00166
   60 Torsion                  1     3     6    16         174.99109    0.00104
   61 Torsion                  1     3     5     4          49.14970    0.00868
   62 Torsion                  1     3     5    10         166.73640    0.00270
   63 Torsion                  1     3     5    15         -66.93805    0.00349
   64 Torsion                  2     1     3     6          72.07754   -0.00332
   65 Torsion                  2     1     3     5         -32.67355   -0.00678
   66 Torsion                  2     1     3     9        -159.99661   -0.00051
   67 Torsion                  2     4     7     6          66.74282    0.00055
   68 Torsion                  2     4     7    11         -53.75301    0.00166
   69 Torsion                  2     4     7    17        -174.99109   -0.00104
   70 Torsion                  2     4     5     3         -49.14970   -0.00868
   71 Torsion                  2     4     5    10        -166.73640   -0.00270
   72 Torsion                  2     4     5    15          66.93805   -0.00349
   73 Torsion                  3     6     7     4           0.00000   -0.00000
   74 Torsion                  3     6     7    11         119.95853    0.00465
   75 Torsion                  3     6     7    17        -117.87594   -0.00390
   76 Torsion                  3     1     2     4           0.00000   -0.00000
   77 Torsion                  3     1     2    13        -175.86582    0.00238
   78 Torsion                  3     5     4     7          59.02462   -0.00577
   79 Torsion                  3     5     4     8        -175.93835   -0.00294
   80 Torsion                  4     7     6    12        -119.95853   -0.00465
   81 Torsion                  4     7     6    16         117.87594    0.00390
   82 Torsion                  4     2     1    14         175.86582   -0.00238
   83 Torsion                  4     5     3     6         -59.02462    0.00577
   84 Torsion                  4     5     3     9         175.93835    0.00294
   85 Torsion                  5     3     6     7          36.21811    0.00067
   86 Torsion                  5     3     6    12         156.71394   -0.00044
   87 Torsion                  5     3     6    16         -82.04798    0.00226
   88 Torsion                  5     3     1    14         151.31388   -0.00450
   89 Torsion                  5     4     7     6         -36.21811   -0.00067
   90 Torsion                  5     4     7    11        -156.71394    0.00044
   91 Torsion                  5     4     7    17          82.04798   -0.00226
   92 Torsion                  5     4     2    13        -151.31388    0.00450
   93 Torsion                  6     3     1    14        -103.93503   -0.00104
   94 Torsion                  6     3     5    10          58.56209   -0.00020
   95 Torsion                  6     3     5    15        -175.11236    0.00059
   96 Torsion                  6     7     4     8        -163.64907    0.00040
   97 Torsion                  7     4     2    13         103.93503    0.00104
   98 Torsion                  7     4     5    10         -58.56209    0.00020
   99 Torsion                  7     4     5    15         175.11236   -0.00059
  100 Torsion                  7     6     3     9         163.64907   -0.00040
  101 Torsion                  8     4     7    11          75.85510    0.00151
  102 Torsion                  8     4     7    17         -45.38298   -0.00118
  103 Torsion                  8     4     2    13         -23.99082   -0.00178
  104 Torsion                  8     4     5    10          66.47495    0.00304
  105 Torsion                  8     4     5    15         -59.85060    0.00225
  106 Torsion                  9     3     6    12         -75.85510   -0.00151
  107 Torsion                  9     3     6    16          45.38298    0.00118
  108 Torsion                  9     3     1    14          23.99082    0.00178
  109 Torsion                  9     3     5    10         -66.47495   -0.00304
  110 Torsion                  9     3     5    15          59.85060   -0.00225
  111 Torsion                 11     7     6    12           0.00000   -0.00000
  112 Torsion                 11     7     6    16        -122.16553    0.00855
  113 Torsion                 12     6     7    17         122.16553   -0.00855
  114 Torsion                 13     2     1    14           0.00000    0.00000
  115 Torsion                 16     6     7    17           0.00000   -0.00000

 Restricting large step in mode   17 eval= 3.7D-02 step= 5.2D-01 new= 3.0D-01
 Restricting large step in mode   22 eval= 4.0D-02 step=-3.8D-01 new=-3.0D-01
                                 NWChem SCF Module
                                 -----------------


      parent diels-alder - constrained geometry optimization + saddle search



  ao basis        = "ao basis"
  functions       =    83
  atoms           =    17
  closed shells   =    26
  open shells     =     0
  charge          =   0.00
  wavefunction    = RHF 
  input vectors   = ./diels-alder-dat.movecs
  output vectors  = ./diels-alder-dat.movecs
  use symmetry    = T
  symmetry adapt  = T


 Forming initial guess at       0.8s


 Starting SCF solution at       0.8s



       Final RHF  results 
       ------------------ 

         Total SCF energy =   -269.236222571831
      One-electron energy =   -933.644942673165
      Two-electron energy =    376.308198570854
 Nuclear repulsion energy =    288.100521530481

        Time for solution =      0.5s


 Line search: 
     step= 1.00 grad=-3.1D-02 hess= 6.6D-03 energy=   -269.236223 mode=downhill
 new step= 2.36                   predicted energy=   -269.248334

          --------
          Step   1
          --------


                         Geometry "geometry" -> "geometry"
                         ---------------------------------

 Output coordinates in angstroms (scale by  1.889725989 to convert to a.u.)

  No.       Tag          Charge          X              Y              Z
 ---- ---------------- ---------- -------------- -------------- --------------
    1 C                    6.0000    -0.41476626    -1.33640722     0.66528804
    2 C                    6.0000    -0.41476626    -1.33640722    -0.66528804
    3 C                    6.0000     0.46787075    -0.33509650     1.15614632
    4 C                    6.0000     0.46787075    -0.33509650    -1.15614632
    5 C                    6.0000     1.40201596    -0.11963584     0.00000000
    6 C                    6.0000    -0.69368259     1.48436218     0.73145356
    7 C                    6.0000    -0.69368259     1.48436218    -0.73145356
    8 H                    1.0000     0.81811956    -0.38627550    -2.16760723
    9 H                    1.0000     0.81811956    -0.38627550     2.16760723
   10 H                    1.0000     1.95795030     0.80292996     0.00000000
   11 H                    1.0000    -1.63183191     1.36593944    -1.23749873
   12 H                    1.0000    -1.63183191     1.36593944     1.23749873
   13 H                    1.0000    -1.00989778    -1.96074723    -1.29599405
   14 H                    1.0000    -1.00989778    -1.96074723     1.29599405
   15 H                    1.0000     2.03968408    -0.98538449     0.00000000
   16 H                    1.0000    -0.17502359     2.27355105     1.24142384
   17 H                    1.0000    -0.17502359     2.27355105    -1.24142384

      Atomic Mass 
      ----------- 

      C                 12.000000
      H                  1.007825


 Effective nuclear repulsion energy (a.u.)     294.2666943800

            Nuclear Dipole moment (a.u.) 
            ----------------------------
        X                 Y               Z
 ---------------- ---------------- ----------------
     1.3710445160    -1.0601977358     0.0000000000

      Symmetry information
      --------------------

 Group name             Cs        
 Group number              2
 Group order               2
 No. of unique centers    10

      Symmetry unique atoms

     1    3    5    6    8   10   11   13   15   16

                                 NWChem SCF Module
                                 -----------------


      parent diels-alder - constrained geometry optimization + saddle search



  ao basis        = "ao basis"
  functions       =    83
  atoms           =    17
  closed shells   =    26
  open shells     =     0
  charge          =   0.00
  wavefunction    = RHF 
  input vectors   = ./diels-alder-dat.movecs
  output vectors  = ./diels-alder-dat.movecs
  use symmetry    = T
  symmetry adapt  = T


 Forming initial guess at       1.4s


 Starting SCF solution at       1.4s



       Final RHF  results 
       ------------------ 

         Total SCF energy =   -269.247881775316
      One-electron energy =   -945.884901244002
      Two-electron energy =    382.370325088663
 Nuclear repulsion energy =    294.266694380023

        Time for solution =      0.5s


                              NWChem Gradients Module
                              -----------------------



                         RHF ENERGY GRADIENTS

    atom               coordinates                        gradient
                 x          y          z           x          y          z
   1 C      -0.783795  -2.525443   1.257212    0.010763   0.006735  -0.034945
   2 C      -0.783795  -2.525443  -1.257212    0.010763   0.006735   0.034945
   3 C       0.884148  -0.633241   2.184800    0.021787  -0.026185   0.000594
   4 C       0.884148  -0.633241  -2.184800    0.021787  -0.026185  -0.000594
   5 C       2.649426  -0.226079   0.000000   -0.009247  -0.019494   0.000000
   6 C      -1.310870   2.805038   1.382247   -0.011017   0.018058   0.016724
   7 C      -1.310870   2.805038  -1.382247   -0.011017   0.018058  -0.016724
   8 H       1.546022  -0.729955  -4.096184    0.001155  -0.009413   0.001314
   9 H       1.546022  -0.729955   4.096184    0.001155  -0.009413  -0.001314
  10 H       3.699990   1.517318   0.000000   -0.001668   0.000926   0.000000
  11 H      -3.083715   2.581251  -2.338534    0.003190   0.015956  -0.003066
  12 H      -3.083715   2.581251   2.338534    0.003190   0.015956   0.003066
  13 H      -1.908430  -3.705275  -2.449074    0.003315  -0.000571  -0.000371
  14 H      -1.908430  -3.705275   2.449074    0.003315  -0.000571   0.000371
  15 H       3.854444  -1.862107   0.000000   -0.014850   0.003437   0.000000
  16 H      -0.330747   4.296389   2.345951   -0.016311   0.002986   0.003712
  17 H      -0.330747   4.296389  -2.345951   -0.016311   0.002986  -0.003712


  Step       Energy      Delta E   Gmax     Grms     Xrms     Xmax   Walltime
  ---- ---------------- -------- -------- -------- -------- -------- --------
@    1    -269.24788178 -3.6D-02  0.02408  0.00485  0.15304  0.29794      2.1
                                                                    

  Internal coordinate gradient before constraints


                                Z-matrix (autoz)
                                -------- 

 Units are Angstrom for bonds and degrees for angles

  Constants are marked with an asterisk (*).

  Constrained variables are marked with a plus sign (+).


      Type          Name      I     J     K     L     M      Value     Gradient
      ----------- --------  ----- ----- ----- ----- ----- ---------- ----------
    1 Stretch                  1     2                       1.33058   -0.02241
    2 Stretch                  1     3                       1.42219   -0.00888
    3 Stretch                  1    14                       1.06854   -0.00129
    4 Stretch                  2     4                       1.42219   -0.00888
    5 Stretch                  2    13                       1.06854   -0.00129
    6*Stretch      r           3     6                       2.20000    0.04135
    7 Stretch                  3     5                       1.50191   -0.01107
    8 Stretch                  3     9                       1.07161   -0.00041
    9*Stretch      r           4     7                       2.20000    0.04135
   10 Stretch                  4     5                       1.50191   -0.01107
   11 Stretch                  4     8                       1.07161   -0.00041
   12 Stretch                  5    10                       1.07712   -0.00007
   13 Stretch                  5    15                       1.07524   -0.01157
   14 Stretch                  6     7                       1.46291    0.01318
   15 Stretch                  6    12                       1.07249   -0.00311
   16 Stretch                  6    16                       1.07326   -0.00392
   17 Stretch                  7    11                       1.07249   -0.00311
   18 Stretch                  7    17                       1.07326   -0.00392
   19 Bend                     1     2     4               110.19056    0.00569
   20 Bend                     1     2    13               126.17487   -0.00198
   21 Bend                     1     3     6               100.83485    0.00295
   22 Bend                     1     3     5               102.78692   -0.00767
   23 Bend                     1     3     9               119.66917    0.00203
   24 Bend                     2     1     3               110.19056    0.00569
   25 Bend                     2     1    14               126.17487   -0.00198
   26 Bend                     2     4     7               100.83485    0.00295
   27 Bend                     2     4     5               102.78692   -0.00767
   28 Bend                     2     4     8               119.66917    0.00203
   29 Bend                     3     6     7               101.13037   -0.00984
   30 Bend                     3     6    12               106.22679    0.00622
   31 Bend                     3     6    16               105.14443    0.00583
   32 Bend                     3     1    14               123.59501   -0.00357
   33 Bend                     3     5     4               100.66926    0.00387
   34 Bend                     3     5    10               116.35246    0.00030
   35 Bend                     3     5    15               104.67592   -0.00397
   36 Bend                     4     7     6               101.13037   -0.00984
   37 Bend                     4     7    11               106.22679    0.00622
   38 Bend                     4     7    17               105.14443    0.00583
   39 Bend                     4     2    13               123.59501   -0.00357
   40 Bend                     4     5    10               116.35246    0.00030
   41 Bend                     4     5    15               104.67592   -0.00397
   42 Bend                     5     3     6                93.50546    0.00803
   43 Bend                     5     3     9               122.01503    0.00108
   44 Bend                     5     4     7                93.50546    0.00803
   45 Bend                     5     4     8               122.01503    0.00108
   46 Bend                     6     3     9               113.22054   -0.00475
   47 Bend                     6     7    11               118.15396    0.00128
   48 Bend                     6     7    17               118.36965    0.00359
   49 Bend                     7     4     8               113.22054   -0.00475
   50 Bend                     7     6    12               118.15396    0.00128
   51 Bend                     7     6    16               118.36965    0.00359
   52 Bend                    10     5    15               112.55346    0.00270
   53 Bend                    11     7    17               106.24320   -0.00570
   54 Bend                    12     6    16               106.24320   -0.00570
   55 Torsion                  1     2     4     7         -73.75193   -0.00787
   56 Torsion                  1     2     4     5          22.40625   -0.00038
   57 Torsion                  1     2     4     8         161.42619   -0.00537
   58 Torsion                  1     3     6     7         -66.68417    0.00403
   59 Torsion                  1     3     6    12          57.24023    0.00342
   60 Torsion                  1     3     6    16         169.60928    0.00208
   61 Torsion                  1     3     5     4          34.08817   -0.00046
   62 Torsion                  1     3     5    10         160.77288    0.00304
   63 Torsion                  1     3     5    15         -74.32357    0.00362
   64 Torsion                  2     1     3     6          73.75193    0.00787
   65 Torsion                  2     1     3     5         -22.40625    0.00038
   66 Torsion                  2     1     3     9        -161.42619    0.00537
   67 Torsion                  2     4     7     6          66.68417   -0.00403
[...]



                         Geometry "geometry" -> "geometry"
                         ---------------------------------

 Output coordinates in angstroms (scale by  1.889725989 to convert to a.u.)

  No.       Tag          Charge          X              Y              Z
 ---- ---------------- ---------- -------------- -------------- --------------
    1 C                    6.0000    -0.75249272     1.15805382     0.70032331
    2 C                    6.0000    -0.75249272     1.15805382    -0.70032331
    3 C                    6.0000     0.34869668     0.45427286     1.15705753
    4 C                    6.0000     0.34869668     0.45427286    -1.15705753
    5 C                    6.0000     1.32924554     0.37641732     0.00000000
    6 C                    6.0000    -0.31566219    -1.59452054     0.68600873
    7 C                    6.0000    -0.31566219    -1.59452054    -0.68600873
    8 H                    1.0000     0.64690186     0.38239333    -2.18226553
    9 H                    1.0000     0.64690186     0.38239333     2.18226553
   10 H                    1.0000     1.99132678    -0.47256901     0.00000000
   11 H                    1.0000    -1.23605227    -1.53619461    -1.22975868
   12 H                    1.0000    -1.23605227    -1.53619461     1.22975868
   13 H                    1.0000    -1.54502867     1.52898671    -1.31538916
   14 H                    1.0000    -1.54502867     1.52898671     1.31538916
   15 H                    1.0000     1.91763292     1.29510383     0.00000000
   16 H                    1.0000     0.50664265    -2.02414265     1.22622489
   17 H                    1.0000     0.50664265    -2.02414265    -1.22622489

      Atomic Mass 
      ----------- 

      C                 12.000000
      H                  1.007825


 Effective nuclear repulsion energy (a.u.)     296.9233333637

            Nuclear Dipole moment (a.u.) 
            ----------------------------
        X                 Y               Z
 ---------------- ---------------- ----------------
    -0.0078210388    -0.0060509392     0.0000000000

      Symmetry information
      --------------------

 Group name             Cs        
 Group number              2
 Group order               2
 No. of unique centers    10

      Symmetry unique atoms

     1    3    5    6    8   10   11   13   15   16


                Final and change from initial internal coordinates
                --------------------------------------------------



                                Z-matrix (autoz)
                                -------- 

 Units are Angstrom for bonds and degrees for angles

  Constrained variables are marked with a plus sign (+).


      Type          Name      I     J     K     L     M      Value       Change
      ----------- --------  ----- ----- ----- ----- ----- ---------- ----------
    1 Stretch                  1     2                       1.40065    0.00182
    2 Stretch                  1     3                       1.38439   -0.00182
    3 Stretch                  1    14                       1.06958    0.00001
    4 Stretch                  2     4                       1.38439   -0.00182
    5 Stretch                  2    13                       1.06958    0.00001
    6+Stretch      r           3     6                       2.20473    0.00473
    7 Stretch                  3     5                       1.51866   -0.00019
    8 Stretch                  3     9                       1.07011   -0.00005
    9+Stretch      r           4     7                       2.20473    0.00473
   10 Stretch                  4     5                       1.51866   -0.00019
   11 Stretch                  4     8                       1.07011   -0.00005
   12 Stretch                  5    10                       1.07663   -0.00002
   13 Stretch                  5    15                       1.09096    0.00004
   14 Stretch                  6     7                       1.37202   -0.00202
   15 Stretch                  6    12                       1.07060   -0.00003
   16 Stretch                  6    16                       1.07359   -0.00003
   17 Stretch                  7    11                       1.07060   -0.00003
   18 Stretch                  7    17                       1.07359   -0.00003
   19 Bend                     1     2     4               109.26378   -0.00621
   20 Bend                     1     2    13               125.10323   -0.02566
   21 Bend                     1     3     6                99.33664   -0.05530
   22 Bend                     1     3     5               106.75536    0.07277
   23 Bend                     1     3     9               124.88150    0.07430
   24 Bend                     2     1     3               109.26378   -0.00621
   25 Bend                     2     1    14               125.10323   -0.02566
   26 Bend                     2     4     7                99.33664   -0.05530
   27 Bend                     2     4     5               106.75536    0.07277
   28 Bend                     2     4     8               124.88150    0.07430
   29 Bend                     3     6     7               102.33658    0.00445
   30 Bend                     3     6    12                95.73431   -0.20026
   31 Bend                     3     6    16                91.92315   -0.29286
   32 Bend                     3     1    14               125.16833    0.03274
   33 Bend                     3     5     4                99.26311    0.03607
   34 Bend                     3     5    10               115.94353    0.03027
   35 Bend                     3     5    15               107.76170   -0.04658
   36 Bend                     4     7     6               102.33658    0.00445
   37 Bend                     4     7    11                95.73431   -0.20026
   38 Bend                     4     7    17                91.92315   -0.29286
   39 Bend                     4     2    13               125.16833    0.03274
   40 Bend                     4     5    10               115.94353    0.03027
   41 Bend                     4     5    15               107.76170   -0.04658
   42 Bend                     5     3     6                89.09123   -0.14045
   43 Bend                     5     3     9               123.13087    0.02134
   44 Bend                     5     4     7                89.09123   -0.14045
   45 Bend                     5     4     8               123.13087    0.02134
   46 Bend                     6     3     9               103.07586   -0.16566
   47 Bend                     6     7    11               120.52357    0.06355
   48 Bend                     6     7    17               120.21107    0.08271
   49 Bend                     7     4     8               103.07586   -0.16566
   50 Bend                     7     6    12               120.52357    0.06355
   51 Bend                     7     6    16               120.21107    0.08271
   52 Bend                    10     5    15               109.41297   -0.01006
   53 Bend                    11     7    17               115.13241    0.04759
   54 Bend                    12     6    16               115.13241    0.04759
   55 Torsion                  1     2     4     7          73.33204    0.01976
   56 Torsion                  1     2     4     5         -18.54263    0.17264
   57 Torsion                  1     2     4     8        -173.45747   -0.20738
   58 Torsion                  1     3     6     7          67.77730    0.02217
   59 Torsion                  1     3     6    12         -55.21144    0.01931
   60 Torsion                  1     3     6    16        -170.70819    0.02727
   61 Torsion                  1     3     5     4         -27.61275    0.25705
   62 Torsion                  1     3     5    10        -152.52277    0.17793
   63 Torsion                  1     3     5    15          84.52311    0.20670
   64 Torsion                  2     1     3     6         -73.33204   -0.01976
   65 Torsion                  2     1     3     5          18.54263   -0.17264
   66 Torsion                  2     1     3     9         173.45747    0.20738
   67 Torsion                  2     4     7     6         -67.77730   -0.02217
   68 Torsion                  2     4     7    11          55.21144   -0.01931
   69 Torsion                  2     4     7    17         170.70819   -0.02727
   70 Torsion                  2     4     5     3          27.61275   -0.25705
   71 Torsion                  2     4     5    10         152.52277   -0.17793
   72 Torsion                  2     4     5    15         -84.52311   -0.20670
   73 Torsion                  3     6     7     4           0.00000    0.00000
   74 Torsion                  3     6     7    11        -104.34020    0.21744
   75 Torsion                  3     6     7    17          99.61907   -0.32221
   76 Torsion                  3     1     2     4           0.00000    0.00000
   77 Torsion                  3     1     2    13         172.49809    0.00985
   78 Torsion                  3     5     4     7         -71.86553   -0.15943
   79 Torsion                  3     5     4     8        -176.92634    0.13111
   80 Torsion                  4     7     6    12         104.34020   -0.21744
   81 Torsion                  4     7     6    16         -99.61907    0.32221
   82 Torsion                  4     2     1    14        -172.49809   -0.00985
   83 Torsion                  4     5     3     6          71.86553    0.15943
   84 Torsion                  4     5     3     9         176.92634   -0.13111
   85 Torsion                  5     3     6     7         -39.05581   -0.02614
   86 Torsion                  5     3     6    12        -162.04455   -0.02900
   87 Torsion                  5     3     6    16          82.45870   -0.02104
   88 Torsion                  5     3     1    14        -168.96531   -0.16821
   89 Torsion                  5     4     7     6          39.05581    0.02614
   90 Torsion                  5     4     7    11         162.04455    0.02900
   91 Torsion                  5     4     7    17         -82.45870    0.02104
   92 Torsion                  5     4     2    13         168.96531    0.16821
   93 Torsion                  6     3     1    14          99.16001   -0.01533
   94 Torsion                  6     3     5    10         -53.04449    0.08032
   95 Torsion                  6     3     5    15        -175.99861    0.10908
   96 Torsion                  6     7     4     8         162.93808   -0.01303
   97 Torsion                  7     4     2    13         -99.16001    0.01533
   98 Torsion                  7     4     5    10          53.04449   -0.08032
   99 Torsion                  7     4     5    15         175.99861   -0.10908
  100 Torsion                  7     6     3     9        -162.93808    0.01303
  101 Torsion                  8     4     7    11         -74.07318   -0.01016
  102 Torsion                  8     4     7    17          41.42357   -0.01812
  103 Torsion                  8     4     2    13          14.05048   -0.21181
  104 Torsion                  8     4     5    10         -52.01631    0.21023
  105 Torsion                  8     4     5    15          70.93781    0.18146
  106 Torsion                  9     3     6    12          74.07318    0.01016
  107 Torsion                  9     3     6    16         -41.42357    0.01812
  108 Torsion                  9     3     1    14         -14.05048    0.21181
  109 Torsion                  9     3     5    10          52.01631   -0.21023
  110 Torsion                  9     3     5    15         -70.93781   -0.18146
  111 Torsion                 11     7     6    12           0.00000    0.00000
  112 Torsion                 11     7     6    16         156.04073    0.53964
  113 Torsion                 12     6     7    17        -156.04073   -0.53964
  114 Torsion                 13     2     1    14           0.00000    0.00000
  115 Torsion                 16     6     7    17           0.00000    0.00000

 ==============================================================================
                                internuclear distances
 ------------------------------------------------------------------------------
       center one      |      center two      | atomic units |  angstroms
 ------------------------------------------------------------------------------
    2 C                |   1 C                |     2.64684  |     1.40065
    3 C                |   1 C                |     2.61612  |     1.38439
    4 C                |   2 C                |     2.61612  |     1.38439
    5 C                |   3 C                |     2.86985  |     1.51866
    5 C                |   4 C                |     2.86985  |     1.51866
    7 C                |   6 C                |     2.59274  |     1.37202
    8 H                |   4 C                |     2.02222  |     1.07011
    9 H                |   3 C                |     2.02222  |     1.07011
   10 H                |   5 C                |     2.03453  |     1.07663
   11 H                |   7 C                |     2.02314  |     1.07060
   12 H                |   6 C                |     2.02314  |     1.07060
   13 H                |   2 C                |     2.02122  |     1.06958
   14 H                |   1 C                |     2.02122  |     1.06958
   15 H                |   5 C                |     2.06161  |     1.09096
   16 H                |   6 C                |     2.02879  |     1.07359
   17 H                |   7 C                |     2.02879  |     1.07359
 ------------------------------------------------------------------------------
                         number of included internuclear distances:         16
 ==============================================================================



 ==============================================================================
                                 internuclear angles
 ------------------------------------------------------------------------------
        center 1       |       center 2       |       center 3       |  degrees
 ------------------------------------------------------------------------------
    2 C                |   1 C                |   3 C                |   109.26
    2 C                |   1 C                |  14 H                |   125.10
    3 C                |   1 C                |  14 H                |   125.17
    1 C                |   2 C                |   4 C                |   109.26
    1 C                |   2 C                |  13 H                |   125.10
    4 C                |   2 C                |  13 H                |   125.17
    1 C                |   3 C                |   5 C                |   106.76
    1 C                |   3 C                |   9 H                |   124.88
    5 C                |   3 C                |   9 H                |   123.13
    2 C                |   4 C                |   5 C                |   106.76
    2 C                |   4 C                |   8 H                |   124.88
    5 C                |   4 C                |   8 H                |   123.13
    3 C                |   5 C                |   4 C                |    99.26
    3 C                |   5 C                |  10 H                |   115.94
    3 C                |   5 C                |  15 H                |   107.76
    4 C                |   5 C                |  10 H                |   115.94
    4 C                |   5 C                |  15 H                |   107.76
   10 H                |   5 C                |  15 H                |   109.41
    7 C                |   6 C                |  12 H                |   120.52
    7 C                |   6 C                |  16 H                |   120.21
   12 H                |   6 C                |  16 H                |   115.13
    6 C                |   7 C                |  11 H                |   120.52
    6 C                |   7 C                |  17 H                |   120.21
   11 H                |   7 C                |  17 H                |   115.13
 ------------------------------------------------------------------------------
                            number of included internuclear angles:         24
 ==============================================================================




 Task  times  cpu:       13.6s     wall:       14.4s


                                NWChem Input Module
                                -------------------


 Summary of allocated global arrays
-----------------------------------
  No active global arrays



                         GA Statistics for process    0
                         ------------------------------

       create   destroy   get      put      acc     scatter   gather  read&inc
calls: 2.04e+04 2.04e+04 3.87e+05 5.35e+04 2.66e+05    0        0     8.60e+04 
number of processes/call 1.18e+00 1.39e+00 1.06e+00 0.00e+00 0.00e+00
bytes total:             5.80e+08 2.40e+08 2.46e+08 0.00e+00 0.00e+00 6.88e+05
bytes remote:            2.76e+08 4.88e+07 1.21e+08 0.00e+00 0.00e+00 0.00e+00
Max memory consumed for GA by this process: 286880 bytes

MA_summarize_allocated_blocks: starting scan ...
MA_summarize_allocated_blocks: scan completed: 0 heap blocks, 0 stack blocks
MA usage statistics:

	allocation statistics:
					      heap	     stack
					      ----	     -----
	current number of blocks	         0	         0
	maximum number of blocks	        20	        29
	current total bytes		         0	         0
	maximum total bytes		  16807896	  22511320
	maximum total K-bytes		     16808	     22512
	maximum total M-bytes		        17	        23


                                     CITATION
                                     --------
                Please cite the following reference when publishing
                           results obtained with NWChem:

                 M. Valiev, E.J. Bylaska, N. Govind, K. Kowalski,
              T.P. Straatsma, H.J.J. van Dam, D. Wang, J. Nieplocha,
                        E. Apra, T.L. Windus, W.A. de Jong
                 "NWChem: a comprehensive and scalable open-source
                  solution for large scale molecular simulations"
                      Comput. Phys. Commun. 181, 1477 (2010)
                           doi:10.1016/j.cpc.2010.04.018

                                      AUTHORS
                                      -------
          E. Apra, E. J. Bylaska, W. A. de Jong, N. Govind, K. Kowalski,
       T. P. Straatsma, M. Valiev, H. J. J. van Dam, D. Wang, T. L. Windus,
        J. Hammond, J. Autschbach, K. Bhaskaran-Nair, J. Brabec, K. Lopata,
    S. A. Fischer, S. Krishnamoorthy, M. Jacquelin, W. Ma, M. Klemm, O. Villa,
      Y. Chen, V. Anisimov, F. Aquino, S. Hirata, M. T. Hackler, V. Konjkov,
            D. Mejia-Rodriguez, T. Risthaus, M. Malagoli, A. Marenich,
   A. Otero-de-la-Roza, J. Mullin, P. Nichols, R. Peverati, J. Pittner, Y. Zhao,
        P.-D. Fan, A. Fonari, M. J. Williamson, R. J. Harrison, J. R. Rehr,
      M. Dupuis, D. Silverstein, D. M. A. Smith, J. Nieplocha, V. Tipparaju,
    M. Krishnan, B. E. Van Kuiken, A. Vazquez-Mayagoitia, L. Jensen, M. Swart,
      Q. Wu, T. Van Voorhis, A. A. Auer, M. Nooijen, L. D. Crosby, E. Brown,
      G. Cisneros, G. I. Fann, H. Fruchtl, J. Garza, K. Hirao, R. A. Kendall,
      J. A. Nichols, K. Tsemekhman, K. Wolinski, J. Anchell, D. E. Bernholdt,
      P. Borowski, T. Clark, D. Clerc, H. Dachsel, M. J. O. Deegan, K. Dyall,
    D. Elwood, E. Glendening, M. Gutowski, A. C. Hess, J. Jaffe, B. G. Johnson,
     J. Ju, R. Kobayashi, R. Kutteh, Z. Lin, R. Littlefield, X. Long, B. Meng,
      T. Nakajima, S. Niu, L. Pollack, M. Rosing, K. Glaesemann, G. Sandrone,
      M. Stave, H. Taylor, G. Thomas, J. H. van Lenthe, A. T. Wong, Z. Zhang.

 Total times  cpu:       26.9s     wall:       28.5s
[0] ARMCI Warning: Freed 1 leaked allocations
