 argument  1 = /home/list1234/source/nwchem-6.8.1-release/QA/tests/lys_qmmm/lys_qmmm.nw



============================== echo of input deck ==============================
Title "QM/MM of Lys monomer"


memory total 1000 Mb

start lys

echo

#task shell "cp lys0.rst lys_em.rst"
prepare
read lys0.rst
write lys_em.rst
end

task prepare

# A basis set must be defined for the QM part

basis "ao basis"
  * library "6-31G*"
end


charge 1.0

dft
 iterations 100
end

md
 system lys_em
 cutoff 1.9   qmmm 1.0
end

qmmm
 eatoms -84
 link_atoms halogen
 region qm
 method bfgs
 maxiter 5
end

task qmmm dft optimize ignore


================================================================================


                                         
                                         


              Northwest Computational Chemistry Package (NWChem) 6.8
              ------------------------------------------------------


                    Environmental Molecular Sciences Laboratory
                       Pacific Northwest National Laboratory
                                Richland, WA 99352

                              Copyright (c) 1994-2018
                       Pacific Northwest National Laboratory
                            Battelle Memorial Institute

             NWChem is an open-source computational chemistry package
                        distributed under the terms of the
                      Educational Community License (ECL) 2.0
             A copy of the license is included with this distribution
                              in the LICENSE.TXT file

                                  ACKNOWLEDGMENT
                                  --------------

            This software and its documentation were developed at the
            EMSL at Pacific Northwest National Laboratory, a multiprogram
            national laboratory, operated for the U.S. Department of Energy
            by Battelle under Contract Number DE-AC05-76RL01830. Support
            for this work was provided by the Department of Energy Office
            of Biological and Environmental Research, Office of Basic
            Energy Sciences, and the Office of Advanced Scientific Computing.


           Job information
           ---------------

    hostname        = list1234-B360M-H
    program         = /home/list1234/source/nwchem-6.8.1-release/bin/LINUX64/nwchem
    date            = Sun Jun 30 13:28:52 2019

    compiled        = Sun_Jun_30_11:55:59_2019
    source          = /home/list1234/source/nwchem-6.8.1-release
    nwchem branch   = Development
    nwchem revision = N/A
    ga revision     = 5.6.5
    use scalapack   = T
    input           = /home/list1234/source/nwchem-6.8.1-release/QA/tests/lys_qmmm/lys_qmmm.nw
    prefix          = lys.
    data base       = ./lys.db
    status          = startup
    nproc           =        4
    time left       =     -1s



           Memory information
           ------------------

    heap     =   32768000 doubles =    250.0 Mbytes
    stack    =   32767997 doubles =    250.0 Mbytes
    global   =   65536000 doubles =    500.0 Mbytes (distinct from heap & stack)
    total    =  131071997 doubles =   1000.0 Mbytes
    verify   = yes
    hardfail = no 


           Directory information
           ---------------------

  0 permanent = .
  0 scratch   = .




                                NWChem Input Module
                                -------------------


                               QM/MM of Lys monomer
                               --------------------
                                  Prepare Module
                                  --------------

 Force field                           


 Directories used for fragment and segment files


 Parameter files used to resolve force field parameters

 Using existing topology               lys.top
 Topology                              lys.top

 Restart generation using command file directives

 Read restart                          lys0.rst


 Created restart                       lys_em.rst


 Task  times  cpu:        0.0s     wall:        0.0s


                                NWChem Input Module
                                -------------------




 Summary of "ao basis" -> "" (cartesian)
 ------------------------------------------------------------------------------
       Tag                 Description            Shells   Functions and Types
 ---------------- ------------------------------  ------  ---------------------
 *                           6-31G*                   on all atoms 


 in qmmm_input:                     
 out of qmmm_input:                     
 ****************************************************
 *      NWChem QM/MM Interface Module               *
 *                                                  *
 *      Developed Marat Valiev 2004                 *
 ****************************************************
                    QM/MM Interface Parameters
                    --------------------------
 operation             task:operation        optimize                                                      
 reference energy      qmmm:uqmatm             -84.000000                                                  
 bqzone radius         qmmm:bqzone              10.000000                                                  
 excluded bq's         qmmm:bq_exclude       none                                                          
 link atom type        qmmm:linkatm          halogens                                                      
 optimization method   qmmm:optimization     bfgs                                                          
 qmmm:region 1         qm                                                            
 ecp on link atoms     qmmm:link_ecp         auto                                                          
 interface api         qmmm:interface        qm                                                            
 ------------------------------------------------------







                                NWChem Input Module
                                -------------------


                 ECP       "ecp basis" -> "" (cartesian)
                -----
  F_L (Fluorine) Replaces     2 electrons
  ---------------------------------------
             Channel    R-exponent     Exponent     Coefficients
         ------------ ---------------------------------------------------------
  1 U L       Both         1.00        2.219550       0.498520

  2 U-s       Both         2.00       25.001200      29.999040

  3 U-p       Both         2.00        3.568050       0.402150

 number of quantum atoms                    5
 Total number of Bq charges                   19
 Number of solute Bq charges                   19
 Number of solvent Bq charges                    0
 Total Bq charge:    1.3799000000000001     
         5
   
  F_L           0.341500        2.321500        0.656000        16
  N            -0.154500        3.179500        1.747000        19
  H            -0.098500        2.605500        2.742000        20
  H             0.493500        4.127500        1.814000        21
  H            -1.245500        3.475500        1.536000        22
@------------------------------------------------
@
@ QM/MM Multiple Region Optimization
@ region1:  qm        with bfgs      maxiter =  5
@
@
@------------------------------------------------
@ ncycle =  1
@
@
@ Optimizing qm         region with bfgs  
@
         5
   
  C             0.341500        2.321500        0.656000        16
  N            -0.154500        3.179500        1.747000        19
  H            -0.098500        2.605500        2.742000        20
  H             0.493500        4.127500        1.814000        21
  H            -1.245500        3.475500        1.536000        22


                           NWChem Geometry Optimization
                           ----------------------------




                               QM/MM of Lys monomer


 maximum gradient threshold         (gmax) =   0.000450
 rms gradient threshold             (grms) =   0.000300
 maximum cartesian step threshold   (xmax) =   0.001800
 rms cartesian step threshold       (xrms) =   0.001200
 fixed trust radius                (trust) =   0.300000
 maximum step size to saddle      (sadstp) =   0.100000
 energy precision                  (eprec) =   5.0D-06
 maximum number of steps          (nptopt) =    5
 initial hessian option           (inhess) =    0
 line search option               (linopt) =    1
 hessian update option            (modupd) =    1
 saddle point option              (modsad) =    0
 initial eigen-mode to follow     (moddir) =    0
 initial variable to follow       (vardir) =    0
 follow first negative mode     (firstneg) =    T
 apply conjugacy                    (opcg) =    F
 source of zmatrix                         =           


          -------------------
          Energy Minimization
          -------------------


 Using diagonal initial Hessian 

          --------
          Step   0
          --------


                         Geometry "geometry" -> "geometry"
                         ---------------------------------

 Output coordinates in angstroms (scale by  1.889725989 to convert to a.u.)

  No.       Tag          Charge          X              Y              Z
 ---- ---------------- ---------- -------------- -------------- --------------
    1 C                    6.0000     0.34150000     2.32150000     0.65600000
    2 N                    7.0000    -0.15450000     3.17950000     1.74700000
    3 H                    1.0000    -0.09850000     2.60550000     2.74200000
    4 H                    1.0000     0.49350000     4.12750000     1.81400000
    5 H                    1.0000    -1.24550000     3.47550000     1.53600000

      Atomic Mass 
      ----------- 

      C                 12.000000
      N                 14.003070
      H                  1.007825


 Effective nuclear repulsion energy (a.u.)      30.0157608770

            Nuclear Dipole moment (a.u.) 
            ----------------------------
        X                 Y               Z
 ---------------- ---------------- ----------------
     0.2210979406    87.6719474808    42.0596313118

 Total number of active Bq charges                     0
 frozen_density,esp F F
         5
   
  F_L           0.341500        2.321500        0.656000        16
  N            -0.154500        3.179500        1.747000        19
  H            -0.098500        2.605500        2.742000        20
  H             0.493500        4.127500        1.814000        21
  H            -1.245500        3.475500        1.536000        22

                                 NWChem DFT Module
                                 -----------------


                               QM/MM of Lys monomer


                      Basis "ao basis" -> "ao basis" (cartesian)
                      -----
  F_L (Fluorine)
  --------------
            Exponent  Coefficients 
       -------------- ---------------------------------------------------------
  1 S  7.00171309E+03  0.001820
  1 S  1.05136609E+03  0.013916
  1 S  2.39285690E+02  0.068405
  1 S  6.73974453E+01  0.233186
  1 S  2.15199573E+01  0.471267
  1 S  7.40310130E+00  0.356619

  2 S  2.08479528E+01 -0.108507
  2 S  4.80830834E+00 -0.146452
  2 S  1.34406986E+00  1.128689

  3 P  2.08479528E+01  0.071629
  3 P  4.80830834E+00  0.345912
  3 P  1.34406986E+00  0.722470

  4 S  3.58151393E-01  1.000000

  5 P  3.58151393E-01  1.000000

  6 D  8.00000000E-01  1.000000

  N (Nitrogen)
  ------------
            Exponent  Coefficients 
       -------------- ---------------------------------------------------------
  1 S  4.17351100E+03  0.001835
  1 S  6.27457900E+02  0.013995
  1 S  1.42902100E+02  0.068587
  1 S  4.02343300E+01  0.232241
  1 S  1.28202100E+01  0.469070
  1 S  4.39043700E+00  0.360455

  2 S  1.16263580E+01 -0.114961
  2 S  2.71628000E+00 -0.169118
  2 S  7.72218000E-01  1.145852

  3 P  1.16263580E+01  0.067580
  3 P  2.71628000E+00  0.323907
  3 P  7.72218000E-01  0.740895

  4 S  2.12031300E-01  1.000000

  5 P  2.12031300E-01  1.000000

  6 D  8.00000000E-01  1.000000

  H (Hydrogen)
  ------------
            Exponent  Coefficients 
       -------------- ---------------------------------------------------------
  1 S  1.87311370E+01  0.033495
  1 S  2.82539370E+00  0.234727
  1 S  6.40121700E-01  0.813757

  2 S  1.61277800E-01  1.000000



 Summary of "ao basis" -> "ao basis" (cartesian)
 ------------------------------------------------------------------------------
       Tag                 Description            Shells   Functions and Types
 ---------------- ------------------------------  ------  ---------------------
 F_L                         6-31G*                  6       15   3s2p1d
 N                           6-31G*                  6       15   3s2p1d
 H                           6-31G*                  2        2   2s




 Summary of "ao basis" -> "ao basis" (cartesian)
 ------------------------------------------------------------------------------
       Tag                 Description            Shells   Functions and Types
 ---------------- ------------------------------  ------  ---------------------
 F_L                         6-31G*                  6       15   3s2p1d
 N                           6-31G*                  6       15   3s2p1d
 H                           6-31G*                  2        2   2s


  Caching 1-el integrals 

            General Information
            -------------------
          SCF calculation type: DFT
          Wavefunction type:  closed shell.
          No. of atoms     :     5
          No. of electrons :    16
           Alpha electrons :     8
            Beta electrons :     8
          Charge           :     1
          Spin multiplicity:     1
          Use of symmetry is: off; symmetry adaption is: off
          Maximum number of iterations: 100
          AO basis - number of functions:    36
                     number of shells:    18
          Convergence on energy requested:  1.00D-06
          Convergence on density requested:  1.00D-05
          Convergence on gradient requested:  5.00D-04

              XC Information
              --------------
                        Slater Exchange Functional  1.000 local    
                      VWN V Correlation Functional  1.000 local    

             Grid Information
             ----------------
          Grid used for XC integration:  medium    
          Radial quadrature: Mura-Knowles        
          Angular quadrature: Lebedev. 
          Tag              B.-S. Rad. Rad. Pts. Rad. Cut. Ang. Pts.
          ---              ---------- --------- --------- ---------
          F_L                 0.50       49           7.0       434
          N                   0.65       49           6.0       434
          H                   0.35       45           7.0       434
          Grid pruning is: on 
          Number of quadrature shells:   233
          Spatial weights used:  Erf1

          Convergence Information
          -----------------------
          Convergence aids based upon iterative change in 
          total energy or number of iterations. 
          Levelshifting, if invoked, occurs when the 
          HOMO/LUMO gap drops below (HL_TOL):  1.00D-02
          DIIS, if invoked, will attempt to extrapolate 
          using up to (NFOCK): 10 stored Fock matrices.

                    Damping( 0%)  Levelshifting(0.5)       DIIS
                  --------------- ------------------- ---------------
          dE  on:    start            ASAP                start   
          dE off:    2 iters        100 iters           100 iters 


      Screening Tolerance Information
      -------------------------------
          Density screening/tol_rho:  1.00D-10
          AO Gaussian exp screening on grid/accAOfunc:  14
          CD Gaussian exp screening on grid/accCDfunc:  20
          XC Gaussian exp screening on grid/accXCfunc:  20
          Schwarz screening/accCoul:  1.00D-08

 Nuclear repulsion energy =   33.267098230530152     
 Bq nuclear interaction energy =   3.1091297398677535     

      Superposition of Atomic Density Guess
      -------------------------------------

 Sum of atomic energies:         -93.38791217
 Nuclear repulsion energy =   33.267098230530152     
 Bq nuclear interaction energy =   3.1091297398677535     

 Renormalizing density from      17.00 to     16

      Non-variational initial energy
      ------------------------------

 Total energy =     -80.849705
 1-e energy   =    -177.777193
 2-e energy   =      60.551261
 HOMO         =      -0.949226
 LUMO         =      -0.675722

 Nuclear repulsion energy =   33.267098230530152     
 Bq nuclear interaction energy =   3.1091297398677535     
   Time after variat. SCF:      0.1
   Time prior to 1st pass:      0.1

 Integral file          = ./lys.aoints.0
 Record size in doubles =  65536        No. of integs per rec  =  43688
 Max. records in memory =      3        Max. records in file   = 161659
 No. of bits per label  =      8        No. of bits per value  =     64


 #quartets = 1.453D+04 #integrals = 2.356D+05 #direct =  0.0% #cached =100.0%


File balance: exchanges=     0  moved=     0  time=   0.0

 Nuclear repulsion energy =   33.267098230530152     
 Bq nuclear interaction energy =   3.1091297398677535     

 Grid_pts file          = ./lys.gridpts.0
 Record size in doubles =  12289        No. of grid_pts per rec  =   3070
 Max. records in memory =     11        Max. recs in file   =    862114


           Memory utilization after 1st SCF pass: 
           Heap Space remaining (MW):        0.00                   0
          Stack Space remaining (MW):       32.76            32760420

   convergence    iter        energy       DeltaE   RMS-Dens  Diis-err    time
 ---------------- ----- ----------------- --------- --------- ---------  ------
 d= 0,ls=0.0,diis     1    -84.8784079861 -1.21D+02  6.66D-02  1.54D+00     0.2
 Nuclear repulsion energy =   33.267098230530152     
 Bq nuclear interaction energy =   3.1091297398677535     
 d= 0,ls=0.0,diis     2    -84.8192168543  5.92D-02  2.29D-02  1.54D+00     0.2
 Nuclear repulsion energy =   33.267098230530152     
 Bq nuclear interaction energy =   3.1091297398677535     
 d= 0,ls=0.0,diis     3    -84.9596159165 -1.40D-01  8.06D-03  2.13D-01     0.2
 Nuclear repulsion energy =   33.267098230530152     
 Bq nuclear interaction energy =   3.1091297398677535     
 d= 0,ls=0.0,diis     4    -84.9747406133 -1.51D-02  4.38D-03  6.99D-02     0.2
 Nuclear repulsion energy =   33.267098230530152     
 Bq nuclear interaction energy =   3.1091297398677535     
 d= 0,ls=0.0,diis     5    -84.9813992858 -6.66D-03  4.53D-04  2.26D-04     0.3
 Nuclear repulsion energy =   33.267098230530152     
 Bq nuclear interaction energy =   3.1091297398677535     
  Resetting Diis
 d= 0,ls=0.0,diis     6    -84.9814187764 -1.95D-05  2.71D-04  2.60D-05     0.3
 Nuclear repulsion energy =   33.267098230530152     
 Bq nuclear interaction energy =   3.1091297398677535     
 d= 0,ls=0.0,diis     7    -84.9814219501 -3.17D-06  2.05D-04  4.30D-06     0.3
 Nuclear repulsion energy =   33.267098230530152     
 Bq nuclear interaction energy =   3.1091297398677535     
 d= 0,ls=0.0,diis     8    -84.9814212517  6.98D-07  1.22D-04  8.85D-06     0.3
 Nuclear repulsion energy =   33.267098230530152     
 Bq nuclear interaction energy =   3.1091297398677535     
 d= 0,ls=0.0,diis     9    -84.9814226050 -1.35D-06  3.60D-06  5.04D-08     0.4
 Nuclear repulsion energy =   33.267098230530152     
 Bq nuclear interaction energy =   3.1091297398677535     
 d= 0,ls=0.0,diis    10    -84.9814226085 -3.49D-09  1.93D-06  1.40D-08     0.4
 Nuclear repulsion energy =   33.267098230530152     
 Bq nuclear interaction energy =   3.1091297398677535     


         Total DFT energy =      -84.981422608465
      One electron energy =     -185.372795871392
           Coulomb energy =       75.630297615601
    Exchange-Corr. energy =      -11.615152323071
 Nuclear repulsion energy =       36.376227970398

 Numeric. integr. density =       16.000002923654

     Total iterative time =      0.3s



                       DFT Final Molecular Orbital Analysis
                       ------------------------------------

 Vector    1  Occ=2.000000D+00  E=-1.442218D+01
              MO Center= -1.5D-01,  3.2D+00,  1.7D+00, r^2= 2.0D-02
   Bfn.  Coefficient  Atom+Function         Bfn.  Coefficient  Atom+Function  
  ----- ------------  ---------------      ----- ------------  ---------------
    16      0.990044  2 N  s                 17      0.043084  2 N  s          

 Vector    2  Occ=2.000000D+00  E=-4.915810D+00
              MO Center=  3.4D-01,  2.3D+00,  6.6D-01, r^2= 1.6D-01
   Bfn.  Coefficient  Atom+Function         Bfn.  Coefficient  Atom+Function  
  ----- ------------  ---------------      ----- ------------  ---------------
     6      1.857097  1 F  s                 10     -0.626298  1 F  dxx        
    13     -0.612804  1 F  dyy               15     -0.600012  1 F  dzz        
    21     -0.369028  2 N  s                  1      0.337448  1 F  s          
     2      0.290733  1 F  s                 24      0.162568  2 N  pz         
     9      0.149636  1 F  pz                23      0.127768  2 N  py         

 Vector    3  Occ=2.000000D+00  E=-1.262083D+00
              MO Center= -1.3D-01,  3.1D+00,  1.7D+00, r^2= 7.5D-01
   Bfn.  Coefficient  Atom+Function         Bfn.  Coefficient  Atom+Function  
  ----- ------------  ---------------      ----- ------------  ---------------
    21      0.516252  2 N  s                 17      0.428184  2 N  s          
    16     -0.209710  2 N  s                  6     -0.188695  1 F  s          
    31      0.091064  3 H  s                 35      0.090926  5 H  s          
    33      0.089211  4 H  s                  5      0.080134  1 F  pz         
    15      0.078705  1 F  dzz               13      0.073885  1 F  dyy        

 Vector    4  Occ=2.000000D+00  E=-9.142687D-01
              MO Center= -4.1D-02,  3.0D+00,  1.5D+00, r^2= 1.2D+00
   Bfn.  Coefficient  Atom+Function         Bfn.  Coefficient  Atom+Function  
  ----- ------------  ---------------      ----- ------------  ---------------
    20      0.356751  2 N  pz                19      0.271773  2 N  py         
     9     -0.236977  1 F  pz                 6      0.207751  1 F  s          
     5     -0.203974  1 F  pz                24      0.204346  2 N  pz         
     8     -0.184495  1 F  py                18     -0.167580  2 N  px         
     4     -0.160803  1 F  py                23      0.155152  2 N  py         

 Vector    5  Occ=2.000000D+00  E=-8.917980D-01
              MO Center= -2.3D-01,  3.0D+00,  1.7D+00, r^2= 1.2D+00
   Bfn.  Coefficient  Atom+Function         Bfn.  Coefficient  Atom+Function  
  ----- ------------  ---------------      ----- ------------  ---------------
    18      0.313347  2 N  px                20      0.310350  2 N  pz         
    19     -0.214018  2 N  py                22      0.194540  2 N  px         
    24      0.192564  2 N  pz                35     -0.191307  5 H  s          
    31      0.182839  3 H  s                 23     -0.132629  2 N  py         
     7      0.125403  1 F  px                 9      0.123551  1 F  pz         

 Vector    6  Occ=2.000000D+00  E=-8.892932D-01
              MO Center= -1.5D-02,  3.2D+00,  1.7D+00, r^2= 1.2D+00
   Bfn.  Coefficient  Atom+Function         Bfn.  Coefficient  Atom+Function  
  ----- ------------  ---------------      ----- ------------  ---------------
    19      0.343866  2 N  py                18      0.338577  2 N  px         
    23      0.217906  2 N  py                33      0.216950  4 H  s          
    22      0.213822  2 N  px                 7      0.130222  1 F  px         
     8      0.120975  1 F  py                31     -0.114006  3 H  s          
    20     -0.105599  2 N  pz                35     -0.098199  5 H  s          

 Vector    7  Occ=2.000000D+00  E=-7.041499D-01
              MO Center=  2.3D-01,  2.4D+00,  8.4D-01, r^2= 1.1D+00
   Bfn.  Coefficient  Atom+Function         Bfn.  Coefficient  Atom+Function  
  ----- ------------  ---------------      ----- ------------  ---------------
     7      0.465663  1 F  px                 9      0.407844  1 F  pz         
     3      0.297566  1 F  px                 5      0.260733  1 F  pz         
     8     -0.248960  1 F  py                 4     -0.159219  1 F  py         
    18     -0.134623  2 N  px                35      0.128832  5 H  s          
    20     -0.117510  2 N  pz                31     -0.110944  3 H  s          

 Vector    8  Occ=2.000000D+00  E=-6.939780D-01
              MO Center=  3.2D-01,  2.5D+00,  8.2D-01, r^2= 1.1D+00
   Bfn.  Coefficient  Atom+Function         Bfn.  Coefficient  Atom+Function  
  ----- ------------  ---------------      ----- ------------  ---------------
     8      0.460092  1 F  py                 7      0.432019  1 F  px         
     4      0.306492  1 F  py                 3      0.276174  1 F  px         
     9     -0.212422  1 F  pz                19     -0.143577  2 N  py         
    33     -0.137688  4 H  s                  5     -0.128367  1 F  pz         
    18     -0.112162  2 N  px                23     -0.087353  2 N  py         

 Vector    9  Occ=0.000000D+00  E=-6.019487D-01
              MO Center=  3.1D-01,  2.3D+00,  7.1D-01, r^2= 1.4D+00
   Bfn.  Coefficient  Atom+Function         Bfn.  Coefficient  Atom+Function  
  ----- ------------  ---------------      ----- ------------  ---------------
     9      0.577929  1 F  pz                 6      0.504976  1 F  s          
    21     -0.505924  2 N  s                  8      0.481414  1 F  py         
    24      0.450254  2 N  pz                23      0.355699  2 N  py         
     7     -0.248634  1 F  px                10     -0.248356  1 F  dxx        
    15     -0.245706  1 F  dzz               13     -0.242569  1 F  dyy        

 Vector   10  Occ=0.000000D+00  E=-3.934919D-01
              MO Center= -3.4D-01,  3.3D+00,  2.1D+00, r^2= 2.8D+00
   Bfn.  Coefficient  Atom+Function         Bfn.  Coefficient  Atom+Function  
  ----- ------------  ---------------      ----- ------------  ---------------
    21      1.155796  2 N  s                 32     -0.738513  3 H  s          
    36     -0.723742  5 H  s                 34     -0.623371  4 H  s          
    17      0.339263  2 N  s                 24      0.260844  2 N  pz         
    23      0.164435  2 N  py                31     -0.158273  3 H  s          
    35     -0.155946  5 H  s                 22     -0.140799  2 N  px         

 Vector   11  Occ=0.000000D+00  E=-3.355611D-01
              MO Center= -6.1D-01,  3.0D+00,  2.1D+00, r^2= 2.3D+00
   Bfn.  Coefficient  Atom+Function         Bfn.  Coefficient  Atom+Function  
  ----- ------------  ---------------      ----- ------------  ---------------
    32      0.997190  3 H  s                 36     -0.967750  5 H  s          
    24     -0.474048  2 N  pz                22     -0.428960  2 N  px         
    23      0.358740  2 N  py                20     -0.325463  2 N  pz         
    18     -0.293529  2 N  px                19      0.245485  2 N  py         
    31      0.221325  3 H  s                 35     -0.215152  5 H  s          

 Vector   12  Occ=0.000000D+00  E=-3.302077D-01
              MO Center=  1.4D-01,  3.8D+00,  1.9D+00, r^2= 2.2D+00
   Bfn.  Coefficient  Atom+Function         Bfn.  Coefficient  Atom+Function  
  ----- ------------  ---------------      ----- ------------  ---------------
    34      1.165210  4 H  s                 36     -0.559382  5 H  s          
    22     -0.530797  2 N  px                32     -0.486438  3 H  s          
    23     -0.482023  2 N  py                18     -0.368011  2 N  px         
    19     -0.329800  2 N  py                33      0.266066  4 H  s          
    35     -0.127077  5 H  s                 24      0.115052  2 N  pz         

 Vector   13  Occ=0.000000D+00  E=-4.789132D-02
              MO Center=  1.3D-01,  2.7D+00,  1.1D+00, r^2= 1.0D+00
   Bfn.  Coefficient  Atom+Function         Bfn.  Coefficient  Atom+Function  
  ----- ------------  ---------------      ----- ------------  ---------------
    20      0.525560  2 N  pz                21      0.468998  2 N  s          
    19      0.417873  2 N  py                17     -0.362297  2 N  s          
     2     -0.346170  1 F  s                 10      0.277099  1 F  dxx        
    18     -0.237016  2 N  px                13      0.220814  1 F  dyy        
     5      0.214596  1 F  pz                24     -0.203145  2 N  pz         

 Vector   14  Occ=0.000000D+00  E= 1.493147D-01
              MO Center= -2.4D-01,  3.3D+00,  1.9D+00, r^2= 1.9D+00
   Bfn.  Coefficient  Atom+Function         Bfn.  Coefficient  Atom+Function  
  ----- ------------  ---------------      ----- ------------  ---------------
    24      1.087282  2 N  pz                 6      0.972036  1 F  s          
    23      0.863067  2 N  py                21     -0.540781  2 N  s          
    22     -0.488694  2 N  px                20     -0.401050  2 N  pz         
     2     -0.320300  1 F  s                 19     -0.319937  2 N  py         
     9      0.278431  1 F  pz                31     -0.256585  3 H  s          

 Vector   15  Occ=0.000000D+00  E= 2.515329D-01
              MO Center= -1.8D-01,  3.1D+00,  1.7D+00, r^2= 1.9D+00
   Bfn.  Coefficient  Atom+Function         Bfn.  Coefficient  Atom+Function  
  ----- ------------  ---------------      ----- ------------  ---------------
    22      0.932026  2 N  px                33     -0.667799  4 H  s          
    35      0.564623  5 H  s                 23      0.543325  2 N  py         
    18     -0.431301  2 N  px                26     -0.307356  2 N  dxy        
    19     -0.253690  2 N  py                36     -0.209305  5 H  s          
    34      0.206018  4 H  s                 31      0.160136  3 H  s          

 Vector   16  Occ=0.000000D+00  E= 2.520873D-01
              MO Center= -1.4D-01,  3.2D+00,  1.7D+00, r^2= 1.9D+00
   Bfn.  Coefficient  Atom+Function         Bfn.  Coefficient  Atom+Function  
  ----- ------------  ---------------      ----- ------------  ---------------
    31      0.737043  3 H  s                 24     -0.683855  2 N  pz         
    23      0.676368  2 N  py                35     -0.491477  5 H  s          
    22     -0.349999  2 N  px                20      0.311357  2 N  pz         
    19     -0.309371  2 N  py                32     -0.295762  3 H  s          
    33     -0.220883  4 H  s                 29     -0.207939  2 N  dyz        

 Vector   17  Occ=0.000000D+00  E= 3.306539D-01
              MO Center= -2.8D-01,  2.9D+00,  2.3D+00, r^2= 2.3D+00
   Bfn.  Coefficient  Atom+Function         Bfn.  Coefficient  Atom+Function  
  ----- ------------  ---------------      ----- ------------  ---------------
    32      1.585313  3 H  s                 24     -1.095274  2 N  pz         
    36     -0.930639  5 H  s                 23      0.829935  2 N  py         
    22     -0.622053  2 N  px                20      0.615423  2 N  pz         
    31     -0.591680  3 H  s                 19     -0.468809  2 N  py         
    18      0.351326  2 N  px                21     -0.303505  2 N  s          

 Vector   18  Occ=0.000000D+00  E= 3.320275D-01
              MO Center= -7.9D-01,  3.3D+00,  1.8D+00, r^2= 2.3D+00
   Bfn.  Coefficient  Atom+Function         Bfn.  Coefficient  Atom+Function  
  ----- ------------  ---------------      ----- ------------  ---------------
    36      1.440900  5 H  s                 22      1.176336  2 N  px         
    21     -0.917293  2 N  s                 35     -0.682034  5 H  s          
    18     -0.660433  2 N  px                32      0.652775  3 H  s          
    34     -0.591888  4 H  s                 17      0.443036  2 N  s          
    31     -0.416269  3 H  s                 23      0.308100  2 N  py         

 Vector   19  Occ=0.000000D+00  E= 3.377167D-01
              MO Center=  3.5D-01,  3.9D+00,  1.8D+00, r^2= 1.9D+00
   Bfn.  Coefficient  Atom+Function         Bfn.  Coefficient  Atom+Function  
  ----- ------------  ---------------      ----- ------------  ---------------
    34      1.618699  4 H  s                 21     -1.051400  2 N  s          
    23     -0.896699  2 N  py                33     -0.806855  4 H  s          
    22     -0.547681  2 N  px                17      0.508866  2 N  s          
    19      0.501561  2 N  py                18      0.312051  2 N  px         
    35     -0.253419  5 H  s                 31     -0.239809  3 H  s          

 Vector   20  Occ=0.000000D+00  E= 7.302255D-01
              MO Center= -1.5D-01,  3.2D+00,  1.8D+00, r^2= 2.1D+00
   Bfn.  Coefficient  Atom+Function         Bfn.  Coefficient  Atom+Function  
  ----- ------------  ---------------      ----- ------------  ---------------
    21      3.524888  2 N  s                 17     -1.420005  2 N  s          
     6      0.869730  1 F  s                 34     -0.578208  4 H  s          
    15     -0.563977  1 F  dzz               32     -0.563786  3 H  s          
    36     -0.565725  5 H  s                 13     -0.509265  1 F  dyy        
    10     -0.462532  1 F  dxx               31     -0.394283  3 H  s          

 Vector   21  Occ=0.000000D+00  E= 8.743437D-01
              MO Center=  6.4D-02,  2.9D+00,  1.3D+00, r^2= 1.2D+00
   Bfn.  Coefficient  Atom+Function         Bfn.  Coefficient  Atom+Function  
  ----- ------------  ---------------      ----- ------------  ---------------
    27     -0.545107  2 N  dxz               11      0.525894  1 F  dxy        
    26     -0.521401  2 N  dxy               15      0.499776  1 F  dzz        
    28      0.437071  2 N  dyy               29     -0.399613  2 N  dyz        
    30     -0.377634  2 N  dzz               10     -0.353963  1 F  dxx        
    12      0.197659  1 F  dxz               22     -0.149835  2 N  px         

 Vector   22  Occ=0.000000D+00  E= 8.784081D-01
              MO Center=  1.9D-02,  2.8D+00,  1.3D+00, r^2= 1.1D+00
   Bfn.  Coefficient  Atom+Function         Bfn.  Coefficient  Atom+Function  
  ----- ------------  ---------------      ----- ------------  ---------------
    27      0.902680  2 N  dxz               13     -0.463884  1 F  dyy        
    12     -0.443772  1 F  dxz               14     -0.429205  1 F  dyz        
    26     -0.371593  2 N  dxy               28      0.353460  2 N  dyy        
    11     -0.335079  1 F  dxy               25     -0.293659  2 N  dxx        
    29      0.228604  2 N  dyz               15      0.214281  1 F  dzz        

 Vector   23  Occ=0.000000D+00  E= 9.556246D-01
              MO Center=  4.8D-01,  2.1D+00,  3.8D-01, r^2= 8.4D-01
   Bfn.  Coefficient  Atom+Function         Bfn.  Coefficient  Atom+Function  
  ----- ------------  ---------------      ----- ------------  ---------------
     6      3.090492  1 F  s                 10     -1.155651  1 F  dxx        
     2     -1.141303  1 F  s                 13     -1.088910  1 F  dyy        
    15     -1.016286  1 F  dzz                5      0.568719  1 F  pz         
     9     -0.539690  1 F  pz                 4      0.402172  1 F  py         
     8     -0.386855  1 F  py                14      0.285671  1 F  dyz        

 Vector   24  Occ=0.000000D+00  E= 1.028370D+00
              MO Center=  3.2D-01,  2.3D+00,  6.3D-01, r^2= 7.8D-01
   Bfn.  Coefficient  Atom+Function         Bfn.  Coefficient  Atom+Function  
  ----- ------------  ---------------      ----- ------------  ---------------
     3      0.720362  1 F  px                 7     -0.644479  1 F  px         
     5      0.575805  1 F  pz                 9     -0.515135  1 F  pz         
    12      0.324473  1 F  dxz                4     -0.310361  1 F  py         
     8      0.279001  1 F  py                15      0.239986  1 F  dzz        
    11      0.231575  1 F  dxy               13     -0.165356  1 F  dyy        

 Vector   25  Occ=0.000000D+00  E= 1.038580D+00
              MO Center=  3.9D-01,  2.3D+00,  6.4D-01, r^2= 7.6D-01
   Bfn.  Coefficient  Atom+Function         Bfn.  Coefficient  Atom+Function  
  ----- ------------  ---------------      ----- ------------  ---------------
     4      0.731487  1 F  py                 8     -0.666578  1 F  py         
     3      0.527689  1 F  px                 7     -0.468240  1 F  px         
    12      0.453647  1 F  dxz                5     -0.286575  1 F  pz         
    26     -0.256014  2 N  dxy                9      0.245326  1 F  pz         
    13      0.229347  1 F  dyy               11     -0.225370  1 F  dxy        

 Vector   26  Occ=0.000000D+00  E= 1.111112D+00
              MO Center=  3.2D-01,  2.4D+00,  6.9D-01, r^2= 7.6D-01
   Bfn.  Coefficient  Atom+Function         Bfn.  Coefficient  Atom+Function  
  ----- ------------  ---------------      ----- ------------  ---------------
    14      0.909384  1 F  dyz               10      0.697303  1 F  dxx        
    13     -0.519340  1 F  dyy               11      0.461855  1 F  dxy        
    12      0.424502  1 F  dxz               24     -0.214195  2 N  pz         
    23      0.190684  2 N  py                15     -0.183316  1 F  dzz        
    30     -0.152912  2 N  dzz               31      0.148970  3 H  s          

 Vector   27  Occ=0.000000D+00  E= 1.118615D+00
              MO Center=  3.0D-01,  2.3D+00,  7.4D-01, r^2= 7.6D-01
   Bfn.  Coefficient  Atom+Function         Bfn.  Coefficient  Atom+Function  
  ----- ------------  ---------------      ----- ------------  ---------------
    11      1.125585  1 F  dxy               12     -1.087436  1 F  dxz        
    13      0.330473  1 F  dyy                6     -0.319097  1 F  s          
    22      0.296264  2 N  px                 3      0.210073  1 F  px         
     7     -0.200651  1 F  px                 8     -0.176507  1 F  py         
    21      0.166922  2 N  s                 33     -0.162111  4 H  s          

 Vector   28  Occ=0.000000D+00  E= 1.180728D+00
              MO Center=  2.2D-01,  2.5D+00,  9.0D-01, r^2= 1.3D+00
   Bfn.  Coefficient  Atom+Function         Bfn.  Coefficient  Atom+Function  
  ----- ------------  ---------------      ----- ------------  ---------------
     6      3.329588  1 F  s                 21     -1.604410  2 N  s          
     2     -1.164637  1 F  s                 15     -1.038465  1 F  dzz        
    14     -0.897932  1 F  dyz               17      0.816831  2 N  s          
    13     -0.751517  1 F  dyy               10     -0.556302  1 F  dxx        
    24      0.548929  2 N  pz                11      0.529524  1 F  dxy        

 Vector   29  Occ=0.000000D+00  E= 1.594903D+00
              MO Center= -9.2D-02,  2.9D+00,  1.5D+00, r^2= 1.3D+00
   Bfn.  Coefficient  Atom+Function         Bfn.  Coefficient  Atom+Function  
  ----- ------------  ---------------      ----- ------------  ---------------
    29      0.787037  2 N  dyz               25      0.607882  2 N  dxx        
    27      0.604372  2 N  dxz               35     -0.559369  5 H  s          
    22     -0.547770  2 N  px                24     -0.539156  2 N  pz         
    31      0.532478  3 H  s                 28     -0.527668  2 N  dyy        
    15      0.457647  1 F  dzz               11      0.454231  1 F  dxy        

 Vector   30  Occ=0.000000D+00  E= 1.596988D+00
              MO Center=  4.5D-02,  3.0D+00,  1.5D+00, r^2= 1.3D+00
   Bfn.  Coefficient  Atom+Function         Bfn.  Coefficient  Atom+Function  
  ----- ------------  ---------------      ----- ------------  ---------------
    26      1.134851  2 N  dxy               27     -0.894426  2 N  dxz        
    33     -0.642868  4 H  s                 22      0.585945  2 N  px         
    23      0.586131  2 N  py                11     -0.395271  1 F  dxy        
    14     -0.389817  1 F  dyz               13     -0.376850  1 F  dyy        
     8     -0.361894  1 F  py                 7     -0.355518  1 F  px         

 Vector   31  Occ=0.000000D+00  E= 1.629803D+00
              MO Center=  2.9D-03,  2.9D+00,  1.4D+00, r^2= 1.2D+00
   Bfn.  Coefficient  Atom+Function         Bfn.  Coefficient  Atom+Function  
  ----- ------------  ---------------      ----- ------------  ---------------
     6      2.642957  1 F  s                 29      1.095789  2 N  dyz        
     2     -1.019489  1 F  s                 15     -0.913470  1 F  dzz        
    13     -0.889237  1 F  dyy               10     -0.860932  1 F  dxx        
    27     -0.634952  2 N  dxz               21     -0.613371  2 N  s          
    26     -0.475393  2 N  dxy                5     -0.434980  1 F  pz         

 Vector   32  Occ=0.000000D+00  E= 1.698664D+00
              MO Center= -3.5D-02,  2.9D+00,  1.5D+00, r^2= 1.2D+00
   Bfn.  Coefficient  Atom+Function         Bfn.  Coefficient  Atom+Function  
  ----- ------------  ---------------      ----- ------------  ---------------
    26      0.839797  2 N  dxy               30      0.772605  2 N  dzz        
    25     -0.690041  2 N  dxx               11      0.564413  1 F  dxy        
    15      0.465133  1 F  dzz               35      0.405149  5 H  s          
    12      0.400787  1 F  dxz               31     -0.345696  3 H  s          
    13     -0.282709  1 F  dyy               29     -0.255037  2 N  dyz        

 Vector   33  Occ=0.000000D+00  E= 1.701029D+00
              MO Center= -9.3D-03,  3.0D+00,  1.4D+00, r^2= 1.2D+00
   Bfn.  Coefficient  Atom+Function         Bfn.  Coefficient  Atom+Function  
  ----- ------------  ---------------      ----- ------------  ---------------
    26      0.761105  2 N  dxy               29      0.735137  2 N  dyz        
    28      0.704251  2 N  dyy               12      0.682114  1 F  dxz        
    27      0.505791  2 N  dxz               30     -0.474806  2 N  dzz        
    13      0.454801  1 F  dyy               33     -0.425441  4 H  s          
    14      0.370502  1 F  dyz               31      0.257692  3 H  s          

 Vector   34  Occ=0.000000D+00  E= 2.514544D+00
              MO Center=  5.4D-02,  2.8D+00,  1.3D+00, r^2= 1.6D+00
   Bfn.  Coefficient  Atom+Function         Bfn.  Coefficient  Atom+Function  
  ----- ------------  ---------------      ----- ------------  ---------------
     6      5.578292  1 F  s                 21     -2.612236  2 N  s          
     2     -2.011178  1 F  s                  9      1.414621  1 F  pz         
    10     -1.379230  1 F  dxx               29     -1.275015  2 N  dyz        
    14      1.175298  1 F  dyz                8      1.112624  1 F  py         
    13     -1.071935  1 F  dyy               24      1.024356  2 N  pz         

 Vector   35  Occ=0.000000D+00  E= 3.160706D+00
              MO Center= -1.6D-01,  3.2D+00,  1.8D+00, r^2= 1.1D+00
   Bfn.  Coefficient  Atom+Function         Bfn.  Coefficient  Atom+Function  
  ----- ------------  ---------------      ----- ------------  ---------------
    21      2.969165  2 N  s                 30     -1.608727  2 N  dzz        
    28     -1.539859  2 N  dyy               25     -1.465792  2 N  dxx        
    17      1.117440  2 N  s                 14      0.500408  1 F  dyz        
    32     -0.487034  3 H  s                 34     -0.487836  4 H  s          
    36     -0.487293  5 H  s                 16     -0.462974  2 N  s          

 Vector   36  Occ=0.000000D+00  E= 1.389389D+01
              MO Center=  3.4D-01,  2.3D+00,  6.5D-01, r^2= 3.8D-01
   Bfn.  Coefficient  Atom+Function         Bfn.  Coefficient  Atom+Function  
  ----- ------------  ---------------      ----- ------------  ---------------
     6      3.994743  1 F  s                 10     -1.424566  1 F  dxx        
    13     -1.390714  1 F  dyy               15     -1.359081  1 F  dzz        
     1     -1.122408  1 F  s                 21     -0.844650  2 N  s          
     2     -0.400453  1 F  s                  9      0.338908  1 F  pz         
    24      0.327708  2 N  pz                 8      0.266499  1 F  py         

 Nuclear repulsion energy =   33.267098230530152     
 Bq nuclear interaction energy =   3.1091297398677535     

 center of mass
 --------------
 x =   0.07014046 y =   5.38204003 z =   2.50485444

 moments of inertia (a.u.)
 ------------------
          61.226610523128          10.720568955072          13.632229098820
          10.720568955072          48.874585051057         -23.581063555883
          13.632229098820         -23.581063555883          37.437826520674

     Multipole analysis of the density
     ---------------------------------

     L   x y z        total         alpha         beta         nuclear
     -   - - -        -----         -----         ----         -------
     0   0 0 0      1.000000     -8.000000     -8.000000     17.000000

     1   1 0 0     -0.308794     -0.587617     -0.587617      0.866439
     1   0 1 0      5.899489    -43.079729    -43.079729     92.058946
     1   0 0 1      3.258121    -20.020585    -20.020585     43.299292

     2   2 0 0     -6.461161     -8.208577     -8.208577      9.955992
     2   1 1 0     -2.231490     -0.334504     -0.334504     -1.562481
     2   1 0 1     -1.424435      2.161022      2.161022     -5.746480
     2   0 2 0     29.211209   -243.214640   -243.214640    515.640489
     2   0 1 1     20.375586   -113.928774   -113.928774    248.233135
     2   0 0 2      5.075783    -64.499683    -64.499683    134.075149


 Parallel integral file used       8 records with       0 large values


            General Information
            -------------------
          SCF calculation type: DFT
          Wavefunction type:  closed shell.
          No. of atoms     :     5
          No. of electrons :    16
           Alpha electrons :     8
            Beta electrons :     8
          Charge           :     1
          Spin multiplicity:     1
          Use of symmetry is: off; symmetry adaption is: off
          Maximum number of iterations: 100
          AO basis - number of functions:    36
                     number of shells:    18
          Convergence on energy requested:  1.00D-06
          Convergence on density requested:  1.00D-05
          Convergence on gradient requested:  5.00D-04

              XC Information
              --------------
                        Slater Exchange Functional  1.000 local    
                      VWN V Correlation Functional  1.000 local    

             Grid Information
             ----------------
          Grid used for XC integration:  medium    
          Radial quadrature: Mura-Knowles        
          Angular quadrature: Lebedev. 
          Tag              B.-S. Rad. Rad. Pts. Rad. Cut. Ang. Pts.
          ---              ---------- --------- --------- ---------
          F_L                 0.50       49           7.0       434
          N                   0.65       49           6.0       434
          H                   0.35       45           7.0       434
          Grid pruning is: on 
          Number of quadrature shells:   233
          Spatial weights used:  Erf1

          Convergence Information
          -----------------------
          Convergence aids based upon iterative change in 
          total energy or number of iterations. 
          Levelshifting, if invoked, occurs when the 
          HOMO/LUMO gap drops below (HL_TOL):  1.00D-02
          DIIS, if invoked, will attempt to extrapolate 
          using up to (NFOCK): 10 stored Fock matrices.

                    Damping( 0%)  Levelshifting(0.5)       DIIS
                  --------------- ------------------- ---------------
          dE  on:    start            ASAP                start   
          dE off:    2 iters        100 iters           100 iters 


      Screening Tolerance Information
      -------------------------------
          Density screening/tol_rho:  1.00D-10
          AO Gaussian exp screening on grid/accAOfunc:  14
          CD Gaussian exp screening on grid/accCDfunc:  20
          XC Gaussian exp screening on grid/accXCfunc:  20
          Schwarz screening/accCoul:  1.00D-08



                            NWChem DFT Gradient Module
                            --------------------------


                               QM/MM of Lys monomer



  charge          =   1.00
  wavefunction    = closed shell



                         DFT ENERGY GRADIENTS

    atom               coordinates                        gradient
                 x          y          z           x          y          z
   1 F_L     0.645341   4.386999   1.239660    0.074515  -0.068410  -0.127132
   2 N      -0.291963   6.008384   3.301351   -0.033349   0.043638   0.064776
   3 H      -0.186138   4.923681   5.181629    0.000667  -0.026591   0.049516
   4 H       0.932580   7.799844   3.427963    0.030799   0.045785   0.003849
   5 H      -2.353654   6.567743   2.902619   -0.053613   0.014617  -0.007747

                 ----------------------------------------
                 |  Time  |  1-e(secs)   |  2-e(secs)   |
                 ----------------------------------------
                 |  CPU   |       0.00   |       0.07   |
                 ----------------------------------------
                 |  WALL  |       0.00   |       0.07   |
                 ----------------------------------------
 Bq nuclear interaction energy =   3.5653033259431077     
------------------------------------------------------------------------
 QM/MM Energy
------------------------------------------------------------------------
 quantum energy                       -84.981422608 (-.223119E+06  kjoule/mol)
 quantum energy adjusted               -0.981422608 (-.257673E+04  kjoule/mol)
 quantum energy internal              -85.599573468 (-.224742E+06  kjoule/mol)
 Bq-nuclear energy                      3.565303326 (0.936070E+04  kjoule/mol)
 Bq-electron energy                    -2.947152466 (-.773775E+04  kjoule/mol)
 classical energy                       0.053893347 (0.141497E+03  kjoule/mol)
 total qmmm energy                     -0.927529262 (-.243523E+04  kjoule/mol)
------------------------------------------------------------------------


@ Step       Energy      Delta E   Gmax     Grms     Xrms     Xmax   Walltime
@ ---- ---------------- -------- -------- -------- -------- -------- --------
@    0      -0.92752926  0.0D+00  0.12896  0.05414  0.00000  0.00000      0.5
                                                                    

 Restricting large step in mode    1 eval= 2.2D-02 step= 9.1D-01 new= 3.0D-01
 Restricting large step in mode    4 eval= 6.8D-02 step=-3.3D-01 new=-3.0D-01
 Restricting large step in mode   12 eval= 4.5D-01 step= 3.0D-01 new= 3.0D-01
 Restricting overall step due to large component. alpha=  0.75
 Total number of active Bq charges                    19
 frozen_density,esp F F
         5
   
  F_L           0.272878        2.244254        0.814753        16
  N            -0.114343        3.177986        1.712780        19
  H            -0.099733        2.626816        2.679420        20
  H             0.489170        4.083037        1.812806        21
  H            -1.164488        3.480189        1.539930        22

                                 NWChem DFT Module
                                 -----------------


                               QM/MM of Lys monomer




 Summary of "ao basis" -> "ao basis" (cartesian)
 ------------------------------------------------------------------------------
       Tag                 Description            Shells   Functions and Types
 ---------------- ------------------------------  ------  ---------------------
 F_L                         6-31G*                  6       15   3s2p1d
 N                           6-31G*                  6       15   3s2p1d
 H                           6-31G*                  2        2   2s


 Nuclear repulsion energy =   35.630380177017535     
 Bq nuclear interaction energy =   3.0531994446509585     
  Caching 1-el integrals 

            General Information
            -------------------
          SCF calculation type: DFT
          Wavefunction type:  closed shell.
          No. of atoms     :     5
          No. of electrons :    16
           Alpha electrons :     8
            Beta electrons :     8
          Charge           :     1
          Spin multiplicity:     1
          Use of symmetry is: off; symmetry adaption is: off
          Maximum number of iterations: 100
          AO basis - number of functions:    36
                     number of shells:    18
          Convergence on energy requested:  1.00D-06
          Convergence on density requested:  1.00D-05
          Convergence on gradient requested:  5.00D-04

              XC Information
              --------------
                        Slater Exchange Functional  1.000 local    
                      VWN V Correlation Functional  1.000 local    

             Grid Information
             ----------------
          Grid used for XC integration:  medium    
          Radial quadrature: Mura-Knowles        
          Angular quadrature: Lebedev. 
          Tag              B.-S. Rad. Rad. Pts. Rad. Cut. Ang. Pts.
          ---              ---------- --------- --------- ---------
          F_L                 0.50       49           7.0       434
          N                   0.65       49           5.0       434
          H                   0.35       45           7.0       434
          Grid pruning is: on 
          Number of quadrature shells:   233
          Spatial weights used:  Erf1

          Convergence Information
          -----------------------
          Convergence aids based upon iterative change in 
          total energy or number of iterations. 
          Levelshifting, if invoked, occurs when the 
          HOMO/LUMO gap drops below (HL_TOL):  1.00D-02
          DIIS, if invoked, will attempt to extrapolate 
          using up to (NFOCK): 10 stored Fock matrices.

                    Damping( 0%)  Levelshifting(0.5)       DIIS
                  --------------- ------------------- ---------------
          dE  on:    start            ASAP                start   
          dE off:    2 iters        100 iters           100 iters 


      Screening Tolerance Information
      -------------------------------
          Density screening/tol_rho:  1.00D-10
          AO Gaussian exp screening on grid/accAOfunc:  14
          CD Gaussian exp screening on grid/accCDfunc:  20
          XC Gaussian exp screening on grid/accXCfunc:  20
          Schwarz screening/accCoul:  1.00D-08

 Nuclear repulsion energy =   35.630380177017535     
 Bq nuclear interaction energy =   3.0531994446509585     

 Loading old vectors from job with title :

QM/MM of Lys monomer

 Nuclear repulsion energy =   35.630380177017535     
 Bq nuclear interaction energy =   3.0531994446509585     
   Time after variat. SCF:      0.5
   Time prior to 1st pass:      0.5

 Integral file          = ./lys.aoints.0
 Record size in doubles =  65536        No. of integs per rec  =  43688
 Max. records in memory =      3        Max. records in file   = 161659
 No. of bits per label  =      8        No. of bits per value  =     64


 #quartets = 1.461D+04 #integrals = 2.358D+05 #direct =  0.0% #cached =100.0%


File balance: exchanges=     0  moved=     0  time=   0.0

 Nuclear repulsion energy =   35.630380177017535     
 Bq nuclear interaction energy =   3.0531994446509585     

 Grid_pts file          = ./lys.gridpts.0
 Record size in doubles =  12289        No. of grid_pts per rec  =   3070
 Max. records in memory =     11        Max. recs in file   =    862114


           Memory utilization after 1st SCF pass: 
           Heap Space remaining (MW):        0.00                   0
          Stack Space remaining (MW):       32.76            32760420

   convergence    iter        energy       DeltaE   RMS-Dens  Diis-err    time
 ---------------- ----- ----------------- --------- --------- ---------  ------
 d= 0,ls=0.0,diis     1    -84.9842647210 -1.24D+02  5.82D-02  7.65D-01     0.6
 Nuclear repulsion energy =   35.630380177017535     
 Bq nuclear interaction energy =   3.0531994446509585     
 d= 0,ls=0.0,diis     2    -85.0195643839 -3.53D-02  1.15D-02  6.66D-02     0.7
 Nuclear repulsion energy =   35.630380177017535     
 Bq nuclear interaction energy =   3.0531994446509585     
 d= 0,ls=0.0,diis     3    -85.0103563891  9.21D-03  6.10D-03  1.62D-01     0.7
 Nuclear repulsion energy =   35.630380177017535     
 Bq nuclear interaction energy =   3.0531994446509585     
 d= 0,ls=0.0,diis     4    -85.0258679845 -1.55D-02  1.71D-03  5.82D-04     0.7
 Nuclear repulsion energy =   35.630380177017535     
 Bq nuclear interaction energy =   3.0531994446509585     
 d= 0,ls=0.0,diis     5    -85.0259308916 -6.29D-05  6.17D-04  1.96D-04     0.7
 Nuclear repulsion energy =   35.630380177017535     
 Bq nuclear interaction energy =   3.0531994446509585     
 d= 0,ls=0.0,diis     6    -85.0259567006 -2.58D-05  6.19D-05  2.10D-06     0.7
 Nuclear repulsion energy =   35.630380177017535     
 Bq nuclear interaction energy =   3.0531994446509585     
 d= 0,ls=0.0,diis     7    -85.0259569264 -2.26D-07  2.08D-05  1.94D-07     0.8
 Nuclear repulsion energy =   35.630380177017535     
 Bq nuclear interaction energy =   3.0531994446509585     
 d= 0,ls=0.0,diis     8    -85.0259569558 -2.94D-08  3.47D-06  4.64D-09     0.8
 Nuclear repulsion energy =   35.630380177017535     
 Bq nuclear interaction energy =   3.0531994446509585     


         Total DFT energy =      -85.025956955785
      One electron energy =     -189.702041430146
           Coulomb energy =       77.723261922170
    Exchange-Corr. energy =      -11.730757069478
 Nuclear repulsion energy =       38.683579621668

 Numeric. integr. density =       16.000001323754

     Total iterative time =      0.3s



                       DFT Final Molecular Orbital Analysis
                       ------------------------------------

 Vector    1  Occ=2.000000D+00  E=-1.441212D+01
              MO Center= -1.1D-01,  3.2D+00,  1.7D+00, r^2= 2.0D-02
   Bfn.  Coefficient  Atom+Function         Bfn.  Coefficient  Atom+Function  
  ----- ------------  ---------------      ----- ------------  ---------------
    16      0.989899  2 N  s                 17      0.043480  2 N  s          

 Vector    2  Occ=2.000000D+00  E=-4.941554D+00
              MO Center=  2.7D-01,  2.2D+00,  8.2D-01, r^2= 1.7D-01
   Bfn.  Coefficient  Atom+Function         Bfn.  Coefficient  Atom+Function  
  ----- ------------  ---------------      ----- ------------  ---------------
     6      2.064965  1 F  s                 10     -0.661619  1 F  dxx        
    13     -0.636733  1 F  dyy               15     -0.636378  1 F  dzz        
    21     -0.457241  2 N  s                  1      0.330555  1 F  s          
     2      0.236046  1 F  s                 23      0.207747  2 N  py         
     8      0.173436  1 F  py                24      0.173464  2 N  pz         

 Vector    3  Occ=2.000000D+00  E=-1.300328D+00
              MO Center= -9.1D-02,  3.1D+00,  1.6D+00, r^2= 7.3D-01
   Bfn.  Coefficient  Atom+Function         Bfn.  Coefficient  Atom+Function  
  ----- ------------  ---------------      ----- ------------  ---------------
    21      0.504698  2 N  s                 17      0.422011  2 N  s          
     6     -0.274865  1 F  s                 16     -0.208609  2 N  s          
    13      0.099725  1 F  dyy               15      0.099520  1 F  dzz        
     4      0.092621  1 F  py                 5      0.091430  1 F  pz         
    10      0.090989  1 F  dxx               31      0.090674  3 H  s          

 Vector    4  Occ=2.000000D+00  E=-9.555479D-01
              MO Center= -2.4D-02,  3.1D+00,  1.5D+00, r^2= 1.1D+00
   Bfn.  Coefficient  Atom+Function         Bfn.  Coefficient  Atom+Function  
  ----- ------------  ---------------      ----- ------------  ---------------
    19      0.405635  2 N  py                 6      0.264101  1 F  s          
    20      0.263560  2 N  pz                23      0.226401  2 N  py         
     9     -0.202876  1 F  pz                 5     -0.190196  1 F  pz         
     4     -0.162873  1 F  py                 8     -0.163020  1 F  py         
    33      0.149857  4 H  s                 24      0.144245  2 N  pz         

 Vector    5  Occ=2.000000D+00  E=-9.181476D-01
              MO Center= -1.4D-01,  3.1D+00,  1.5D+00, r^2= 1.1D+00
   Bfn.  Coefficient  Atom+Function         Bfn.  Coefficient  Atom+Function  
  ----- ------------  ---------------      ----- ------------  ---------------
    18      0.477802  2 N  px                22      0.286070  2 N  px         
     7      0.196225  1 F  px                35     -0.195791  5 H  s          
    33      0.157790  4 H  s                  3      0.147909  1 F  px         
    19      0.097838  2 N  py                 8      0.072983  1 F  py         
    23      0.067415  2 N  py                36     -0.066726  5 H  s          

 Vector    6  Occ=2.000000D+00  E=-9.179031D-01
              MO Center= -4.2D-02,  2.9D+00,  1.7D+00, r^2= 1.1D+00
   Bfn.  Coefficient  Atom+Function         Bfn.  Coefficient  Atom+Function  
  ----- ------------  ---------------      ----- ------------  ---------------
    20      0.407622  2 N  pz                19     -0.260741  2 N  py         
    24      0.232974  2 N  pz                31      0.224440  3 H  s          
     8     -0.198380  1 F  py                23     -0.163656  2 N  py         
     4     -0.156357  1 F  py                 9      0.115867  1 F  pz         
    32      0.083243  3 H  s                  5      0.079862  1 F  pz         

 Vector    7  Occ=2.000000D+00  E=-7.008255D-01
              MO Center=  2.0D-01,  2.5D+00,  9.8D-01, r^2= 1.2D+00
   Bfn.  Coefficient  Atom+Function         Bfn.  Coefficient  Atom+Function  
  ----- ------------  ---------------      ----- ------------  ---------------
     7      0.640640  1 F  px                 3      0.403207  1 F  px         
    18     -0.197339  2 N  px                 8      0.156069  1 F  py         
    35      0.141857  5 H  s                 33     -0.140596  4 H  s          
     4      0.110710  1 F  py                22     -0.107290  2 N  px         
    36      0.088242  5 H  s                 34     -0.083187  4 H  s          

 Vector    8  Occ=2.000000D+00  E=-6.948772D-01
              MO Center=  1.9D-01,  2.4D+00,  1.0D+00, r^2= 1.2D+00
   Bfn.  Coefficient  Atom+Function         Bfn.  Coefficient  Atom+Function  
  ----- ------------  ---------------      ----- ------------  ---------------
     9      0.528577  1 F  pz                 8     -0.396263  1 F  py         
     5      0.327180  1 F  pz                 4     -0.259029  1 F  py         
    20     -0.163646  2 N  pz                31     -0.161428  3 H  s          
    19      0.149485  2 N  py                23      0.107682  2 N  py         
    32     -0.091568  3 H  s                 24     -0.090222  2 N  pz         

 Vector    9  Occ=0.000000D+00  E=-5.996308D-01
              MO Center=  2.5D-01,  2.2D+00,  8.3D-01, r^2= 1.3D+00
   Bfn.  Coefficient  Atom+Function         Bfn.  Coefficient  Atom+Function  
  ----- ------------  ---------------      ----- ------------  ---------------
     6      0.766080  1 F  s                  8      0.621052  1 F  py         
    21     -0.613520  2 N  s                  9      0.538168  1 F  pz         
    24      0.498169  2 N  pz                23      0.483131  2 N  py         
    10     -0.300993  1 F  dxx               13     -0.290586  1 F  dyy        
    15     -0.287971  1 F  dzz                4      0.222968  1 F  py         

 Vector   10  Occ=0.000000D+00  E=-3.743692D-01
              MO Center= -3.4D-01,  3.2D+00,  2.1D+00, r^2= 2.8D+00
   Bfn.  Coefficient  Atom+Function         Bfn.  Coefficient  Atom+Function  
  ----- ------------  ---------------      ----- ------------  ---------------
    21      1.291954  2 N  s                 32     -0.859570  3 H  s          
    36     -0.749871  5 H  s                 34     -0.596498  4 H  s          
    17      0.331013  2 N  s                 24      0.296063  2 N  pz         
    22     -0.156494  2 N  px                31     -0.155791  3 H  s          
    20      0.139571  2 N  pz                35     -0.132217  5 H  s          

 Vector   11  Occ=0.000000D+00  E=-3.251566D-01
              MO Center= -5.8D-01,  3.1D+00,  2.1D+00, r^2= 2.3D+00
   Bfn.  Coefficient  Atom+Function         Bfn.  Coefficient  Atom+Function  
  ----- ------------  ---------------      ----- ------------  ---------------
    32      1.056105  3 H  s                 36     -1.025342  5 H  s          
    24     -0.469801  2 N  pz                23      0.454370  2 N  py         
    22     -0.402664  2 N  px                20     -0.323140  2 N  pz         
    19      0.273245  2 N  py                18     -0.255790  2 N  px         
    31      0.218211  3 H  s                 34     -0.202720  4 H  s          

 Vector   12  Occ=0.000000D+00  E=-3.066521D-01
              MO Center=  1.8D-01,  3.9D+00,  1.8D+00, r^2= 2.2D+00
   Bfn.  Coefficient  Atom+Function         Bfn.  Coefficient  Atom+Function  
  ----- ------------  ---------------      ----- ------------  ---------------
    34      1.312878  4 H  s                 36     -0.655831  5 H  s          
    22     -0.590797  2 N  px                23     -0.500944  2 N  py         
    18     -0.398055  2 N  px                32     -0.385674  3 H  s          
    19     -0.298830  2 N  py                33      0.248473  4 H  s          
     7      0.146853  1 F  px                21     -0.130135  2 N  s          

 Vector   13  Occ=0.000000D+00  E= 2.170156D-02
              MO Center=  4.8D-02,  2.8D+00,  1.3D+00, r^2= 1.1D+00
   Bfn.  Coefficient  Atom+Function         Bfn.  Coefficient  Atom+Function  
  ----- ------------  ---------------      ----- ------------  ---------------
    21      0.634455  2 N  s                 20      0.576683  2 N  pz         
    19      0.534970  2 N  py                23     -0.506131  2 N  py         
    24     -0.466732  2 N  pz                17     -0.413841  2 N  s          
    14     -0.309671  1 F  dyz               18     -0.249497  2 N  px         
    10      0.218134  1 F  dxx                2     -0.215461  1 F  s          

 Vector   14  Occ=0.000000D+00  E= 1.345844D-01
              MO Center= -1.3D-01,  3.2D+00,  1.8D+00, r^2= 2.0D+00
   Bfn.  Coefficient  Atom+Function         Bfn.  Coefficient  Atom+Function  
  ----- ------------  ---------------      ----- ------------  ---------------
     6      1.070079  1 F  s                 24      1.020436  2 N  pz         
    23      0.854947  2 N  py                21     -0.503961  2 N  s          
    22     -0.443817  2 N  px                 2     -0.389166  1 F  s          
    31     -0.384551  3 H  s                  8      0.277518  1 F  py         
    35     -0.250248  5 H  s                 13      0.234381  1 F  dyy        

 Vector   15  Occ=0.000000D+00  E= 2.376325D-01
              MO Center= -8.7D-02,  3.3D+00,  1.7D+00, r^2= 1.8D+00
   Bfn.  Coefficient  Atom+Function         Bfn.  Coefficient  Atom+Function  
  ----- ------------  ---------------      ----- ------------  ---------------
    22      0.784758  2 N  px                35      0.701815  5 H  s          
    24      0.680742  2 N  pz                23     -0.596519  2 N  py         
    31     -0.515193  3 H  s                 20     -0.338117  2 N  pz         
    18     -0.303478  2 N  px                19      0.210139  2 N  py         
    25      0.193647  2 N  dxx                9     -0.186008  1 F  pz         

 Vector   16  Occ=0.000000D+00  E= 2.512708D-01
              MO Center= -8.0D-02,  3.2D+00,  1.6D+00, r^2= 1.8D+00
   Bfn.  Coefficient  Atom+Function         Bfn.  Coefficient  Atom+Function  
  ----- ------------  ---------------      ----- ------------  ---------------
    23      0.978722  2 N  py                33     -0.833431  4 H  s          
    22      0.722758  2 N  px                18     -0.319014  2 N  px         
    26     -0.310045  2 N  dxy               19     -0.304060  2 N  py         
     6      0.280277  1 F  s                 31      0.246170  3 H  s          
    24     -0.208322  2 N  pz                35      0.192504  5 H  s          

 Vector   17  Occ=0.000000D+00  E= 3.378573D-01
              MO Center= -3.8D-01,  3.0D+00,  2.2D+00, r^2= 2.4D+00
   Bfn.  Coefficient  Atom+Function         Bfn.  Coefficient  Atom+Function  
  ----- ------------  ---------------      ----- ------------  ---------------
    32      1.533289  3 H  s                 36     -1.156969  5 H  s          
    24     -1.031695  2 N  pz                23      0.793134  2 N  py         
    22     -0.672058  2 N  px                20      0.576929  2 N  pz         
    31     -0.537437  3 H  s                 19     -0.460435  2 N  py         
    35      0.412478  5 H  s                 18      0.375882  2 N  px         

 Vector   18  Occ=0.000000D+00  E= 3.476052D-01
              MO Center= -2.8D-01,  3.5D+00,  1.8D+00, r^2= 2.5D+00
   Bfn.  Coefficient  Atom+Function         Bfn.  Coefficient  Atom+Function  
  ----- ------------  ---------------      ----- ------------  ---------------
    34     -1.349103  4 H  s                 22      1.340123  2 N  px         
    36      1.233424  5 H  s                 18     -0.727768  2 N  px         
    23      0.701943  2 N  py                32      0.688260  3 H  s          
    21     -0.451518  2 N  s                 35     -0.421709  5 H  s          
    33      0.405905  4 H  s                 19     -0.397233  2 N  py         

 Vector   19  Occ=0.000000D+00  E= 3.796203D-01
              MO Center= -6.4D-02,  3.5D+00,  1.9D+00, r^2= 2.4D+00
   Bfn.  Coefficient  Atom+Function         Bfn.  Coefficient  Atom+Function  
  ----- ------------  ---------------      ----- ------------  ---------------
    21      1.577303  2 N  s                 34     -1.175952  4 H  s          
    17     -0.810155  2 N  s                 23      0.695280  2 N  py         
    33      0.581002  4 H  s                 32     -0.576136  3 H  s          
    36     -0.577058  5 H  s                 31      0.559043  3 H  s          
    35      0.505293  5 H  s                 19     -0.314355  2 N  py         

 Vector   20  Occ=0.000000D+00  E= 7.536259D-01
              MO Center= -1.7D-01,  3.2D+00,  1.8D+00, r^2= 1.9D+00
   Bfn.  Coefficient  Atom+Function         Bfn.  Coefficient  Atom+Function  
  ----- ------------  ---------------      ----- ------------  ---------------
    21      3.541526  2 N  s                 17     -1.311706  2 N  s          
    34     -0.618787  4 H  s                 36     -0.590771  5 H  s          
     6      0.564324  1 F  s                 15     -0.550891  1 F  dzz        
    31     -0.523793  3 H  s                 32     -0.522480  3 H  s          
    35     -0.438958  5 H  s                 24      0.412122  2 N  pz         

 Vector   21  Occ=0.000000D+00  E= 8.515836D-01
              MO Center=  6.1D-02,  2.8D+00,  1.3D+00, r^2= 1.1D+00
   Bfn.  Coefficient  Atom+Function         Bfn.  Coefficient  Atom+Function  
  ----- ------------  ---------------      ----- ------------  ---------------
    21      0.765717  2 N  s                 11      0.484625  1 F  dxy        
    26     -0.454778  2 N  dxy               13     -0.441360  1 F  dyy        
    29     -0.433304  2 N  dyz               30     -0.420909  2 N  dzz        
    28      0.405626  2 N  dyy               15      0.400724  1 F  dzz        
    10     -0.367865  1 F  dxx                6      0.294755  1 F  s          

 Vector   22  Occ=0.000000D+00  E= 8.844869D-01
              MO Center=  6.7D-02,  2.8D+00,  1.3D+00, r^2= 1.1D+00
   Bfn.  Coefficient  Atom+Function         Bfn.  Coefficient  Atom+Function  
  ----- ------------  ---------------      ----- ------------  ---------------
    27      1.027416  2 N  dxz               11     -0.690770  1 F  dxy        
    13     -0.546009  1 F  dyy               21      0.373713  2 N  s          
     6      0.355914  1 F  s                 12     -0.300724  1 F  dxz        
    25     -0.255232  2 N  dxx               14     -0.231529  1 F  dyz        
    33     -0.227444  4 H  s                 28      0.184457  2 N  dyy        

 Vector   23  Occ=0.000000D+00  E= 9.174641D-01
              MO Center=  3.7D-01,  2.0D+00,  6.0D-01, r^2= 9.5D-01
   Bfn.  Coefficient  Atom+Function         Bfn.  Coefficient  Atom+Function  
  ----- ------------  ---------------      ----- ------------  ---------------
     6      2.698417  1 F  s                 10     -1.133244  1 F  dxx        
    15     -1.051651  1 F  dzz                2     -1.024332  1 F  s          
    13     -1.004239  1 F  dyy                9     -0.595009  1 F  pz         
     8     -0.590320  1 F  py                 5      0.487475  1 F  pz         
     4      0.465156  1 F  py                29      0.357802  2 N  dyz        

 Vector   24  Occ=0.000000D+00  E= 1.017857D+00
              MO Center=  2.7D-01,  2.3D+00,  7.7D-01, r^2= 8.1D-01
   Bfn.  Coefficient  Atom+Function         Bfn.  Coefficient  Atom+Function  
  ----- ------------  ---------------      ----- ------------  ---------------
    12      0.823747  1 F  dxz                3      0.788844  1 F  px         
     7     -0.697539  1 F  px                26     -0.331077  2 N  dxy        
    27      0.312756  2 N  dxz                4      0.303454  1 F  py         
     8     -0.284890  1 F  py                10     -0.215500  1 F  dxx        
    11     -0.195937  1 F  dxy                6      0.132933  1 F  s          

 Vector   25  Occ=0.000000D+00  E= 1.030995D+00
              MO Center=  2.7D-01,  2.2D+00,  9.0D-01, r^2= 7.9D-01
   Bfn.  Coefficient  Atom+Function         Bfn.  Coefficient  Atom+Function  
  ----- ------------  ---------------      ----- ------------  ---------------
     5      0.719194  1 F  pz                 9     -0.633375  1 F  pz         
     4     -0.572923  1 F  py                 8      0.522903  1 F  py         
    14      0.328383  1 F  dyz               11      0.294714  1 F  dxy        
    10      0.256756  1 F  dxx                3      0.238520  1 F  px         
    21     -0.226790  2 N  s                  7     -0.218659  1 F  px         

 Vector   26  Occ=0.000000D+00  E= 1.098533D+00
              MO Center=  2.7D-01,  2.4D+00,  8.3D-01, r^2= 7.9D-01
   Bfn.  Coefficient  Atom+Function         Bfn.  Coefficient  Atom+Function  
  ----- ------------  ---------------      ----- ------------  ---------------
    14      0.899178  1 F  dyz               10      0.724460  1 F  dxx        
    12      0.388560  1 F  dxz               13     -0.360771  1 F  dyy        
    11      0.304200  1 F  dxy               15     -0.304459  1 F  dzz        
    24     -0.263791  2 N  pz                 9      0.253941  1 F  pz         
    23      0.248950  2 N  py                 5     -0.246516  1 F  pz         

 Vector   27  Occ=0.000000D+00  E= 1.125309D+00
              MO Center=  1.9D-01,  2.3D+00,  9.8D-01, r^2= 8.6D-01
   Bfn.  Coefficient  Atom+Function         Bfn.  Coefficient  Atom+Function  
  ----- ------------  ---------------      ----- ------------  ---------------
    12      1.104180  1 F  dxz               11     -0.873083  1 F  dxy        
     3     -0.442570  1 F  px                 7      0.444232  1 F  px         
    22     -0.393681  2 N  px                27     -0.317800  2 N  dxz        
     8      0.254521  1 F  py                 4     -0.248023  1 F  py         
    23     -0.237250  2 N  py                33      0.220050  4 H  s          

 Vector   28  Occ=0.000000D+00  E= 1.307609D+00
              MO Center=  1.9D-01,  2.5D+00,  1.0D+00, r^2= 1.4D+00
   Bfn.  Coefficient  Atom+Function         Bfn.  Coefficient  Atom+Function  
  ----- ------------  ---------------      ----- ------------  ---------------
     6      4.239140  1 F  s                 21     -2.065064  2 N  s          
     2     -1.424408  1 F  s                 15     -1.156617  1 F  dzz        
    13     -1.095999  1 F  dyy               14     -0.922796  1 F  dyz        
    17      0.894375  2 N  s                 10     -0.704234  1 F  dxx        
    23      0.656853  2 N  py                24      0.593526  2 N  pz         

 Vector   29  Occ=0.000000D+00  E= 1.578174D+00
              MO Center=  5.0D-02,  3.0D+00,  1.4D+00, r^2= 1.3D+00
   Bfn.  Coefficient  Atom+Function         Bfn.  Coefficient  Atom+Function  
  ----- ------------  ---------------      ----- ------------  ---------------
    26      1.017683  2 N  dxy               27     -0.939387  2 N  dxz        
    22      0.759180  2 N  px                11     -0.707868  1 F  dxy        
    33     -0.645833  4 H  s                 23      0.598901  2 N  py         
     7     -0.533774  1 F  px                35      0.420796  5 H  s          
    10      0.302608  1 F  dxx                3      0.296199  1 F  px         

 Vector   30  Occ=0.000000D+00  E= 1.702408D+00
              MO Center= -1.2D-01,  3.0D+00,  1.6D+00, r^2= 1.2D+00
   Bfn.  Coefficient  Atom+Function         Bfn.  Coefficient  Atom+Function  
  ----- ------------  ---------------      ----- ------------  ---------------
    25      0.899568  2 N  dxx               31      0.668165  3 H  s          
    35     -0.628549  5 H  s                 23      0.611956  2 N  py         
    29      0.613908  2 N  dyz               27      0.517603  2 N  dxz        
    15      0.484216  1 F  dzz               30     -0.458660  2 N  dzz        
    24     -0.440534  2 N  pz                22     -0.397171  2 N  px         

 Vector   31  Occ=0.000000D+00  E= 1.769315D+00
              MO Center= -2.2D-02,  2.9D+00,  1.4D+00, r^2= 1.2D+00
   Bfn.  Coefficient  Atom+Function         Bfn.  Coefficient  Atom+Function  
  ----- ------------  ---------------      ----- ------------  ---------------
     6      1.094845  1 F  s                 29      1.033721  2 N  dyz        
    15     -0.915174  1 F  dzz               30     -0.704429  2 N  dzz        
    26     -0.677882  2 N  dxy                2     -0.469148  1 F  s          
    28      0.462729  2 N  dyy               31      0.460635  3 H  s          
    11     -0.422263  1 F  dxy               27     -0.406039  2 N  dxz        

 Vector   32  Occ=0.000000D+00  E= 1.810241D+00
              MO Center=  3.0D-02,  2.8D+00,  1.5D+00, r^2= 1.2D+00
   Bfn.  Coefficient  Atom+Function         Bfn.  Coefficient  Atom+Function  
  ----- ------------  ---------------      ----- ------------  ---------------
    29      1.299079  2 N  dyz                6      1.153582  1 F  s          
    13     -0.910539  1 F  dyy               10     -0.535523  1 F  dxx        
    30      0.521331  2 N  dzz               11      0.514547  1 F  dxy        
     2     -0.499109  1 F  s                 25     -0.471506  2 N  dxx        
    24     -0.439272  2 N  pz                27     -0.432676  2 N  dxz        

 Vector   33  Occ=0.000000D+00  E= 1.860081D+00
              MO Center= -4.7D-03,  2.9D+00,  1.5D+00, r^2= 1.2D+00
   Bfn.  Coefficient  Atom+Function         Bfn.  Coefficient  Atom+Function  
  ----- ------------  ---------------      ----- ------------  ---------------
[...]
     2     -0.609188  1 F  s                  9      0.476140  1 F  pz         
    24      0.450772  2 N  pz                 8      0.394366  1 F  py         

 Nuclear repulsion energy =   36.952578088573858     
 Bq nuclear interaction energy =   3.1016712729520548     

 center of mass
 --------------
 x =   0.09277949 y =   5.33128051 z =   2.50394953

 moments of inertia (a.u.)
 ------------------
          50.631853403295           7.880340898459           9.422216406583
           7.880340898459          37.774519706685         -19.824724218211
           9.422216406583         -19.824724218211          30.637743444155

     Multipole analysis of the density
     ---------------------------------

     L   x y z        total         alpha         beta         nuclear
     -   - - -        -----         -----         ----         -------
     0   0 0 0      1.000000     -8.000000     -8.000000     17.000000

     1   1 0 0     -0.202811     -0.737600     -0.737600      1.272390
     1   0 1 0      5.708333    -42.747025    -42.747025     91.202383
     1   0 0 1      3.088174    -20.097225    -20.097225     43.282624

     2   2 0 0     -6.865632     -7.135776     -7.135776      7.405920
     2   1 1 0     -1.544879     -1.862081     -1.862081      2.179282
     2   1 0 1     -0.978623      0.664001      0.664001     -2.306625
     2   0 2 0     26.898850   -238.651826   -238.651826    504.202501
     2   0 1 1     18.910799   -112.488729   -112.488729    243.888258
     2   0 0 2      3.759328    -62.762582    -62.762582    129.284493


 Parallel integral file used       8 records with       0 large values

 Bq nuclear interaction energy =   3.5466045261686836     
------------------------------------------------------------------------
 QM/MM Energy
------------------------------------------------------------------------
 quantum energy                       -85.030806419 (-.223248E+06  kjoule/mol)
 quantum energy adjusted               -1.030806419 (-.270638E+04  kjoule/mol)
 quantum energy internal              -85.639998807 (-.224848E+06  kjoule/mol)
 Bq-nuclear energy                      3.546604526 (0.931161E+04  kjoule/mol)
 Bq-electron energy                    -2.937412138 (-.771218E+04  kjoule/mol)
 classical energy                       0.056560667 (0.148500E+03  kjoule/mol)
 total qmmm energy                     -0.974245751 (-.255788E+04  kjoule/mol)
------------------------------------------------------------------------

 Line search: 
     step= 1.00 grad=-3.0D-04 hess= 1.5D-04 energy=     -0.974246 mode=accept  
 new step= 1.00                   predicted energy=     -0.974246

          --------
          Step   5
          --------


                         Geometry "geometry" -> "geometry"
                         ---------------------------------

 Output coordinates in angstroms (scale by  1.889725989 to convert to a.u.)

  No.       Tag          Charge          X              Y              Z
 ---- ---------------- ---------- -------------- -------------- --------------
    1 C                    6.0000     0.28618465     2.32593995     0.73012412
    2 N                    7.0000    -0.09624314     3.12987462     1.69352345
    3 H                    1.0000    -0.08266954     2.62582533     2.61602842
    4 H                    1.0000     0.50830149     3.98183071     1.78805518
    5 H                    1.0000    -1.08190285     3.46386838     1.53456311

      Atomic Mass 
      ----------- 

      C                 12.000000
      N                 14.003070
      H                  1.007825


 Effective nuclear repulsion energy (a.u.)      33.3180368986

            Nuclear Dipole moment (a.u.) 
            ----------------------------
        X                 Y               Z
 ---------------- ---------------- ----------------
     0.7315792297    86.8069942301    41.9028891920

 Total number of active Bq charges                    19
 frozen_density,esp F F
         5
   
  F_L           0.286185        2.325940        0.730124        16
  N            -0.096243        3.129875        1.693523        19
  H            -0.082670        2.625825        2.616028        20
  H             0.508301        3.981831        1.788055        21
  H            -1.081903        3.463868        1.534563        22

                                 NWChem DFT Module
                                 -----------------


                               QM/MM of Lys monomer




 Summary of "ao basis" -> "ao basis" (cartesian)
 ------------------------------------------------------------------------------
       Tag                 Description            Shells   Functions and Types
 ---------------- ------------------------------  ------  ---------------------
 F_L                         6-31G*                  6       15   3s2p1d
 N                           6-31G*                  6       15   3s2p1d
 H                           6-31G*                  2        2   2s


 Nuclear repulsion energy =   36.952578088573858     
 Bq nuclear interaction energy =   3.1016712729520548     

  The DFT is already converged 

         Total DFT energy =    -85.030806418751


            General Information
            -------------------
          SCF calculation type: DFT
          Wavefunction type:  closed shell.
          No. of atoms     :     5
          No. of electrons :    16
           Alpha electrons :     8
            Beta electrons :     8
          Charge           :     1
          Spin multiplicity:     1
          Use of symmetry is: off; symmetry adaption is: off
          Maximum number of iterations: 100
          AO basis - number of functions:    36
                     number of shells:    18
          Convergence on energy requested:  1.00D-06
          Convergence on density requested:  1.00D-05
          Convergence on gradient requested:  5.00D-04

              XC Information
              --------------
                        Slater Exchange Functional  1.000 local    
                      VWN V Correlation Functional  1.000 local    

             Grid Information
             ----------------
          Grid used for XC integration:  medium    
          Radial quadrature: Mura-Knowles        
          Angular quadrature: Lebedev. 
          Tag              B.-S. Rad. Rad. Pts. Rad. Cut. Ang. Pts.
          ---              ---------- --------- --------- ---------
          F_L                 0.50       49           6.0       434
          N                   0.65       49           5.0       434
          H                   0.35       45           6.0       434
          Grid pruning is: on 
          Number of quadrature shells:   233
          Spatial weights used:  Erf1

          Convergence Information
          -----------------------
          Convergence aids based upon iterative change in 
          total energy or number of iterations. 
          Levelshifting, if invoked, occurs when the 
          HOMO/LUMO gap drops below (HL_TOL):  1.00D-02
          DIIS, if invoked, will attempt to extrapolate 
          using up to (NFOCK): 10 stored Fock matrices.

                    Damping( 0%)  Levelshifting(0.5)       DIIS
                  --------------- ------------------- ---------------
          dE  on:    start            ASAP                start   
          dE off:    2 iters        100 iters           100 iters 


      Screening Tolerance Information
      -------------------------------
          Density screening/tol_rho:  1.00D-10
          AO Gaussian exp screening on grid/accAOfunc:  14
          CD Gaussian exp screening on grid/accCDfunc:  20
          XC Gaussian exp screening on grid/accXCfunc:  20
          Schwarz screening/accCoul:  1.00D-08



                            NWChem DFT Gradient Module
                            --------------------------


                               QM/MM of Lys monomer



  charge          =   1.00
  wavefunction    = closed shell



                         DFT ENERGY GRADIENTS

    atom               coordinates                        gradient
                 x          y          z           x          y          z
   1 F_L     0.540811   4.395389   1.379735    0.024945   0.007872  -0.024033
   2 N      -0.181873   5.914605   3.200295   -0.002174  -0.001717   0.004021
   3 H      -0.156223   4.962090   4.943577   -0.001779   0.000683  -0.000437
   4 H       0.960551   7.524569   3.378934   -0.002818  -0.000679   0.001694
   5 H      -2.044500   6.545762   2.899904   -0.000610   0.000249   0.002137

                 ----------------------------------------
                 |  Time  |  1-e(secs)   |  2-e(secs)   |
                 ----------------------------------------
                 |  CPU   |       0.00   |       0.08   |
                 ----------------------------------------
                 |  WALL  |       0.00   |       0.08   |
                 ----------------------------------------
 Bq nuclear interaction energy =   3.5466045261686836     
              Calculating forces on classical charges
              ---------------------------------------
 Total number of charges                   19
                              NWChem Property Module
                              ----------------------


                               QM/MM of Lys monomer

 scftyp:RHF
 theory:dft                           
------------------------------------------------------------------------
 QM/MM Energy
------------------------------------------------------------------------
 quantum energy                       -85.030806419 (-.223248E+06  kjoule/mol)
 quantum energy adjusted               -1.030806419 (-.270638E+04  kjoule/mol)
 quantum energy internal              -85.639998807 (-.224848E+06  kjoule/mol)
 Bq-nuclear energy                      3.546604526 (0.931161E+04  kjoule/mol)
 Bq-electron energy                    -2.937412138 (-.771218E+04  kjoule/mol)
 classical energy                       0.056560667 (0.148500E+03  kjoule/mol)
 total qmmm energy                     -0.974245751 (-.255788E+04  kjoule/mol)
------------------------------------------------------------------------


  Step       Energy      Delta E   Gmax     Grms     Xrms     Xmax   Walltime
  ---- ---------------- -------- -------- -------- -------- -------- --------
@    5      -0.97424575 -1.6D-04  0.00245  0.00148  0.01532  0.03090      3.5
                                                                    


 ---------------------------------------------------------------
 Failed to converge in maximum number of steps or available time
 ---------------------------------------------------------------


  Step       Energy      Delta E   Gmax     Grms     Xrms     Xmax   Walltime
  ---- ---------------- -------- -------- -------- -------- -------- --------
@    5      -0.97424575 -1.6D-04  0.00245  0.00148  0.01532  0.03090      3.5
                                                                    



                         Geometry "geometry" -> "geometry"
                         ---------------------------------

 Output coordinates in angstroms (scale by  1.889725989 to convert to a.u.)

  No.       Tag          Charge          X              Y              Z
 ---- ---------------- ---------- -------------- -------------- --------------
    1 C                    6.0000     0.28618465     2.32593995     0.73012412
    2 N                    7.0000    -0.09624314     3.12987462     1.69352345
    3 H                    1.0000    -0.08266954     2.62582533     2.61602842
    4 H                    1.0000     0.50830149     3.98183071     1.78805518
    5 H                    1.0000    -1.08190285     3.46386838     1.53456311

      Atomic Mass 
      ----------- 

      C                 12.000000
      N                 14.003070
      H                  1.007825


 Effective nuclear repulsion energy (a.u.)      33.3180368986

            Nuclear Dipole moment (a.u.) 
            ----------------------------
        X                 Y               Z
 ---------------- ---------------- ----------------
     0.7315792297    86.8069942301    41.9028891920

 ==============================================================================
                                internuclear distances
 ------------------------------------------------------------------------------
       center one      |      center two      | atomic units |  angstroms
 ------------------------------------------------------------------------------
    2 N                |   1 C                |     2.47886  |     1.31175
    3 H                |   2 N                |     1.98670  |     1.05132
    4 H                |   2 N                |     1.98218  |     1.04892
    5 H                |   2 N                |     1.98947  |     1.05278
 ------------------------------------------------------------------------------
                         number of included internuclear distances:          4
 ==============================================================================



 ==============================================================================
                                 internuclear angles
 ------------------------------------------------------------------------------
        center 1       |       center 2       |       center 3       |  degrees
 ------------------------------------------------------------------------------
    1 C                |   2 N                |   3 H                |   110.29
    1 C                |   2 N                |   4 H                |   113.33
    1 C                |   2 N                |   5 H                |   110.88
    3 H                |   2 N                |   4 H                |   107.63
    3 H                |   2 N                |   5 H                |   107.26
    4 H                |   2 N                |   5 H                |   107.19
 ------------------------------------------------------------------------------
                            number of included internuclear angles:          6
 ==============================================================================



 Total number of active Bq charges                    19
 frozen_density,esp F F
         5
   
  F_L           0.286185        2.325940        0.730124        16
  N            -0.096243        3.129875        1.693523        19
  H            -0.082670        2.625825        2.616028        20
  H             0.508301        3.981831        1.788055        21
  H            -1.081903        3.463868        1.534563        22

                                 NWChem DFT Module
                                 -----------------


                               QM/MM of Lys monomer




 Summary of "ao basis" -> "ao basis" (cartesian)
 ------------------------------------------------------------------------------
       Tag                 Description            Shells   Functions and Types
 ---------------- ------------------------------  ------  ---------------------
 F_L                         6-31G*                  6       15   3s2p1d
 N                           6-31G*                  6       15   3s2p1d
 H                           6-31G*                  2        2   2s


 Nuclear repulsion energy =   36.952578088573858     
 Bq nuclear interaction energy =   3.1016712729520548     

  The DFT is already converged 

         Total DFT energy =    -85.030806418751

 Bq nuclear interaction energy =   3.5466045261686836     
@------------------------------------------------------------------------
@ QM/MM Energy
@------------------------------------------------------------------------
@ quantum energy                      -85.030806419 (-.223248E+06  kjoule/mol)
@ quantum energy adjusted              -1.030806419 (-.270638E+04  kjoule/mol)
@ quantum energy internal             -85.639998807 (-.224848E+06  kjoule/mol)
@ Bq-nuclear energy                     3.546604526 (0.931161E+04  kjoule/mol)
@ Bq-electron energy                   -2.937412138 (-.771218E+04  kjoule/mol)
@ classical energy                      0.056560667 (0.148500E+03  kjoule/mol)
@ total qmmm energy                    -0.974245751 (-.255788E+04  kjoule/mol)
@------------------------------------------------------------------------

@------------------------------------------------
@
@  OPTIMIZATION FINISHED 
@

 Task  times  cpu:        3.2s     wall:        3.5s


                                NWChem Input Module
                                -------------------


 Summary of allocated global arrays
-----------------------------------
  No active global arrays



                         GA Statistics for process    0
                         ------------------------------

       create   destroy   get      put      acc     scatter   gather  read&inc
calls: 1431     1431     5.73e+04 1.19e+04 1.98e+04    0        0     2146     
number of processes/call 1.13e+00 1.23e+00 1.12e+00 0.00e+00 0.00e+00
bytes total:             3.86e+07 8.44e+06 1.65e+07 0.00e+00 0.00e+00 1.72e+04
bytes remote:            6.67e+06 9.43e+05 3.02e+06 0.00e+00 0.00e+00 0.00e+00
Max memory consumed for GA by this process: 296024 bytes

MA_summarize_allocated_blocks: starting scan ...
MA_summarize_allocated_blocks: scan completed: 0 heap blocks, 0 stack blocks
MA usage statistics:

	allocation statistics:
					      heap	     stack
					      ----	     -----
	current number of blocks	         0	         0
	maximum number of blocks	        77	       137
	current total bytes		         0	         0
	maximum total bytes		 264841184	 492190024
	maximum total K-bytes		    264842	    492191
	maximum total M-bytes		       265	       493


                                     CITATION
                                     --------
                Please cite the following reference when publishing
                           results obtained with NWChem:

                 M. Valiev, E.J. Bylaska, N. Govind, K. Kowalski,
              T.P. Straatsma, H.J.J. van Dam, D. Wang, J. Nieplocha,
                        E. Apra, T.L. Windus, W.A. de Jong
                 "NWChem: a comprehensive and scalable open-source
                  solution for large scale molecular simulations"
                      Comput. Phys. Commun. 181, 1477 (2010)
                           doi:10.1016/j.cpc.2010.04.018

                                      AUTHORS
                                      -------
          E. Apra, E. J. Bylaska, W. A. de Jong, N. Govind, K. Kowalski,
       T. P. Straatsma, M. Valiev, H. J. J. van Dam, D. Wang, T. L. Windus,
        J. Hammond, J. Autschbach, K. Bhaskaran-Nair, J. Brabec, K. Lopata,
    S. A. Fischer, S. Krishnamoorthy, M. Jacquelin, W. Ma, M. Klemm, O. Villa,
      Y. Chen, V. Anisimov, F. Aquino, S. Hirata, M. T. Hackler, V. Konjkov,
            D. Mejia-Rodriguez, T. Risthaus, M. Malagoli, A. Marenich,
   A. Otero-de-la-Roza, J. Mullin, P. Nichols, R. Peverati, J. Pittner, Y. Zhao,
        P.-D. Fan, A. Fonari, M. J. Williamson, R. J. Harrison, J. R. Rehr,
      M. Dupuis, D. Silverstein, D. M. A. Smith, J. Nieplocha, V. Tipparaju,
    M. Krishnan, B. E. Van Kuiken, A. Vazquez-Mayagoitia, L. Jensen, M. Swart,
      Q. Wu, T. Van Voorhis, A. A. Auer, M. Nooijen, L. D. Crosby, E. Brown,
      G. Cisneros, G. I. Fann, H. Fruchtl, J. Garza, K. Hirao, R. A. Kendall,
      J. A. Nichols, K. Tsemekhman, K. Wolinski, J. Anchell, D. E. Bernholdt,
      P. Borowski, T. Clark, D. Clerc, H. Dachsel, M. J. O. Deegan, K. Dyall,
    D. Elwood, E. Glendening, M. Gutowski, A. C. Hess, J. Jaffe, B. G. Johnson,
     J. Ju, R. Kobayashi, R. Kutteh, Z. Lin, R. Littlefield, X. Long, B. Meng,
      T. Nakajima, S. Niu, L. Pollack, M. Rosing, K. Glaesemann, G. Sandrone,
      M. Stave, H. Taylor, G. Thomas, J. H. van Lenthe, A. T. Wong, Z. Zhang.

 Total times  cpu:        3.2s     wall:        3.5s
[0] ARMCI Warning: Freed 1 leaked allocations
