 argument  1 = /home/list1234/source/nwchem-6.8.1-release/QA/tests/5h2o_core/5h2o_core.nw



============================== echo of input deck ==============================
echo

start 5h2o_core

memory 1000 mb

geometry
symmetry c1
O      2.289015       0.225784       0.175030
H      1.837891      -0.638872       0.046444
H      2.811304       0.122451       0.974687
O      0.929887      -2.095904      -0.167528
H     -0.037083      -1.936553      -0.084181
H      1.034959      -2.583078      -0.988978
O     -1.718101      -1.549268       0.073447
H     -1.882083      -0.580570       0.056990
H     -2.170566      -1.871677       0.857083
O     -1.987637       1.157925      -0.077866
H     -1.103971       1.590183      -0.076556
H     -2.534625       1.699982       0.496152
O      0.498426       2.249945      -0.063688
H      1.178269       1.547359       0.044627
H      0.773193       2.742924      -0.841426
end

basis
  O library 6-31g
  H library 6-31g
end

dft
  xc beckehandh
end

tddft
  cis
  ecut -10    # energy cutoff of occupied states in au
  nroots 10
  notriplet
end
task tddft
================================================================================


                                         
                                         


              Northwest Computational Chemistry Package (NWChem) 6.8
              ------------------------------------------------------


                    Environmental Molecular Sciences Laboratory
                       Pacific Northwest National Laboratory
                                Richland, WA 99352

                              Copyright (c) 1994-2018
                       Pacific Northwest National Laboratory
                            Battelle Memorial Institute

             NWChem is an open-source computational chemistry package
                        distributed under the terms of the
                      Educational Community License (ECL) 2.0
             A copy of the license is included with this distribution
                              in the LICENSE.TXT file

                                  ACKNOWLEDGMENT
                                  --------------

            This software and its documentation were developed at the
            EMSL at Pacific Northwest National Laboratory, a multiprogram
            national laboratory, operated for the U.S. Department of Energy
            by Battelle under Contract Number DE-AC05-76RL01830. Support
            for this work was provided by the Department of Energy Office
            of Biological and Environmental Research, Office of Basic
            Energy Sciences, and the Office of Advanced Scientific Computing.


           Job information
           ---------------

    hostname        = list1234-B360M-H
    program         = /home/list1234/source/nwchem-6.8.1-release/bin/LINUX64/nwchem
    date            = Sun Jun 30 08:00:02 2019

    compiled        = Sun_Jun_30_05:21:11_2019
    source          = /home/list1234/source/nwchem-6.8.1-release
    nwchem branch   = Development
    nwchem revision = N/A
    ga revision     = 5.6.5
    use scalapack   = T
    input           = /home/list1234/source/nwchem-6.8.1-release/QA/tests/5h2o_core/5h2o_core.nw
    prefix          = 5h2o_core.
    data base       = ./5h2o_core.db
    status          = startup
    nproc           =        4
    time left       =     -1s



           Memory information
           ------------------

    heap     =   32767996 doubles =    250.0 Mbytes
    stack    =   32768001 doubles =    250.0 Mbytes
    global   =   65536000 doubles =    500.0 Mbytes (distinct from heap & stack)
    total    =  131071997 doubles =   1000.0 Mbytes
    verify   = yes
    hardfail = no 


           Directory information
           ---------------------

  0 permanent = .
  0 scratch   = .




                                NWChem Input Module
                                -------------------



 Scaling coordinates for geometry "geometry" by  1.889725989
 (inverse scale =  0.529177249)

 Turning off AUTOSYM since
 SYMMETRY directive was detected!


          ------
          auto-z
          ------
  autoz: The atoms group into disjoint clusters
 cluster   1:    1    2    3
 cluster   2:    4    5    6
 cluster   3:    7    8    9
 cluster   4:   10   11   12
 cluster   5:   13   14   15
 Connecting clusters   1   2 via atoms    2    4 r = 1.73
 Connecting clusters   1   3 via atoms    2    7 r = 3.67
 Connecting clusters   1   4 via atoms    1   11 r = 3.67
 Connecting clusters   1   5 via atoms    1   14 r = 1.73
 Connecting clusters   2   3 via atoms    5    7 r = 1.73
 Connecting clusters   2   4 via atoms    5   10 r = 3.66
 Connecting clusters   2   5 via atoms    4   14 r = 3.66
 Connecting clusters   3   4 via atoms    8   10 r = 1.75
 Connecting clusters   3   5 via atoms    8   13 r = 3.70
 Connecting clusters   4   5 via atoms   11   13 r = 1.73
  autoz: regenerating connections with new bonds
  no constraints, skipping    0.0000000000000000     
  no constraints, skipping    0.0000000000000000     


                             Geometry "geometry" -> ""
                             -------------------------

 Output coordinates in angstroms (scale by  1.889725989 to convert to a.u.)

  No.       Tag          Charge          X              Y              Z
 ---- ---------------- ---------- -------------- -------------- --------------
    1 O                    8.0000     2.28901484     0.22578390     0.17502996
    2 H                    1.0000     1.83789084    -0.63887210     0.04644396
    3 H                    1.0000     2.81130384     0.12245090     0.97468696
    4 O                    8.0000     0.92988684    -2.09590410    -0.16752804
    5 H                    1.0000    -0.03708316    -1.93655310    -0.08418104
    6 H                    1.0000     1.03495884    -2.58307810    -0.98897804
    7 O                    8.0000    -1.71810116    -1.54926810     0.07344696
    8 H                    1.0000    -1.88208316    -0.58057010     0.05698996
    9 H                    1.0000    -2.17056616    -1.87167710     0.85708296
   10 O                    8.0000    -1.98763716     1.15792490    -0.07786604
   11 H                    1.0000    -1.10397116     1.59018290    -0.07655604
   12 H                    1.0000    -2.53462516     1.69998190     0.49615196
   13 O                    8.0000     0.49842584     2.24994490    -0.06368804
   14 H                    1.0000     1.17826884     1.54735890     0.04462696
   15 H                    1.0000     0.77319284     2.74292390    -0.84142604

      Atomic Mass 
      ----------- 

      O                 15.994910
      H                  1.007825


 Effective nuclear repulsion energy (a.u.)     203.5601427232

            Nuclear Dipole moment (a.u.) 
            ----------------------------
        X                 Y               Z
 ---------------- ---------------- ----------------
    -0.0000000000     0.0000000000     0.0000000000



                                Z-matrix (autoz)
                                -------- 

 Units are Angstrom for bonds and degrees for angles

      Type          Name      I     J     K     L     M      Value
      ----------- --------  ----- ----- ----- ----- ----- ----------
    1 Stretch                  1    11                       3.66568
    2 Stretch                  1    14                       1.73128
    3 Stretch                  1     2                       0.98371
    4 Stretch                  1     3                       0.96068
    5 Stretch                  2     4                       1.73009
    6 Stretch                  2     7                       3.67078
    7 Stretch                  4    14                       3.65788
    8 Stretch                  4     5                       0.98355
    9 Stretch                  4     6                       0.96081
   10 Stretch                  5     7                       1.73224
   11 Stretch                  5    10                       3.65794
   12 Stretch                  7     8                       0.98262
   13 Stretch                  7     9                       0.96060
   14 Stretch                  8    10                       1.74691
   15 Stretch                  8    13                       3.70043
   16 Stretch                 10    11                       0.98372
   17 Stretch                 10    12                       0.96048
   18 Stretch                 11    13                       1.73295
   19 Stretch                 13    14                       0.98364
   20 Stretch                 13    15                       0.96094
   21 Bend                     1    11    13                44.38309
   22 Bend                     1    11    10               131.91289
   23 Bend                     1    14     4                44.57202
   24 Bend                     1     2     7               131.39840
   25 Bend                     2     4    14                28.16167
   26 Bend                     2     4     5               111.65755
   27 Bend                     2     4     6               118.38299
   28 Bend                     2     7     5                27.71105
   29 Bend                     2     7     8                85.24143
   30 Bend                     2     7     9               123.06119
   31 Bend                     2     1    11                83.89858
   32 Bend                     2     1    14               111.52456
   33 Bend                     2     1     3               105.28278
   34 Bend                     3     1    11               126.89736
   35 Bend                     3     1    14               119.57784
   36 Bend                     4     2     7                44.24370
   37 Bend                     4    14    13               131.15515
   38 Bend                     4     5    10               131.41101
   39 Bend                     5     7     8               112.38521
   40 Bend                     5     7     9               117.14782
   41 Bend                     5    10     8                29.07612
   42 Bend                     5    10    11                83.84177
   43 Bend                     5    10    12               141.45674
   44 Bend                     5     4    14                84.28817
   45 Bend                     5     4     6               105.19549
   46 Bend                     6     4    14               123.17374
   47 Bend                     7     5    10                45.02778
   48 Bend                     7     8    10               172.96076
   49 Bend                     7     8    13               130.33599
   50 Bend                     8    10    11               112.51423
   51 Bend                     8    10    12               123.36140
   52 Bend                     8    13    11                27.64825
   53 Bend                     8    13    14                83.95399
   54 Bend                     8    13    15               127.06742
   55 Bend                     8     7     9               105.42251
   56 Bend                    10     8    13                43.54137
   57 Bend                    11     1    14                27.97605
   58 Bend                    11    13    14               111.59014
   59 Bend                    11    13    15               116.98124
   60 Bend                    11    10    12               105.23556
   61 Bend                    14    13    15               104.94745
   62 Torsion                  1    11    13     8           0.34995
   63 Torsion                  1    11    13    14          -1.43728
   64 Torsion                  1    11    13    15         119.40968
   65 Torsion                  1    11    10     5          -5.33076
   66 Torsion                  1    11    10     8          -0.39773
   67 Torsion                  1    11    10    12         136.47755
   68 Torsion                  1    14     4     2          -0.72631
   69 Torsion                  1    14     4     5         165.85724
   70 Torsion                  1    14     4     6         -89.70502
   71 Torsion                  1     2     7     5         179.94532
   72 Torsion                  1     2     7     8          11.34121
   73 Torsion                  1     2     7     9         -93.97957
   74 Torsion                  2     4    14    13         177.47904
   75 Torsion                  2     4     7     8          12.37899
   76 Torsion                  2     4     7     9        -109.22154
   77 Torsion                  4     2     5     7        -179.68169
   78 Torsion                  2     4     5    10          13.80115
   79 Torsion                  2     7     5    10         -14.19205
   80 Torsion                  2     7     4    14          -6.72482
   81 Torsion                  2     7     4     6        -129.04179
   82 Torsion                  4     5     2     7         179.68169
   83 Torsion                  2     7     8    10          29.28452
   84 Torsion                  2     7     8    13           1.29380
   85 Torsion                  2     1    11    13        -169.43308
   86 Torsion                  2     1    11    10          10.58466
   87 Torsion                  2     1    14     4           0.64807
   88 Torsion                  2     1    13     8          11.02313
   89 Torsion                  2     1    13    11          11.18736
   90 Torsion                  2     1    13    15        -115.18740
   91 Torsion                  1     2    14    13         177.21703
   92 Torsion                  3     1    11    13          86.01694
   93 Torsion                  3     1    11    10         -93.96532
   94 Torsion                  3     1    14     4        -122.69504
   95 Torsion                  3     1    13     8        -111.89277
   96 Torsion                  3     1    13    11        -111.72855
   97 Torsion                  3     1    13    15         121.89670
   98 Torsion                  1     3    14    13         170.49604
   99 Torsion                  3     1     4    14         130.21025
  100 Torsion                  3     1     4     5         115.20793
  101 Torsion                  3     1     4     6        -123.22255
  102 Torsion                  1     3     2     4        -173.29310
  103 Torsion                  3     1     2     7         116.20732
  104 Torsion                  4     2     7     5           0.18259
  105 Torsion                  4     2     7     8        -168.42152
  106 Torsion                  4     2     7     9          86.25770
  107 Torsion                  4    14     1    11          -8.92211
  108 Torsion                  4    14    13     8          11.25845
  109 Torsion                  4    14    13    11          12.09233
  110 Torsion                  4    14    13    15        -115.54542
  111 Torsion                  4     5    10     8        -177.07951
  112 Torsion                  4     5    10    11          -6.48736
  113 Torsion                  4     5    10    12        -113.27060
  114 Torsion                  5     7     8    10          23.58172
  115 Torsion                  5     7     8    13          -4.40901
  116 Torsion                  5    10     8    13          10.15846
  117 Torsion                  5    10     8     7         -21.12849
  118 Torsion                  5    10    13     8          -4.97181
  119 Torsion                  5    10    13    14          -6.77414
  120 Torsion                  5    10    13    15         113.45800
  121 Torsion                 10     5    11    13         179.64208
  122 Torsion                  5     4     2     7          -0.16090
  123 Torsion                  5     4     1    11         -10.77974
  124 Torsion                  5     4     1    14         -15.00232
  125 Torsion                  1     2     5     4         179.59418
  126 Torsion                  5     4    14    13         -15.93742
  127 Torsion                  6     4     2     7         122.19047
  128 Torsion                  6     4     1    11         110.78977
  129 Torsion                  6     4     1    14         106.56720
  130 Torsion                  1     2     6     4        -168.50046
  131 Torsion                  6     4    14    13          88.50032
  132 Torsion                  6     4     7     8        -116.66280
  133 Torsion                  6     4     7     9         121.73667
  134 Torsion                  4     6     5     7         174.86591
  135 Torsion                  6     4     5    10        -115.83079
  136 Torsion                  7     2     4    14          14.22264
  137 Torsion                  7     2     1    11         -10.42878
  138 Torsion                  7     2     1    14         -14.92741
  139 Torsion                  7     5    10     8           2.02984
  140 Torsion                  7     5    10    11         172.62199
  141 Torsion                  7     5    10    12          65.83875
  142 Torsion                  7     8    10    11         -31.26105
  143 Torsion                  7     8    10    12        -159.10458
  144 Torsion                  7     8    13    11         175.18142
  145 Torsion                  7     8    13    14          -6.48968
  146 Torsion                  7     8    13    15          97.69528
  147 Torsion                  8    10    13    14          -1.80233
  148 Torsion                  8    10    13    15         118.42981
  149 Torsion                 10     8    11    13         179.94875
  150 Torsion                  8    13    10    12         136.39286
  151 Torsion                 10    11     8    13        -179.94875
  152 Torsion                  8    13     1    11          -0.16422
  153 Torsion                  1    14     8    13        -177.91994
  154 Torsion                  8     7     5    10          -1.89659
  155 Torsion                  8     7     4    14           5.65417
  156 Torsion                  4     5     8     7        -178.78508
  157 Torsion                  9     7     5    10        -124.20071
  158 Torsion                  9     7     4    14        -115.94636
  159 Torsion                  4     5     9     7         170.40100
  160 Torsion                  9     7     8    10         152.30271
  161 Torsion                  9     7     8    13         124.31199
  162 Torsion                 10     5     4    14           7.03452
  163 Torsion                 10     8    13    11          -0.02927
  164 Torsion                 10     8    13    14         178.29963
  165 Torsion                 10     8    13    15         -77.51540
  166 Torsion                 10    11     1    14        -178.36357
  167 Torsion                 11     1    13    15        -126.37476
  168 Torsion                  1    11    14    13         177.16962
  169 Torsion                 11     1     4    14           4.22257
  170 Torsion                  1    11     2     4         179.37235
  171 Torsion                  1    14    11    13        -177.16962
  172 Torsion                 11    10     8    13           0.02590
  173 Torsion                 12    10     8    13        -127.81763
  174 Torsion                 12    10    13    14         134.59053
  175 Torsion                 12    10    13    15        -105.17733
  176 Torsion                 10    12    11    13        -175.45183
  177 Torsion                 13    11     1    14           1.61869
  178 Torsion                  1    14     2     4         178.72795
  179 Torsion                  1     2    14     4        -178.72795
  180 Torsion                  4    14     5     7         179.80987
  181 Torsion                 10    11    14    13         179.82628
  182 Torsion                 10    11    15    13        -170.53197
  183 Torsion                  1    14    15    13         172.57681


            XYZ format geometry
            -------------------
    15
 geometry
 O                     2.28901484     0.22578390     0.17502996
 H                     1.83789084    -0.63887210     0.04644396
 H                     2.81130384     0.12245090     0.97468696
 O                     0.92988684    -2.09590410    -0.16752804
 H                    -0.03708316    -1.93655310    -0.08418104
 H                     1.03495884    -2.58307810    -0.98897804
 O                    -1.71810116    -1.54926810     0.07344696
 H                    -1.88208316    -0.58057010     0.05698996
 H                    -2.17056616    -1.87167710     0.85708296
 O                    -1.98763716     1.15792490    -0.07786604
 H                    -1.10397116     1.59018290    -0.07655604
 H                    -2.53462516     1.69998190     0.49615196
 O                     0.49842584     2.24994490    -0.06368804
 H                     1.17826884     1.54735890     0.04462696
 H                     0.77319284     2.74292390    -0.84142604

 ==============================================================================
                                internuclear distances
 ------------------------------------------------------------------------------
       center one      |      center two      | atomic units |  angstroms
 ------------------------------------------------------------------------------
    2 H                |   1 O                |     1.85893  |     0.98371
    3 H                |   1 O                |     1.81543  |     0.96068
    5 H                |   4 O                |     1.85864  |     0.98355
    6 H                |   4 O                |     1.81567  |     0.96081
    8 H                |   7 O                |     1.85688  |     0.98262
    9 H                |   7 O                |     1.81528  |     0.96060
   11 H                |  10 O                |     1.85897  |     0.98372
   12 H                |  10 O                |     1.81504  |     0.96048
   14 H                |  13 O                |     1.85881  |     0.98364
   15 H                |  13 O                |     1.81591  |     0.96094
 ------------------------------------------------------------------------------
                         number of included internuclear distances:         10
 ==============================================================================



 ==============================================================================
                                 internuclear angles
 ------------------------------------------------------------------------------
        center 1       |       center 2       |       center 3       |  degrees
 ------------------------------------------------------------------------------
    2 H                |   1 O                |   3 H                |   105.28
    5 H                |   4 O                |   6 H                |   105.20
    8 H                |   7 O                |   9 H                |   105.42
   11 H                |  10 O                |  12 H                |   105.24
   14 H                |  13 O                |  15 H                |   104.95
 ------------------------------------------------------------------------------
                            number of included internuclear angles:          5
 ==============================================================================



                      Basis "ao basis" -> "" (cartesian)
                      -----
  O (Oxygen)
  ----------
            Exponent  Coefficients 
       -------------- ---------------------------------------------------------
  1 S  5.48467170E+03  0.001831
  1 S  8.25234950E+02  0.013950
  1 S  1.88046960E+02  0.068445
  1 S  5.29645000E+01  0.232714
  1 S  1.68975700E+01  0.470193
  1 S  5.79963530E+00  0.358521

  2 S  1.55396160E+01 -0.110778
  2 S  3.59993360E+00 -0.148026
  2 S  1.01376180E+00  1.130767

  3 P  1.55396160E+01  0.070874
  3 P  3.59993360E+00  0.339753
  3 P  1.01376180E+00  0.727159

  4 S  2.70005800E-01  1.000000

  5 P  2.70005800E-01  1.000000

  H (Hydrogen)
  ------------
            Exponent  Coefficients 
       -------------- ---------------------------------------------------------
  1 S  1.87311370E+01  0.033495
  1 S  2.82539370E+00  0.234727
  1 S  6.40121700E-01  0.813757

  2 S  1.61277800E-01  1.000000



 Summary of "ao basis" -> "" (cartesian)
 ------------------------------------------------------------------------------
       Tag                 Description            Shells   Functions and Types
 ---------------- ------------------------------  ------  ---------------------
 O                           6-31g                   5        9   3s2p
 H                           6-31g                   2        2   2s



                                 NWChem DFT Module
                                 -----------------




 Summary of "ao basis" -> "ao basis" (cartesian)
 ------------------------------------------------------------------------------
       Tag                 Description            Shells   Functions and Types
 ---------------- ------------------------------  ------  ---------------------
 O                           6-31g                   5        9   3s2p
 H                           6-31g                   2        2   2s


  Caching 1-el integrals 

            General Information
            -------------------
          SCF calculation type: DFT
          Wavefunction type:  closed shell.
          No. of atoms     :    15
          No. of electrons :    50
           Alpha electrons :    25
            Beta electrons :    25
          Charge           :     0
          Spin multiplicity:     1
          Use of symmetry is: off; symmetry adaption is: off
          Maximum number of iterations:  30
          AO basis - number of functions:    65
                     number of shells:    45
          Convergence on energy requested:  1.00D-06
          Convergence on density requested:  1.00D-05
          Convergence on gradient requested:  5.00D-04

              XC Information
              --------------
           Becke half-and-half Method XC Potential
                     Hartree-Fock (Exact) Exchange  0.500          
                        Slater Exchange Functional  0.500 local    
            Perdew 1991 LDA Correlation Functional  0.500 local    

             Grid Information
             ----------------
          Grid used for XC integration:  medium    
          Radial quadrature: Mura-Knowles        
          Angular quadrature: Lebedev. 
          Tag              B.-S. Rad. Rad. Pts. Rad. Cut. Ang. Pts.
          ---              ---------- --------- --------- ---------
          O                   0.60       49          12.0       434
          H                   0.35       45          13.0       434
          Grid pruning is: on 
          Number of quadrature shells:   695
          Spatial weights used:  Erf1

          Convergence Information
          -----------------------
          Convergence aids based upon iterative change in 
          total energy or number of iterations. 
          Levelshifting, if invoked, occurs when the 
          HOMO/LUMO gap drops below (HL_TOL):  1.00D-02
          DIIS, if invoked, will attempt to extrapolate 
          using up to (NFOCK): 10 stored Fock matrices.

                    Damping( 0%)  Levelshifting(0.5)       DIIS
                  --------------- ------------------- ---------------
          dE  on:    start            ASAP                start   
          dE off:    2 iters         30 iters            30 iters 


      Screening Tolerance Information
      -------------------------------
          Density screening/tol_rho:  1.00D-10
          AO Gaussian exp screening on grid/accAOfunc:  14
          CD Gaussian exp screening on grid/accCDfunc:  20
          XC Gaussian exp screening on grid/accXCfunc:  20
          Schwarz screening/accCoul:  1.00D-08


      Superposition of Atomic Density Guess
      -------------------------------------

 Sum of atomic energies:        -378.75408655

      Non-variational initial energy
      ------------------------------

 Total energy =    -379.831258
 1-e energy   =    -924.062950
 2-e energy   =     340.671550
 HOMO         =      -0.462729
 LUMO         =       0.080150

   Time after variat. SCF:      0.1
   Time prior to 1st pass:      0.1

 Grid_pts file          = ./5h2o_core.gridpts.0
 Record size in doubles =  12289        No. of grid_pts per rec  =   3070
 Max. records in memory =     28        Max. recs in file   = 253312716


           Memory utilization after 1st SCF pass: 
           Heap Space remaining (MW):       19.37            19367020
          Stack Space remaining (MW):       32.77            32767228

   convergence    iter        energy       DeltaE   RMS-Dens  Diis-err    time
 ---------------- ----- ----------------- --------- --------- ---------  ------
 d= 0,ls=0.0,diis     1   -379.4826930945 -5.83D+02  1.57D-02  1.35D+00     0.5
 d= 0,ls=0.0,diis     2   -379.5367445053 -5.41D-02  6.78D-03  8.59D-01     0.7
 d= 0,ls=0.0,diis     3   -379.6114934658 -7.47D-02  8.10D-04  1.19D-02     0.9
 d= 0,ls=0.0,diis     4   -379.6125814883 -1.09D-03  6.78D-05  1.19D-05     1.0
 d= 0,ls=0.0,diis     5   -379.6125843056 -2.82D-06  1.82D-05  2.82D-06     1.2
 d= 0,ls=0.0,diis     6   -379.6125845714 -2.66D-07  7.50D-06  5.80D-07     1.4


         Total DFT energy =     -379.612584571426
      One electron energy =     -930.589601212349
           Coulomb energy =      391.741180659177
    Exchange-Corr. energy =      -44.324306741494
 Nuclear repulsion energy =      203.560142723240

 Numeric. integr. density =       49.999990470898

     Total iterative time =      1.3s



                       DFT Final Molecular Orbital Analysis
                       ------------------------------------

 Vector    1  Occ=2.000000D+00  E=-1.956805D+01
              MO Center= -1.7D+00, -1.5D+00,  7.4D-02, r^2= 1.6D-02
   Bfn.  Coefficient  Atom+Function         Bfn.  Coefficient  Atom+Function  
  ----- ------------  ---------------      ----- ------------  ---------------
    27      0.994985   7 O  s                28      0.028325   7 O  s         

 Vector    2  Occ=2.000000D+00  E=-1.956628D+01
              MO Center=  1.4D+00,  1.1D+00,  5.9D-02, r^2= 2.1D+00
   Bfn.  Coefficient  Atom+Function         Bfn.  Coefficient  Atom+Function  
  ----- ------------  ---------------      ----- ------------  ---------------
     1      0.721017   1 O  s                53      0.668177  13 O  s         
    14      0.154108   4 O  s         

 Vector    3  Occ=2.000000D+00  E=-1.956626D+01
              MO Center=  1.1D+00,  3.9D-01, -3.8D-02, r^2= 4.0D+00
   Bfn.  Coefficient  Atom+Function         Bfn.  Coefficient  Atom+Function  
  ----- ------------  ---------------      ----- ------------  ---------------
    53      0.660455  13 O  s                14     -0.556728   4 O  s         
     1     -0.493295   1 O  s         

 Vector    4  Occ=2.000000D+00  E=-1.956624D+01
              MO Center=  1.2D+00, -1.1D+00, -7.8D-02, r^2= 2.7D+00
   Bfn.  Coefficient  Atom+Function         Bfn.  Coefficient  Atom+Function  
  ----- ------------  ---------------      ----- ------------  ---------------
    14      0.810093   4 O  s                 1     -0.476201   1 O  s         
    53      0.327026  13 O  s         

 Vector    5  Occ=2.000000D+00  E=-1.956574D+01
              MO Center= -2.0D+00,  1.2D+00, -7.8D-02, r^2= 2.2D-02
   Bfn.  Coefficient  Atom+Function         Bfn.  Coefficient  Atom+Function  
  ----- ------------  ---------------      ----- ------------  ---------------
    40      0.994696  10 O  s                41      0.028290  10 O  s         

 Vector    6  Occ=2.000000D+00  E=-1.136896D+00
              MO Center= -8.1D-02, -1.4D-01,  1.7D-02, r^2= 5.8D+00
   Bfn.  Coefficient  Atom+Function         Bfn.  Coefficient  Atom+Function  
  ----- ------------  ---------------      ----- ------------  ---------------
    32      0.236191   7 O  s                28      0.223919   7 O  s         
    19      0.217470   4 O  s                 6      0.207184   1 O  s         
    15      0.206304   4 O  s                45      0.205100  10 O  s         
    58      0.203227  13 O  s                 2      0.196560   1 O  s         
    41      0.194131  10 O  s                54      0.192784  13 O  s         

 Vector    7  Occ=2.000000D+00  E=-1.127633D+00
              MO Center= -1.3D-02,  4.2D-02,  5.8D-02, r^2= 5.9D+00
   Bfn.  Coefficient  Atom+Function         Bfn.  Coefficient  Atom+Function  
  ----- ------------  ---------------      ----- ------------  ---------------
    32      0.310917   7 O  s                28      0.289876   7 O  s         
    58     -0.283202  13 O  s                54     -0.267239  13 O  s         
     6     -0.217383   1 O  s                 2     -0.199317   1 O  s         
    27     -0.134572   7 O  s                19      0.123521   4 O  s         
    53      0.123897  13 O  s                15      0.120730   4 O  s         

 Vector    8  Occ=2.000000D+00  E=-1.126686D+00
              MO Center= -9.5D-03,  2.5D-02, -2.1D-02, r^2= 5.9D+00
   Bfn.  Coefficient  Atom+Function         Bfn.  Coefficient  Atom+Function  
  ----- ------------  ---------------      ----- ------------  ---------------
    45      0.305446  10 O  s                41      0.286779  10 O  s         
    19     -0.270292   4 O  s                15     -0.249777   4 O  s         
     6     -0.224908   1 O  s                 2     -0.214518   1 O  s         
    58      0.137015  13 O  s                40     -0.133040  10 O  s         
    54      0.122573  13 O  s                14      0.116184   4 O  s         

 Vector    9  Occ=2.000000D+00  E=-1.111230D+00
              MO Center= -8.9D-01, -4.9D-01,  2.1D-03, r^2= 5.0D+00
   Bfn.  Coefficient  Atom+Function         Bfn.  Coefficient  Atom+Function  
  ----- ------------  ---------------      ----- ------------  ---------------
    32      0.289796   7 O  s                45     -0.273324  10 O  s         
    28      0.271608   7 O  s                41     -0.259555  10 O  s         
    19     -0.256530   4 O  s                15     -0.237682   4 O  s         
    27     -0.125213   7 O  s                58      0.123703  13 O  s         
    54      0.120926  13 O  s                40      0.119418  10 O  s         

 Vector   10  Occ=2.000000D+00  E=-1.110170D+00
              MO Center=  9.9D-01,  5.7D-01,  1.4D-03, r^2= 4.7D+00
   Bfn.  Coefficient  Atom+Function         Bfn.  Coefficient  Atom+Function  
  ----- ------------  ---------------      ----- ------------  ---------------
     6      0.303887   1 O  s                58     -0.292759  13 O  s         
     2      0.286381   1 O  s                54     -0.272697  13 O  s         
    19     -0.199902   4 O  s                15     -0.191564   4 O  s         
    45      0.173754  10 O  s                41      0.158919  10 O  s         
     1     -0.131938   1 O  s                53      0.125919  13 O  s         

 Vector   11  Occ=2.000000D+00  E=-5.936209D-01
              MO Center= -8.6D-01, -9.3D-02,  6.2D-02, r^2= 5.5D+00
   Bfn.  Coefficient  Atom+Function         Bfn.  Coefficient  Atom+Function  
  ----- ------------  ---------------      ----- ------------  ---------------
    30      0.242521   7 O  py               42      0.241825  10 O  px        
    31     -0.166153   7 O  pz               38     -0.161475   9 H  s         
    51     -0.152190  12 H  s                56     -0.143564  13 O  py        
    36      0.137568   8 H  s                34      0.130070   7 O  py        
    46      0.129040  10 O  px                3     -0.119632   1 O  px        

 Vector   12  Occ=2.000000D+00  E=-5.892532D-01
              MO Center=  6.9D-01, -1.1D-01,  1.2D-01, r^2= 5.7D+00
   Bfn.  Coefficient  Atom+Function         Bfn.  Coefficient  Atom+Function  
  ----- ------------  ---------------      ----- ------------  ---------------
     3      0.241783   1 O  px                5      0.214604   1 O  pz        
    30      0.196979   7 O  py               12      0.182320   3 H  s         
    10     -0.151506   2 H  s                42      0.135755  10 O  px        
     7      0.133634   1 O  px               56      0.131775  13 O  py        
     4      0.125542   1 O  py               17     -0.124716   4 O  py        

 Vector   13  Occ=2.000000D+00  E=-5.870927D-01
              MO Center=  3.3D-01, -2.6D-01, -1.8D-01, r^2= 5.9D+00
   Bfn.  Coefficient  Atom+Function         Bfn.  Coefficient  Atom+Function  
  ----- ------------  ---------------      ----- ------------  ---------------
    16      0.240016   4 O  px               56     -0.239699  13 O  py        
    18     -0.208739   4 O  pz               25      0.176138   6 H  s         
    57      0.176972  13 O  pz               23     -0.167103   5 H  s         
    64     -0.157282  15 H  s                17     -0.154431   4 O  py        
    42      0.142756  10 O  px               62      0.131560  14 H  s         

 Vector   14  Occ=2.000000D+00  E=-5.839620D-01
              MO Center=  5.8D-01, -4.4D-01,  1.7D-02, r^2= 5.5D+00
   Bfn.  Coefficient  Atom+Function         Bfn.  Coefficient  Atom+Function  
  ----- ------------  ---------------      ----- ------------  ---------------
    16      0.235622   4 O  px               30      0.199452   7 O  py        
     4     -0.178759   1 O  py                5     -0.168796   1 O  pz        
     3     -0.160766   1 O  px               10      0.148071   2 H  s         
    56      0.148180  13 O  py               23     -0.144608   5 H  s         
    20      0.135606   4 O  px               12     -0.132442   3 H  s         

 Vector   15  Occ=2.000000D+00  E=-5.827381D-01
              MO Center= -7.4D-01,  9.1D-01,  2.3D-02, r^2= 4.7D+00
   Bfn.  Coefficient  Atom+Function         Bfn.  Coefficient  Atom+Function  
  ----- ------------  ---------------      ----- ------------  ---------------
    42      0.313310  10 O  px               30     -0.183193   7 O  py        
    56      0.179604  13 O  py               49      0.172936  11 H  s         
    46      0.169211  10 O  px               55     -0.161064  13 O  px        
    51     -0.148800  12 H  s                62     -0.146021  14 H  s         
     4     -0.138069   1 O  py               57     -0.132523  13 O  pz        

 Vector   16  Occ=2.000000D+00  E=-4.709482D-01
              MO Center=  9.9D-01, -3.3D-01,  4.9D-03, r^2= 4.9D+00
   Bfn.  Coefficient  Atom+Function         Bfn.  Coefficient  Atom+Function  
  ----- ------------  ---------------      ----- ------------  ---------------
     6      0.212532   1 O  s                 4      0.206803   1 O  py        
     5     -0.207506   1 O  pz               18     -0.189045   4 O  pz        
    16     -0.179108   4 O  px               19     -0.179673   4 O  s         
    58     -0.167487  13 O  s                57     -0.165285  13 O  pz        
    17     -0.150252   4 O  py                8      0.148652   1 O  py        

 Vector   17  Occ=2.000000D+00  E=-4.675946D-01
              MO Center= -9.4D-01,  3.1D-01, -2.9D-02, r^2= 5.0D+00
   Bfn.  Coefficient  Atom+Function         Bfn.  Coefficient  Atom+Function  
  ----- ------------  ---------------      ----- ------------  ---------------
    43      0.281226  10 O  py               55     -0.227836  13 O  px        
    31     -0.208232   7 O  pz               45     -0.205542  10 O  s         
    32      0.202102   7 O  s                47      0.195653  10 O  py        
    29      0.181751   7 O  px               59     -0.166746  13 O  px        
    58      0.141889  13 O  s                35     -0.138381   7 O  pz        

 Vector   18  Occ=2.000000D+00  E=-4.245839D-01
              MO Center= -1.1D-01, -4.6D-02, -4.4D-03, r^2= 6.0D+00
   Bfn.  Coefficient  Atom+Function         Bfn.  Coefficient  Atom+Function  
  ----- ------------  ---------------      ----- ------------  ---------------
    55     -0.234618  13 O  px                4      0.228270   1 O  py        
    30      0.227894   7 O  py                5     -0.191751   1 O  pz        
    31      0.189308   7 O  pz               59     -0.180251  13 O  px        
     6      0.175905   1 O  s                29     -0.173762   7 O  px        
    34      0.173467   7 O  py                8      0.166902   1 O  py        

 Vector   19  Occ=2.000000D+00  E=-4.226809D-01
              MO Center= -5.9D-02, -2.0D-02, -4.3D-02, r^2= 6.0D+00
   Bfn.  Coefficient  Atom+Function         Bfn.  Coefficient  Atom+Function  
  ----- ------------  ---------------      ----- ------------  ---------------
    43      0.284602  10 O  py               16      0.256253   4 O  px        
    47      0.212215  10 O  py               18      0.200632   4 O  pz        
    20      0.192717   4 O  px               57     -0.187992  13 O  pz        
     4      0.182654   1 O  py               19      0.165902   4 O  s         
    58     -0.164559  13 O  s                55      0.151330  13 O  px        

 Vector   20  Occ=2.000000D+00  E=-3.947221D-01
              MO Center=  8.7D-02,  6.3D-02, -2.8D-02, r^2= 6.2D+00
   Bfn.  Coefficient  Atom+Function         Bfn.  Coefficient  Atom+Function  
  ----- ------------  ---------------      ----- ------------  ---------------
     4      0.201173   1 O  py               31     -0.188693   7 O  pz        
    16      0.183098   4 O  px               18      0.183038   4 O  pz        
     5     -0.177589   1 O  pz               55     -0.178140  13 O  px        
    30     -0.177046   7 O  py               57      0.171732  13 O  pz        
    44     -0.170257  10 O  pz                8      0.151074   1 O  py        

 Vector   21  Occ=2.000000D+00  E=-3.671083D-01
              MO Center= -1.3D+00, -3.7D-01,  2.9D-03, r^2= 4.1D+00
   Bfn.  Coefficient  Atom+Function         Bfn.  Coefficient  Atom+Function  
  ----- ------------  ---------------      ----- ------------  ---------------
    29      0.398779   7 O  px               33      0.322345   7 O  px        
    44      0.292675  10 O  pz               48      0.242433  10 O  pz        
    31      0.207516   7 O  pz               35      0.171520   7 O  pz        
    43     -0.171842  10 O  py               16      0.163612   4 O  px        
    47     -0.142086  10 O  py               42      0.129275  10 O  px        

 Vector   22  Occ=2.000000D+00  E=-3.634025D-01
              MO Center=  1.3D+00, -8.3D-01, -2.3D-02, r^2= 3.5D+00
   Bfn.  Coefficient  Atom+Function         Bfn.  Coefficient  Atom+Function  
  ----- ------------  ---------------      ----- ------------  ---------------
    17      0.399063   4 O  py               21      0.331012   4 O  py        
    18     -0.242606   4 O  pz                4      0.240765   1 O  py        
     3     -0.229722   1 O  px                7     -0.192700   1 O  px        
    22     -0.191115   4 O  pz                8      0.184725   1 O  py        
     5      0.176072   1 O  pz               56      0.173309  13 O  py        

 Vector   23  Occ=2.000000D+00  E=-3.629603D-01
              MO Center=  1.1D+00,  4.6D-01,  2.9D-02, r^2= 4.5D+00
   Bfn.  Coefficient  Atom+Function         Bfn.  Coefficient  Atom+Function  
  ----- ------------  ---------------      ----- ------------  ---------------
     3      0.339709   1 O  px                7      0.278283   1 O  px        
    55      0.255027  13 O  px                5     -0.243820   1 O  pz        
    17      0.206716   4 O  py               59      0.200691  13 O  px        
     9     -0.198094   1 O  pz               57      0.186230  13 O  pz        
    21      0.163436   4 O  py               43      0.156335  10 O  py        

 Vector   24  Occ=2.000000D+00  E=-3.619750D-01
              MO Center=  7.4D-01,  7.9D-01, -4.5D-02, r^2= 4.8D+00
   Bfn.  Coefficient  Atom+Function         Bfn.  Coefficient  Atom+Function  
  ----- ------------  ---------------      ----- ------------  ---------------
    56      0.310985  13 O  py               57      0.274334  13 O  pz        
    17     -0.259630   4 O  py               60      0.248667  13 O  py        
    61      0.228047  13 O  pz                3     -0.223774   1 O  px        
    55      0.219478  13 O  px               21     -0.206256   4 O  py        
    59      0.176673  13 O  px                7     -0.170248   1 O  px        

 Vector   25  Occ=2.000000D+00  E=-3.591877D-01
              MO Center= -1.8D+00, -5.7D-02, -4.0D-02, r^2= 2.8D+00
   Bfn.  Coefficient  Atom+Function         Bfn.  Coefficient  Atom+Function  
  ----- ------------  ---------------      ----- ------------  ---------------
    44      0.385313  10 O  pz               48      0.308592  10 O  pz        
    29     -0.276508   7 O  px               31     -0.260335   7 O  pz        
    43     -0.240923  10 O  py               33     -0.223637   7 O  px        
    35     -0.208719   7 O  pz               47     -0.194972  10 O  py        
    30     -0.171298   7 O  py               42      0.142649  10 O  px        

 Vector   26  Occ=0.000000D+00  E= 1.137499D-01
              MO Center= -2.8D-01, -2.4D-02,  1.5D-01, r^2= 9.4D+00
   Bfn.  Coefficient  Atom+Function         Bfn.  Coefficient  Atom+Function  
  ----- ------------  ---------------      ----- ------------  ---------------
    39     -0.573484   9 H  s                32      0.570117   7 O  s         
    45      0.551505  10 O  s                52     -0.553949  12 H  s         
    19      0.501587   4 O  s                58      0.494477  13 O  s         
     6      0.488975   1 O  s                26     -0.472586   6 H  s         
    65     -0.469745  15 H  s                13     -0.463931   3 H  s         

 Vector   27  Occ=0.000000D+00  E= 1.456569D-01
              MO Center=  1.4D-01, -9.6D-03,  6.6D-01, r^2= 1.0D+01
   Bfn.  Coefficient  Atom+Function         Bfn.  Coefficient  Atom+Function  
  ----- ------------  ---------------      ----- ------------  ---------------
    13      0.868789   3 H  s                39     -0.763298   9 H  s         
     6     -0.672149   1 O  s                52     -0.593373  12 H  s         
    32      0.572500   7 O  s                65      0.418826  15 H  s         
    45      0.409460  10 O  s                58     -0.354618  13 O  s         
     9     -0.262575   1 O  pz               35      0.235362   7 O  pz        

 Vector   28  Occ=0.000000D+00  E= 1.486118D-01
              MO Center= -1.1D-01,  6.9D-02, -4.3D-01, r^2= 1.1D+01
   Bfn.  Coefficient  Atom+Function         Bfn.  Coefficient  Atom+Function  
  ----- ------------  ---------------      ----- ------------  ---------------
    26      0.835550   6 H  s                65     -0.769543  15 H  s         
    19     -0.643825   4 O  s                52     -0.635521  12 H  s         
    58      0.572575  13 O  s                45      0.496288  10 O  s         
    39      0.450069   9 H  s                32     -0.311529   7 O  s         
    22      0.261872   4 O  pz               61     -0.233155  13 O  pz        

 Vector   29  Occ=0.000000D+00  E= 1.774833D-01
              MO Center= -9.6D-01, -9.2D-01,  2.0D-01, r^2= 9.9D+00
   Bfn.  Coefficient  Atom+Function         Bfn.  Coefficient  Atom+Function  
  ----- ------------  ---------------      ----- ------------  ---------------
    39      0.947132   9 H  s                26     -0.852836   6 H  s         
    52     -0.775703  12 H  s                32     -0.547749   7 O  s         
    19      0.500651   4 O  s                45      0.474010  10 O  s         
    13      0.364449   3 H  s                65      0.299377  15 H  s         
    35     -0.291759   7 O  pz               22     -0.277678   4 O  pz        

 Vector   30  Occ=0.000000D+00  E= 1.781146D-01
              MO Center=  1.1D+00,  1.0D+00, -1.4D-02, r^2= 9.4D+00
   Bfn.  Coefficient  Atom+Function         Bfn.  Coefficient  Atom+Function  
  ----- ------------  ---------------      ----- ------------  ---------------
    65     -0.956769  15 H  s                13      0.941421   3 H  s         
    52      0.596574  12 H  s                58      0.559919  13 O  s         
     6     -0.556050   1 O  s                26     -0.538527   6 H  s         
    19      0.338080   4 O  s                45     -0.322704  10 O  s         
     9     -0.297373   1 O  pz               61     -0.296238  13 O  pz        

 Vector   31  Occ=0.000000D+00  E= 2.846055D-01
              MO Center= -8.0D-02,  1.9D-03,  3.4D-02, r^2= 7.5D+00
   Bfn.  Coefficient  Atom+Function         Bfn.  Coefficient  Atom+Function  
  ----- ------------  ---------------      ----- ------------  ---------------
    37      0.735676   8 H  s                50      0.723570  11 H  s         
    24      0.710201   5 H  s                63      0.683388  14 H  s         
    11      0.673777   2 H  s                26     -0.574814   6 H  s         
    52     -0.575179  12 H  s                39     -0.571549   9 H  s         
    65     -0.572234  15 H  s                13     -0.553108   3 H  s         

 Vector   32  Occ=0.000000D+00  E= 3.358512D-01
              MO Center= -5.7D-05, -1.2D-02,  1.4D-01, r^2= 6.6D+00
   Bfn.  Coefficient  Atom+Function         Bfn.  Coefficient  Atom+Function  
  ----- ------------  ---------------      ----- ------------  ---------------
    37      1.171388   8 H  s                11     -0.994063   2 H  s         
    63     -0.878716  14 H  s                13      0.610179   3 H  s         
    39     -0.520674   9 H  s                34     -0.456210   7 O  py        
    52     -0.417987  12 H  s                50      0.400966  11 H  s         
     7     -0.379455   1 O  px               32     -0.365498   7 O  s         

 Vector   33  Occ=0.000000D+00  E= 3.383310D-01
              MO Center=  1.4D-02, -5.9D-03, -1.1D-01, r^2= 6.5D+00
   Bfn.  Coefficient  Atom+Function         Bfn.  Coefficient  Atom+Function  
  ----- ------------  ---------------      ----- ------------  ---------------
    24      1.127934   5 H  s                50     -1.052262  11 H  s         
    63     -0.764694  14 H  s                11      0.601679   2 H  s         
    26     -0.599039   6 H  s                65      0.548120  15 H  s         
    46      0.417772  10 O  px               52      0.414525  12 H  s         
    19     -0.368699   4 O  s                60     -0.360758  13 O  py        

 Vector   34  Occ=0.000000D+00  E= 3.881018D-01
              MO Center= -8.6D-01, -2.5D-01, -1.4D-02, r^2= 5.0D+00
   Bfn.  Coefficient  Atom+Function         Bfn.  Coefficient  Atom+Function  
  ----- ------------  ---------------      ----- ------------  ---------------
    37      1.310991   8 H  s                24     -1.139117   5 H  s         
    50     -1.080371  11 H  s                11      0.512136   2 H  s         
    34     -0.496551   7 O  py               20     -0.422004   4 O  px        
    63      0.394701  14 H  s                32     -0.381861   7 O  s         
    19      0.362236   4 O  s                47      0.338147  10 O  py        

 Vector   35  Occ=0.000000D+00  E= 3.904499D-01
              MO Center=  9.2D-01,  2.5D-01,  1.7D-02, r^2= 4.9D+00
   Bfn.  Coefficient  Atom+Function         Bfn.  Coefficient  Atom+Function  
  ----- ------------  ---------------      ----- ------------  ---------------
    63     -1.309449  14 H  s                11      1.276449   2 H  s         
    50      0.849986  11 H  s                24     -0.758561   5 H  s         
     8      0.522663   1 O  py               58      0.406179  13 O  s         
    59      0.395010  13 O  px                6     -0.365375   1 O  s         
    20     -0.354296   4 O  px                4      0.325457   1 O  py        

 Vector   36  Occ=0.000000D+00  E= 8.828287D-01
              MO Center= -9.0D-01, -9.8D-02,  5.2D-02, r^2= 5.8D+00
   Bfn.  Coefficient  Atom+Function         Bfn.  Coefficient  Atom+Function  
  ----- ------------  ---------------      ----- ------------  ---------------
    38      0.655316   9 H  s                49     -0.592004  11 H  s         
    51      0.508719  12 H  s                36     -0.471010   8 H  s         
    50      0.442462  11 H  s                10     -0.351428   2 H  s         
    34      0.336610   7 O  py               12      0.332568   3 H  s         
    35     -0.328894   7 O  pz               37      0.322892   8 H  s         

 Vector   37  Occ=0.000000D+00  E= 8.928716D-01
              MO Center=  5.6D-01,  3.5D-01, -5.8D-02, r^2= 6.1D+00
   Bfn.  Coefficient  Atom+Function         Bfn.  Coefficient  Atom+Function  
  ----- ------------  ---------------      ----- ------------  ---------------
    62      0.634076  14 H  s                64     -0.591139  15 H  s         
    25     -0.542564   6 H  s                63     -0.510941  14 H  s         
    23      0.496975   5 H  s                24     -0.407322   5 H  s         
    61     -0.373157  13 O  pz                9     -0.346372   1 O  pz        
    22     -0.337304   4 O  pz               12      0.323576   3 H  s         

 Vector   38  Occ=0.000000D+00  E= 9.070952D-01
              MO Center=  1.1D+00, -1.9D-01,  2.5D-01, r^2= 5.6D+00
   Bfn.  Coefficient  Atom+Function         Bfn.  Coefficient  Atom+Function  
  ----- ------------  ---------------      ----- ------------  ---------------
    12      0.723100   3 H  s                10     -0.646151   2 H  s         
    23     -0.571886   5 H  s                11      0.537387   2 H  s         
    24      0.495949   5 H  s                 7     -0.445835   1 O  px        
    38     -0.400339   9 H  s                13     -0.385869   3 H  s         
    33     -0.299580   7 O  px                9     -0.274681   1 O  pz        

 Vector   39  Occ=0.000000D+00  E= 9.085112D-01
              MO Center=  4.7D-01, -1.6D-01, -2.5D-01, r^2= 6.7D+00
   Bfn.  Coefficient  Atom+Function         Bfn.  Coefficient  Atom+Function  
  ----- ------------  ---------------      ----- ------------  ---------------
    25      0.660393   6 H  s                62      0.480665  14 H  s         
    64     -0.471517  15 H  s                11     -0.449188   2 H  s         
    63     -0.449360  14 H  s                10      0.423247   2 H  s         
    36     -0.411031   8 H  s                23     -0.400241   5 H  s         
    21      0.387723   4 O  py               37      0.386613   8 H  s         

 Vector   40  Occ=0.000000D+00  E= 9.367441D-01
              MO Center= -1.3D+00,  4.5D-01, -1.9D-02, r^2= 5.9D+00
   Bfn.  Coefficient  Atom+Function         Bfn.  Coefficient  Atom+Function  
  ----- ------------  ---------------      ----- ------------  ---------------
    51      0.765405  12 H  s                36      0.583725   8 H  s         
    37     -0.561603   8 H  s                64     -0.559599  15 H  s         
    49     -0.430844  11 H  s                52     -0.413892  12 H  s         
    46      0.407865  10 O  px               50      0.397654  11 H  s         
    38     -0.380689   9 H  s                61     -0.284718  13 O  pz        

 Vector   41  Occ=0.000000D+00  E= 9.450633D-01
              MO Center=  6.4D-02, -1.6D-01,  3.1D-04, r^2= 7.5D+00
   Bfn.  Coefficient  Atom+Function         Bfn.  Coefficient  Atom+Function  
  ----- ------------  ---------------      ----- ------------  ---------------
    12     -0.382249   3 H  s                24      0.365975   5 H  s         
    21     -0.363803   4 O  py                7      0.359643   1 O  px        
    38     -0.346105   9 H  s                64     -0.346442  15 H  s         
    11      0.328528   2 H  s                63      0.329583  14 H  s         
    25     -0.325875   6 H  s                33     -0.323866   7 O  px        

 Vector   42  Occ=0.000000D+00  E= 9.702086D-01
              MO Center= -6.0D-01,  4.1D-01,  3.0D-02, r^2= 6.8D+00
   Bfn.  Coefficient  Atom+Function         Bfn.  Coefficient  Atom+Function  
  ----- ------------  ---------------      ----- ------------  ---------------
    51      0.535094  12 H  s                35     -0.479037   7 O  pz        
    48     -0.444340  10 O  pz               31      0.433002   7 O  pz        
    12     -0.375082   3 H  s                64      0.373601  15 H  s         
    60     -0.335255  13 O  py               57      0.326536  13 O  pz        
    10      0.291808   2 H  s                11     -0.266800   2 H  s         

 Vector   43  Occ=0.000000D+00  E= 9.929757D-01
              MO Center= -7.3D-02, -8.6D-01,  2.6D-01, r^2= 6.9D+00
   Bfn.  Coefficient  Atom+Function         Bfn.  Coefficient  Atom+Function  
  ----- ------------  ---------------      ----- ------------  ---------------
    38      0.517687   9 H  s                22      0.469777   4 O  pz        
    39     -0.454682   9 H  s                31     -0.432095   7 O  pz        
    12     -0.424281   3 H  s                18     -0.395379   4 O  pz        
    11      0.344757   2 H  s                34      0.335343   7 O  py        
    21     -0.329639   4 O  py               61     -0.327492  13 O  pz        

 Vector   44  Occ=0.000000D+00  E= 9.935006D-01
              MO Center=  1.5D+00, -3.2D-01, -1.1D-01, r^2= 5.3D+00
   Bfn.  Coefficient  Atom+Function         Bfn.  Coefficient  Atom+Function  
  ----- ------------  ---------------      ----- ------------  ---------------
     5      0.551969   1 O  pz               25      0.536800   6 H  s         
     9     -0.512920   1 O  pz               26     -0.436290   6 H  s         
     7      0.408157   1 O  px               18      0.405035   4 O  pz        
    62     -0.326154  14 H  s                61     -0.323380  13 O  pz        
     3     -0.287899   1 O  px               49      0.283143  11 H  s         

 Vector   45  Occ=0.000000D+00  E= 1.022472D+00
              MO Center= -1.1D+00,  5.6D-01, -1.6D-01, r^2= 5.7D+00
   Bfn.  Coefficient  Atom+Function         Bfn.  Coefficient  Atom+Function  
  ----- ------------  ---------------      ----- ------------  ---------------
    44      0.611756  10 O  pz               48     -0.580825  10 O  pz        
    50      0.521048  11 H  s                24     -0.493920   5 H  s         
    23      0.460906   5 H  s                49     -0.402455  11 H  s         
    51     -0.344240  12 H  s                38     -0.334476   9 H  s         
    65     -0.335512  15 H  s                59      0.297245  13 O  px        

 Vector   46  Occ=0.000000D+00  E= 1.033720D+00
              MO Center= -7.8D-01, -1.8D-01,  1.8D-01, r^2= 6.3D+00
   Bfn.  Coefficient  Atom+Function         Bfn.  Coefficient  Atom+Function  
  ----- ------------  ---------------      ----- ------------  ---------------
    36      0.686035   8 H  s                38      0.607110   9 H  s         
    37     -0.578356   8 H  s                49      0.371682  11 H  s         
    63      0.369078  14 H  s                25      0.350542   6 H  s         
    26     -0.340114   6 H  s                39     -0.329128   9 H  s         
    57     -0.325233  13 O  pz               47     -0.312928  10 O  py        

 Vector   47  Occ=0.000000D+00  E= 1.069823D+00
              MO Center=  1.4D+00, -5.8D-01,  2.4D-01, r^2= 5.2D+00
   Bfn.  Coefficient  Atom+Function         Bfn.  Coefficient  Atom+Function  
  ----- ------------  ---------------      ----- ------------  ---------------
    12      0.682277   3 H  s                13     -0.593694   3 H  s         
    10      0.454786   2 H  s                 7      0.444634   1 O  px        
     3     -0.414452   1 O  px               22      0.402679   4 O  pz        
    25      0.380787   6 H  s                20      0.341464   4 O  px        
    17      0.316839   4 O  py                2     -0.293118   1 O  s         

 Vector   48  Occ=0.000000D+00  E= 1.076068D+00
              MO Center=  2.8D-01, -1.8D-01, -2.3D-01, r^2= 6.8D+00
   Bfn.  Coefficient  Atom+Function         Bfn.  Coefficient  Atom+Function  
  ----- ------------  ---------------      ----- ------------  ---------------
    23      0.719340   5 H  s                24     -0.526414   5 H  s         
    64     -0.504212  15 H  s                65      0.485724  15 H  s         
    36     -0.448104   8 H  s                37      0.429925   8 H  s         
    25      0.378063   6 H  s                 8     -0.366838   1 O  py        
    10     -0.323033   2 H  s                20      0.316651   4 O  px        

 Vector   49  Occ=0.000000D+00  E= 1.077971D+00
              MO Center=  4.2D-02,  8.6D-01, -4.1D-02, r^2= 6.6D+00
   Bfn.  Coefficient  Atom+Function         Bfn.  Coefficient  Atom+Function  
  ----- ------------  ---------------      ----- ------------  ---------------
    10      0.559611   2 H  s                62     -0.530518  14 H  s         
    11     -0.500427   2 H  s                52      0.463609  12 H  s         
    64     -0.465402  15 H  s                60     -0.449189  13 O  py        
    51     -0.423796  12 H  s                56      0.326785  13 O  py        
    61     -0.320949  13 O  pz               43      0.312918  10 O  py        

 Vector   50  Occ=0.000000D+00  E= 1.084178D+00
              MO Center= -6.5D-01,  2.5D-01, -2.5D-02, r^2= 6.7D+00
   Bfn.  Coefficient  Atom+Function         Bfn.  Coefficient  Atom+Function  
  ----- ------------  ---------------      ----- ------------  ---------------
    49      0.645347  11 H  s                62     -0.520059  14 H  s         
    63      0.461942  14 H  s                26      0.427262   6 H  s         
    46     -0.423040  10 O  px               35      0.408717   7 O  pz        
    50     -0.406155  11 H  s                51      0.402337  12 H  s         
    25     -0.367518   6 H  s                34      0.343214   7 O  py        

 Vector   51  Occ=0.000000D+00  E= 1.179654D+00
              MO Center= -1.6D+00, -2.5D-01,  9.5D-02, r^2= 4.7D+00
   Bfn.  Coefficient  Atom+Function         Bfn.  Coefficient  Atom+Function  
  ----- ------------  ---------------      ----- ------------  ---------------
    39      0.812845   9 H  s                52      0.763217  12 H  s         
    35     -0.722423   7 O  pz               46      0.713117  10 O  px        
    50     -0.676907  11 H  s                33      0.637374   7 O  px        
    37     -0.638660   8 H  s                34      0.623033   7 O  py        
    47     -0.510520  10 O  py               42     -0.482090  10 O  px        

 Vector   52  Occ=0.000000D+00  E= 1.213375D+00
              MO Center=  1.6D-01,  3.4D-01,  8.0D-02, r^2= 6.1D+00
   Bfn.  Coefficient  Atom+Function         Bfn.  Coefficient  Atom+Function  
  ----- ------------  ---------------      ----- ------------  ---------------
    61      0.507328  13 O  pz                8     -0.488793   1 O  py        
    11     -0.466398   2 H  s                60     -0.459446  13 O  py        
     4      0.446640   1 O  py               63     -0.428125  14 H  s         
    47     -0.420223  10 O  py               65      0.391654  15 H  s         
    13      0.378905   3 H  s                 9     -0.351757   1 O  pz        

 Vector   53  Occ=0.000000D+00  E= 1.218999D+00
              MO Center=  3.0D-01, -7.3D-01,  1.2D-03, r^2= 5.9D+00
   Bfn.  Coefficient  Atom+Function         Bfn.  Coefficient  Atom+Function  
  ----- ------------  ---------------      ----- ------------  ---------------
     9      0.593823   1 O  pz               34     -0.565080   7 O  py        
    22     -0.561569   4 O  pz               20      0.521431   4 O  px        
    24      0.491042   5 H  s                26     -0.477986   6 H  s         
    16     -0.451821   4 O  px                7      0.411126   1 O  px        
    59      0.405903  13 O  px               11      0.402899   2 H  s         

 Vector   54  Occ=0.000000D+00  E= 1.229965D+00
              MO Center=  3.6D-01,  1.3D+00,  4.4D-02, r^2= 5.5D+00
   Bfn.  Coefficient  Atom+Function         Bfn.  Coefficient  Atom+Function  
  ----- ------------  ---------------      ----- ------------  ---------------
    59      0.914484  13 O  px               55     -0.645926  13 O  px        
    13      0.508924   3 H  s                47      0.493421  10 O  py        
    11     -0.482755   2 H  s                63     -0.477196  14 H  s         
     8     -0.469845   1 O  py                9     -0.435675   1 O  pz        
     7     -0.385008   1 O  px               21      0.370906   4 O  py        

 Vector   55  Occ=0.000000D+00  E= 1.234540D+00
              MO Center= -1.9D-01, -3.3D-01, -1.2D-01, r^2= 7.3D+00
   Bfn.  Coefficient  Atom+Function         Bfn.  Coefficient  Atom+Function  
  ----- ------------  ---------------      ----- ------------  ---------------
    22      0.842303   4 O  pz               24     -0.737020   5 H  s         
    26      0.732647   6 H  s                21      0.678370   4 O  py        
    60      0.616341  13 O  py               65     -0.585995  15 H  s         
    50      0.561839  11 H  s                61     -0.526765  13 O  pz        
    46     -0.481302  10 O  px               33      0.448803   7 O  px        

 Vector   56  Occ=0.000000D+00  E= 1.237262D+00
              MO Center=  1.1D+00, -5.0D-01,  1.8D-02, r^2= 5.6D+00
   Bfn.  Coefficient  Atom+Function         Bfn.  Coefficient  Atom+Function  
  ----- ------------  ---------------      ----- ------------  ---------------
    20      0.753868   4 O  px                8      0.576981   1 O  py        
    61      0.571612  13 O  pz                9     -0.545637   1 O  pz        
    63     -0.509982  14 H  s                16     -0.507313   4 O  px        
    60     -0.495988  13 O  py               65      0.484949  15 H  s         
     7     -0.449687   1 O  px                4     -0.445894   1 O  py        

 Vector   57  Occ=0.000000D+00  E= 1.249530D+00
              MO Center=  1.2D+00, -4.7D-02,  1.6D-02, r^2= 4.4D+00
   Bfn.  Coefficient  Atom+Function         Bfn.  Coefficient  Atom+Function  
  ----- ------------  ---------------      ----- ------------  ---------------
     7      0.835618   1 O  px               21      0.603532   4 O  py        
     3     -0.594145   1 O  px                9      0.534759   1 O  pz        
    13     -0.471611   3 H  s                17     -0.432977   4 O  py        
    60     -0.426513  13 O  py               56      0.392252  13 O  py        
    22      0.326868   4 O  pz               62      0.319105  14 H  s         

 Vector   58  Occ=0.000000D+00  E= 1.275865D+00
              MO Center= -8.9D-01,  3.9D-02, -1.9D-01, r^2= 4.5D+00
   Bfn.  Coefficient  Atom+Function         Bfn.  Coefficient  Atom+Function  
  ----- ------------  ---------------      ----- ------------  ---------------
    47      0.753766  10 O  py               11     -0.636153   2 H  s         
    63      0.629208  14 H  s                 8     -0.577499   1 O  py        
    46     -0.527906  10 O  px               33      0.492732   7 O  px        
    43     -0.452192  10 O  py               35     -0.357480   7 O  pz        
    48      0.344471  10 O  pz               42      0.337716  10 O  px        

 Vector   59  Occ=0.000000D+00  E= 1.304247D+00
              MO Center=  7.3D-02, -6.3D-01, -1.6D-02, r^2= 7.2D+00
   Bfn.  Coefficient  Atom+Function         Bfn.  Coefficient  Atom+Function  
  ----- ------------  ---------------      ----- ------------  ---------------
    37      1.225292   8 H  s                24     -1.096206   5 H  s         
    50     -0.936788  11 H  s                34     -0.854222   7 O  py        
    20     -0.683676   4 O  px               47      0.669050  10 O  py        
    26      0.585569   6 H  s                 6      0.572079   1 O  s         
    46      0.558566  10 O  px               15      0.549959   4 O  s         

 Vector   60  Occ=0.000000D+00  E= 1.310094D+00
              MO Center= -5.9D-01,  7.1D-01,  8.0D-02, r^2= 7.3D+00
   Bfn.  Coefficient  Atom+Function         Bfn.  Coefficient  Atom+Function  
  ----- ------------  ---------------      ----- ------------  ---------------
    63      1.109908  14 H  s                11     -0.999587   2 H  s         
    50     -0.871146  11 H  s                 8     -0.807176   1 O  py        
    46      0.727018  10 O  px               52      0.707175  12 H  s         
    45     -0.645064  10 O  s                59     -0.635814  13 O  px        
    24      0.591360   5 H  s                20      0.565398   4 O  px        

 Vector   61  Occ=0.000000D+00  E= 1.669306D+00
              MO Center=  4.8D-01, -1.4D-01,  3.0D-03, r^2= 6.4D+00
   Bfn.  Coefficient  Atom+Function         Bfn.  Coefficient  Atom+Function  
  ----- ------------  ---------------      ----- ------------  ---------------
     6      1.678069   1 O  s                24      1.626416   5 H  s         
    58     -1.604127  13 O  s                11     -1.567646   2 H  s         
    19     -1.115124   4 O  s                20      1.106343   4 O  px        
    37     -1.095477   8 H  s                 8     -1.025078   1 O  py        
    45      0.960567  10 O  s                63      0.912078  14 H  s         

 Vector   62  Occ=0.000000D+00  E= 1.675281D+00
              MO Center= -5.0D-01,  1.3D-01,  7.2D-03, r^2= 6.4D+00
   Bfn.  Coefficient  Atom+Function         Bfn.  Coefficient  Atom+Function  
  ----- ------------  ---------------      ----- ------------  ---------------
    32      1.745801   7 O  s                50      1.640548  11 H  s         
    45     -1.462963  10 O  s                63     -1.456661  14 H  s         
    19     -1.360114   4 O  s                37     -1.294453   8 H  s         
    59      1.046578  13 O  px               47     -0.951924  10 O  py        
    28     -0.910241   7 O  s                15      0.800862   4 O  s         

 Vector   63  Occ=0.000000D+00  E= 1.937324D+00
              MO Center= -6.9D-01, -5.2D-02,  3.9D-02, r^2= 5.6D+00
   Bfn.  Coefficient  Atom+Function         Bfn.  Coefficient  Atom+Function  
  ----- ------------  ---------------      ----- ------------  ---------------
    32      2.180180   7 O  s                45      2.050620  10 O  s         
     6     -1.788229   1 O  s                37     -1.443901   8 H  s         
    41     -1.108071  10 O  s                28     -1.085993   7 O  s         
    11      1.040841   2 H  s                 2      0.914637   1 O  s         
    50     -0.844894  11 H  s                63      0.754268  14 H  s         

 Vector   64  Occ=0.000000D+00  E= 1.955774D+00
              MO Center= -4.3D-02,  2.4D-01, -4.9D-02, r^2= 5.9D+00
   Bfn.  Coefficient  Atom+Function         Bfn.  Coefficient  Atom+Function  
  ----- ------------  ---------------      ----- ------------  ---------------
    58      2.202742  13 O  s                19     -1.993480   4 O  s         
    45      1.522686  10 O  s                24      1.318774   5 H  s         
    50     -1.325003  11 H  s                32     -1.176627   7 O  s         
    54     -1.157416  13 O  s                63     -1.027370  14 H  s         
    15      0.991900   4 O  s                41     -0.705467  10 O  s         

 Vector   65  Occ=0.000000D+00  E= 1.963325D+00
              MO Center=  7.3D-01, -1.8D-01,  7.0D-03, r^2= 5.0D+00
   Bfn.  Coefficient  Atom+Function         Bfn.  Coefficient  Atom+Function  
  ----- ------------  ---------------      ----- ------------  ---------------
     6      2.097334   1 O  s                19      1.871513   4 O  s         
    58      1.588742  13 O  s                32      1.146867   7 O  s         
     2     -1.079598   1 O  s                11     -1.082870   2 H  s         
    15     -0.989369   4 O  s                45      0.978104  10 O  s         
    63     -0.883151  14 H  s                54     -0.808415  13 O  s         


 center of mass
 --------------
 x =   0.00192910 y =  -0.00191733 z =  -0.01008814

 moments of inertia (a.u.)
 ------------------
         882.028247166030          -1.404266143859          -6.848395672014
          -1.404266143859         883.267995956268          -1.227487259436
          -6.848395672014          -1.227487259436        1730.655872378266

     Multipole analysis of the density
     ---------------------------------

     L   x y z        total         alpha         beta         nuclear
     -   - - -        -----         -----         ----         -------
     0   0 0 0     -0.000000    -25.000000    -25.000000     50.000000

     1   1 0 0     -0.093527     -0.046764     -0.046764     -0.000000
     1   0 1 0      0.085615      0.042807      0.042807      0.000000
     1   0 0 1      0.527926      0.263963      0.263963      0.000000

     2   2 0 0    -21.050491   -253.855500   -253.855500    486.660509
     2   1 1 0     -0.826388     -0.413159     -0.413159     -0.000069
     2   1 0 1     -4.174654     -2.087350     -2.087350      0.000046
     2   0 2 0    -21.353170   -253.507207   -253.507207    485.661244
     2   0 1 1     -0.741849     -0.370919     -0.370919     -0.000012
     2   0 0 2    -20.593674    -17.851264    -17.851264     15.108854

                                NWChem TDDFT Module
                                -------------------


            General Information
            -------------------
           No. of orbitals :     130
            Alpha orbitals :      65
             Beta orbitals :      65
        Alpha frozen cores :       0
         Beta frozen cores :       0
     Alpha frozen virtuals :       0
      Beta frozen virtuals :       0
         Spin multiplicity :       1
    Number of AO functions :      65
        Use of symmetry is : off
      Symmetry adaption is : off
         Schwarz screening :  0.10D-07

              XC Information
              --------------
    Becke half-and-half Method XC Potential
              Hartree-Fock (Exact) Exchange   0.50          
                 Slater Exchange Functional   0.50 local    
     Perdew 1991 LDA Correlation Functional   0.50 local    

             TDDFT Information
             -----------------
          Calculation type : Tamm-Dancoff TDDFT
         Wavefunction type : Restricted singlets
          No. of electrons :      50
           Alpha electrons :      25
            Beta electrons :      25
              No. of roots :      10
          Max subspacesize :    6000
            Max iterations :     100
               Target root :       1
           Target symmetry : none
             Energy Cutoff :-0.10D+02
      Symmetry restriction : off
                 Algorithm : Optimal
        Davidson threshold :  0.10D-03

            Memory Information
            ------------------
          Available GA space size is         262139775 doubles
          Available MA space size is          52478900 doubles
          Length of a trial vector is         1000
          Algorithm : Incore multiple tensor contraction
          Estimated peak GA usage is          18360675 doubles
          Estimated peak MA usage is             51000 doubles

   10 smallest eigenvalue differences (eV) 
--------------------------------------------------------
  No. Spin  Occ  Vir  Irrep   E(Occ)    E(Vir)   E(Diff)
--------------------------------------------------------
    1    1    5   26 a       -19.566     0.114   535.507
    2    1    4   26 a       -19.566     0.114   535.520
    3    1    3   26 a       -19.566     0.114   535.521
    4    1    2   26 a       -19.566     0.114   535.521
    5    1    1   26 a       -19.568     0.114   535.569
    6    1    5   27 a       -19.566     0.146   536.375
    7    1    4   27 a       -19.566     0.146   536.388
    8    1    3   27 a       -19.566     0.146   536.389
    9    1    2   27 a       -19.566     0.146   536.389
   10    1    1   27 a       -19.568     0.146   536.437
--------------------------------------------------------

  Entering Davidson iterations
  Restricted singlet excited states

  Iter   NTrls   NConv    DeltaV     DeltaE      Time   
  ----  ------  ------  ---------  ---------  --------- 
    1     10       0     0.11E+00   0.10+100        2.1
    2     20       0     0.60E-01   0.77E-01        2.2
    3     30       0     0.50E-01   0.17E-01        2.2
    4     40       0     0.39E-01   0.14E-01        2.3
    5     50       0     0.47E-02   0.17E-02        2.3
    6     60       3     0.80E-03   0.44E-04        2.3
    7     67      10     0.91E-04   0.16E-05        1.7
  ----  ------  ------  ---------  ---------  --------- 
  Convergence criterion met

  Ground state a        -379.612584571426 a.u.

  ----------------------------------------------------------------------------
  Root   1 singlet a             19.480103069 a.u.              530.0808 eV 
  ----------------------------------------------------------------------------
     Transition Moments    X  0.00933   Y -0.02895   Z -0.00996
     Transition Moments   XX -0.07129  XY  0.17545  XZ  0.04345
     Transition Moments   YY -0.07337  YZ -0.10439  ZZ  0.01991
     Dipole Oscillator Strength                    0.0133042095
     Electric Quadrupole                           0.0018268143
     Magnetic Dipole                               0.0010889534
     Total Oscillator Strength                     0.0162199772

     Occ.    1  a   ---  Virt.   26  a       -0.23586
     Occ.    1  a   ---  Virt.   27  a       -0.23313
     Occ.    1  a   ---  Virt.   28  a        0.12632
     Occ.    1  a   ---  Virt.   29  a        0.22345
     Occ.    5  a   ---  Virt.   26  a        0.48930
     Occ.    5  a   ---  Virt.   27  a        0.36462
     Occ.    5  a   ---  Virt.   28  a        0.41667
     Occ.    5  a   ---  Virt.   29  a        0.39098
     Occ.    5  a   ---  Virt.   30  a       -0.28471
     Occ.    5  a   ---  Virt.   31  a        0.10768
     Occ.    5  a   ---  Virt.   32  a        0.06704
     Occ.    5  a   ---  Virt.   45  a        0.05736
     Occ.    5  a   ---  Virt.   51  a        0.05904
  ----------------------------------------------------------------------------
  Root   2 singlet a             19.480152029 a.u.              530.0821 eV 
  ----------------------------------------------------------------------------
     Transition Moments    X  0.02836   Y -0.00437   Z -0.04847
     Transition Moments   XX -0.16312  XY -0.01946  XZ  0.16312
     Transition Moments   YY -0.06795  YZ  0.08209  ZZ  0.01894
     Dipole Oscillator Strength                    0.0412076380
     Electric Quadrupole                           0.0016539894
     Magnetic Dipole                               0.0023460977
     Total Oscillator Strength                     0.0452077251

     Occ.    1  a   ---  Virt.   26  a        0.50186
     Occ.    1  a   ---  Virt.   27  a        0.49457
     Occ.    1  a   ---  Virt.   28  a       -0.26086
     Occ.    1  a   ---  Virt.   29  a       -0.46541
     Occ.    1  a   ---  Virt.   31  a        0.10064
     Occ.    1  a   ---  Virt.   33  a        0.05650
     Occ.    1  a   ---  Virt.   43  a       -0.05664
     Occ.    1  a   ---  Virt.   51  a        0.07053
     Occ.    5  a   ---  Virt.   26  a        0.22983
     Occ.    5  a   ---  Virt.   27  a        0.17056
     Occ.    5  a   ---  Virt.   28  a        0.19960
     Occ.    5  a   ---  Virt.   29  a        0.18852
     Occ.    5  a   ---  Virt.   30  a       -0.13546
     Occ.    5  a   ---  Virt.   31  a        0.05058
  ----------------------------------------------------------------------------
  Root   3 singlet a             19.483492732 a.u.              530.1730 eV 
  ----------------------------------------------------------------------------
     Transition Moments    X -0.02105   Y  0.00998   Z -0.03892
     Transition Moments   XX -0.16042  XY  0.03189  XZ -0.17485
     Transition Moments   YY  0.02966  YZ -0.01629  ZZ -0.00700
     Dipole Oscillator Strength                    0.0267237932
     Electric Quadrupole                           0.0016550472
     Magnetic Dipole                               0.0019439774
     Total Oscillator Strength                     0.0303228178

     Occ.    2  a   ---  Virt.   26  a        0.34700
     Occ.    2  a   ---  Virt.   27  a       -0.46213
     Occ.    2  a   ---  Virt.   28  a       -0.07836
     Occ.    2  a   ---  Virt.   29  a       -0.13888
     Occ.    2  a   ---  Virt.   30  a       -0.37907
     Occ.    2  a   ---  Virt.   31  a        0.08414
     Occ.    2  a   ---  Virt.   32  a       -0.06409
     Occ.    3  a   ---  Virt.   26  a       -0.23363
     Occ.    3  a   ---  Virt.   27  a        0.31317
     Occ.    3  a   ---  Virt.   28  a        0.06029
     Occ.    3  a   ---  Virt.   29  a        0.09223
     Occ.    3  a   ---  Virt.   30  a        0.26396
     Occ.    3  a   ---  Virt.   31  a       -0.05666
     Occ.    4  a   ---  Virt.   26  a       -0.22385
     Occ.    4  a   ---  Virt.   27  a        0.30242
     Occ.    4  a   ---  Virt.   28  a        0.05288
     Occ.    4  a   ---  Virt.   29  a        0.09254
     Occ.    4  a   ---  Virt.   30  a        0.25538
     Occ.    4  a   ---  Virt.   31  a       -0.05429
  ----------------------------------------------------------------------------
  Root   4 singlet a             19.484030528 a.u.              530.1877 eV 
  ----------------------------------------------------------------------------
     Transition Moments    X -0.01651   Y -0.01838   Z  0.03862
     Transition Moments   XX -0.00637  XY -0.08781  XZ  0.03561
     Transition Moments   YY -0.13423  YZ  0.16699  ZZ  0.00968
     Dipole Oscillator Strength                    0.0273015534
     Electric Quadrupole                           0.0016970304
     Magnetic Dipole                               0.0020084326
     Total Oscillator Strength                     0.0310070165

     Occ.    2  a   ---  Virt.   26  a        0.32141
     Occ.    2  a   ---  Virt.   27  a       -0.21938
     Occ.    2  a   ---  Virt.   28  a        0.36605
     Occ.    2  a   ---  Virt.   29  a       -0.12019
     Occ.    2  a   ---  Virt.   30  a        0.35989
     Occ.    2  a   ---  Virt.   31  a        0.07990
     Occ.    2  a   ---  Virt.   33  a       -0.05708
     Occ.    3  a   ---  Virt.   26  a        0.32529
     Occ.    3  a   ---  Virt.   27  a       -0.22435
     Occ.    3  a   ---  Virt.   28  a        0.35756
     Occ.    3  a   ---  Virt.   29  a       -0.11841
     Occ.    3  a   ---  Virt.   30  a        0.35177
     Occ.    3  a   ---  Virt.   31  a        0.08083
     Occ.    3  a   ---  Virt.   33  a       -0.05615
     Occ.    4  a   ---  Virt.   26  a        0.15825
     Occ.    4  a   ---  Virt.   27  a       -0.11130
     Occ.    4  a   ---  Virt.   28  a        0.18161
     Occ.    4  a   ---  Virt.   29  a       -0.06276
     Occ.    4  a   ---  Virt.   30  a        0.17066
  ----------------------------------------------------------------------------
  Root   5 singlet a             19.484539914 a.u.              530.2015 eV 
  ----------------------------------------------------------------------------
     Transition Moments    X  0.00114   Y  0.02068   Z  0.04100
     Transition Moments   XX  0.02598  XY  0.03350  XZ  0.07444
     Transition Moments   YY -0.14457  YZ -0.16332  ZZ -0.00596
     Dipole Oscillator Strength                    0.0274095725
     Electric Quadrupole                           0.0016369973
     Magnetic Dipole                               0.0019864166
     Total Oscillator Strength                     0.0310329864

     Occ.    2  a   ---  Virt.   26  a        0.07689
     Occ.    2  a   ---  Virt.   28  a       -0.09125
     Occ.    2  a   ---  Virt.   29  a        0.07333
     Occ.    2  a   ---  Virt.   30  a        0.05284
     Occ.    3  a   ---  Virt.   26  a       -0.27177
     Occ.    3  a   ---  Virt.   27  a        0.07540
     Occ.    3  a   ---  Virt.   28  a        0.34268
     Occ.    3  a   ---  Virt.   29  a       -0.26697
     Occ.    3  a   ---  Virt.   30  a       -0.17399
     Occ.    3  a   ---  Virt.   31  a       -0.06551
     Occ.    4  a   ---  Virt.   26  a        0.40267
     Occ.    4  a   ---  Virt.   27  a       -0.11639
     Occ.    4  a   ---  Virt.   28  a       -0.49429
     Occ.    4  a   ---  Virt.   29  a        0.38576
     Occ.    4  a   ---  Virt.   30  a        0.25513
     Occ.    4  a   ---  Virt.   31  a        0.09710
     Occ.    4  a   ---  Virt.   33  a        0.06248
     Occ.    4  a   ---  Virt.   44  a       -0.05136
     Occ.    4  a   ---  Virt.   55  a        0.05142
  ----------------------------------------------------------------------------
  Root   6 singlet a             19.582745037 a.u.              532.8738 eV 
  ----------------------------------------------------------------------------
     Transition Moments    X -0.03200   Y  0.02377   Z  0.01989
     Transition Moments   XX -0.11104  XY  0.16893  XZ  0.04331
     Transition Moments   YY -0.18997  YZ -0.08513  ZZ -0.01831
     Dipole Oscillator Strength                    0.0259094840
     Electric Quadrupole                           0.0018012404
     Magnetic Dipole                               0.0008250405
     Total Oscillator Strength                     0.0285357648

     Occ.    2  a   ---  Virt.   26  a       -0.09945
     Occ.    2  a   ---  Virt.   29  a        0.06109
     Occ.    2  a   ---  Virt.   31  a        0.05459
     Occ.    2  a   ---  Virt.   33  a        0.05857
     Occ.    3  a   ---  Virt.   26  a        0.37180
     Occ.    3  a   ---  Virt.   27  a        0.09550
     Occ.    3  a   ---  Virt.   29  a       -0.21727
     Occ.    3  a   ---  Virt.   30  a       -0.09398
     Occ.    3  a   ---  Virt.   31  a       -0.20417
     Occ.    3  a   ---  Virt.   33  a       -0.21207
     Occ.    3  a   ---  Virt.   34  a        0.11938
     Occ.    3  a   ---  Virt.   35  a        0.05312
     Occ.    4  a   ---  Virt.   26  a       -0.54546
     Occ.    4  a   ---  Virt.   27  a       -0.13936
     Occ.    4  a   ---  Virt.   29  a        0.31449
     Occ.    4  a   ---  Virt.   30  a        0.13280
     Occ.    4  a   ---  Virt.   31  a        0.29952
     Occ.    4  a   ---  Virt.   33  a        0.31017
     Occ.    4  a   ---  Virt.   34  a       -0.17266
     Occ.    4  a   ---  Virt.   35  a       -0.07536
     Occ.    4  a   ---  Virt.   53  a       -0.05066
  ----------------------------------------------------------------------------
  Root   7 singlet a             19.583909540 a.u.              532.9055 eV 
  ----------------------------------------------------------------------------
     Transition Moments    X -0.00619   Y -0.03420   Z  0.02072
     Transition Moments   XX  0.13483  XY -0.03925  XZ  0.00955
     Transition Moments   YY -0.30496  YZ  0.08385  ZZ -0.00817
     Dipole Oscillator Strength                    0.0213744373
     Electric Quadrupole                           0.0023593703
     Magnetic Dipole                               0.0004956131
     Total Oscillator Strength                     0.0242294208

     Occ.    2  a   ---  Virt.   26  a       -0.39804
     Occ.    2  a   ---  Virt.   27  a        0.09830
     Occ.    2  a   ---  Virt.   28  a        0.05519
     Occ.    2  a   ---  Virt.   30  a        0.27711
     Occ.    2  a   ---  Virt.   31  a        0.22211
     Occ.    2  a   ---  Virt.   32  a       -0.14084
     Occ.    2  a   ---  Virt.   33  a       -0.19562
     Occ.    2  a   ---  Virt.   35  a       -0.14280
     Occ.    3  a   ---  Virt.   26  a       -0.41030
     Occ.    3  a   ---  Virt.   27  a        0.09607
     Occ.    3  a   ---  Virt.   28  a        0.05987
     Occ.    3  a   ---  Virt.   30  a        0.26329
     Occ.    3  a   ---  Virt.   31  a        0.22855
     Occ.    3  a   ---  Virt.   32  a       -0.15247
     Occ.    3  a   ---  Virt.   33  a       -0.18774
     Occ.    3  a   ---  Virt.   35  a       -0.13618
     Occ.    4  a   ---  Virt.   26  a       -0.20948
     Occ.    4  a   ---  Virt.   30  a        0.12721
     Occ.    4  a   ---  Virt.   31  a        0.11671
     Occ.    4  a   ---  Virt.   32  a       -0.07724
     Occ.    4  a   ---  Virt.   33  a       -0.09282
     Occ.    4  a   ---  Virt.   35  a       -0.06587
     Occ.    5  a   ---  Virt.   26  a        0.23907
     Occ.    5  a   ---  Virt.   27  a       -0.06874
     Occ.    5  a   ---  Virt.   29  a       -0.10187
     Occ.    5  a   ---  Virt.   30  a        0.10728
     Occ.    5  a   ---  Virt.   31  a       -0.14163
     Occ.    5  a   ---  Virt.   32  a       -0.06877
     Occ.    5  a   ---  Virt.   33  a        0.11654
     Occ.    5  a   ---  Virt.   34  a        0.05610
     Occ.    5  a   ---  Virt.   35  a       -0.05730
  ----------------------------------------------------------------------------
  Root   8 singlet a             19.583950609 a.u.              532.9066 eV 
  ----------------------------------------------------------------------------
     Transition Moments    X -0.04396   Y  0.01850   Z  0.00112
     Transition Moments   XX  0.29367  XY -0.11002  XZ -0.03024
     Transition Moments   YY  0.13825  YZ -0.00974  ZZ  0.00731
     Dipole Oscillator Strength                    0.0297090496
     Electric Quadrupole                           0.0013464405
     Magnetic Dipole                               0.0007289516
     Total Oscillator Strength                     0.0317844417

     Occ.    2  a   ---  Virt.   26  a        0.15112
     Occ.    2  a   ---  Virt.   30  a       -0.10440
     Occ.    2  a   ---  Virt.   31  a       -0.08452
     Occ.    2  a   ---  Virt.   33  a        0.07642
     Occ.    2  a   ---  Virt.   35  a        0.05385
     Occ.    3  a   ---  Virt.   26  a        0.17296
     Occ.    3  a   ---  Virt.   30  a       -0.08959
     Occ.    3  a   ---  Virt.   31  a       -0.09695
     Occ.    3  a   ---  Virt.   32  a        0.05362
     Occ.    3  a   ---  Virt.   33  a        0.07855
     Occ.    4  a   ---  Virt.   26  a        0.08454
     Occ.    5  a   ---  Virt.   26  a        0.59270
     Occ.    5  a   ---  Virt.   27  a       -0.17274
     Occ.    5  a   ---  Virt.   28  a        0.08014
     Occ.    5  a   ---  Virt.   29  a       -0.27388
     Occ.    5  a   ---  Virt.   30  a        0.30990
     Occ.    5  a   ---  Virt.   31  a       -0.35250
     Occ.    5  a   ---  Virt.   32  a       -0.19653
     Occ.    5  a   ---  Virt.   33  a        0.29003
     Occ.    5  a   ---  Virt.   34  a        0.15019
     Occ.    5  a   ---  Virt.   35  a       -0.16502
     Occ.    5  a   ---  Virt.   51  a       -0.06008
  ----------------------------------------------------------------------------
  Root   9 singlet a             19.584301977 a.u.              532.9162 eV 
  ----------------------------------------------------------------------------
     Transition Moments    X  0.03302   Y  0.02248   Z  0.01938
     Transition Moments   XX  0.29277  XY  0.10233  XZ  0.09630
     Transition Moments   YY  0.03186  YZ  0.01284  ZZ  0.01999
     Dipole Oscillator Strength                    0.0257370437
     Electric Quadrupole                           0.0017471508
     Magnetic Dipole                               0.0008007536
     Total Oscillator Strength                     0.0282849480

     Occ.    2  a   ---  Virt.   26  a        0.48701
     Occ.    2  a   ---  Virt.   28  a       -0.11639
     Occ.    2  a   ---  Virt.   29  a        0.16152
     Occ.    2  a   ---  Virt.   30  a        0.27257
     Occ.    2  a   ---  Virt.   31  a       -0.26626
     Occ.    2  a   ---  Virt.   32  a        0.27237
     Occ.    2  a   ---  Virt.   33  a       -0.08416
     Occ.    2  a   ---  Virt.   34  a       -0.09421
     Occ.    2  a   ---  Virt.   35  a       -0.13621
     Occ.    3  a   ---  Virt.   26  a       -0.31245
     Occ.    3  a   ---  Virt.   28  a        0.07651
     Occ.    3  a   ---  Virt.   29  a       -0.10711
     Occ.    3  a   ---  Virt.   30  a       -0.20085
     Occ.    3  a   ---  Virt.   31  a        0.17060
     Occ.    3  a   ---  Virt.   32  a       -0.17815
     Occ.    3  a   ---  Virt.   33  a        0.06955
     Occ.    3  a   ---  Virt.   34  a        0.06294
     Occ.    3  a   ---  Virt.   35  a        0.10051
     Occ.    4  a   ---  Virt.   26  a       -0.30179
     Occ.    4  a   ---  Virt.   28  a        0.07453
     Occ.    4  a   ---  Virt.   29  a       -0.10773
     Occ.    4  a   ---  Virt.   30  a       -0.19125
     Occ.    4  a   ---  Virt.   31  a        0.16483
     Occ.    4  a   ---  Virt.   32  a       -0.17440
     Occ.    4  a   ---  Virt.   33  a        0.06049
     Occ.    4  a   ---  Virt.   34  a        0.06317
     Occ.    4  a   ---  Virt.   35  a        0.09607
  ----------------------------------------------------------------------------
  Root  10 singlet a             19.585055398 a.u.              532.9367 eV 
  ----------------------------------------------------------------------------
     Transition Moments    X  0.01304   Y  0.04085   Z -0.01577
     Transition Moments   XX -0.09229  XY -0.16774  XZ  0.05253
     Transition Moments   YY -0.24081  YZ  0.05149  ZZ -0.01133
     Dipole Oscillator Strength                    0.0272623231
     Electric Quadrupole                           0.0018839836
     Magnetic Dipole                               0.0008912146
     Total Oscillator Strength                     0.0300375214

     Occ.    1  a   ---  Virt.   26  a       -0.63205
     Occ.    1  a   ---  Virt.   28  a       -0.19253
     Occ.    1  a   ---  Virt.   29  a       -0.42709
     Occ.    1  a   ---  Virt.   30  a        0.07794
     Occ.    1  a   ---  Virt.   31  a        0.38660
     Occ.    1  a   ---  Virt.   32  a        0.37849
     Occ.    1  a   ---  Virt.   33  a        0.11160
     Occ.    1  a   ---  Virt.   34  a        0.22611
     Occ.    1  a   ---  Virt.   35  a       -0.05099
     Occ.    1  a   ---  Virt.   51  a        0.06463
     Occ.    1  a   ---  Virt.   58  a        0.05180

              Target root =      1
          Target symmetry = none
      Ground state energy =   -379.612584571426
        Excitation energy =     19.480103068643
     Excited state energy =   -360.132481502783

  stored tddft:energy   -360.13248150278298     

 Task  times  cpu:       16.5s     wall:       16.5s


                                NWChem Input Module
                                -------------------


 Summary of allocated global arrays
-----------------------------------
  No active global arrays



                         GA Statistics for process    0
                         ------------------------------

       create   destroy   get      put      acc     scatter   gather  read&inc
calls:  790      790     1.24e+06 5.91e+04 6.32e+05  298        0     1849     
number of processes/call 1.02e+00 1.49e+00 1.21e+00 0.00e+00 0.00e+00
bytes total:             2.96e+08 3.71e+07 1.50e+08 8.84e+03 0.00e+00 1.48e+04
bytes remote:            1.30e+08 4.58e+06 6.87e+07 0.00e+00 0.00e+00 0.00e+00
Max memory consumed for GA by this process: 25167400 bytes

MA_summarize_allocated_blocks: starting scan ...
heap block 'gridpts', handle 77, address 0x55de5090ded8:
	type of elements:		double precision
	number of elements:		13052767
	address of client space:	0x55de5090df40
	index for client space:		10964475
	total number of bytes:		104422248
MA_summarize_allocated_blocks: scan completed: 1 heap block, 0 stack blocks
MA usage statistics:

	allocation statistics:
					      heap	     stack
					      ----	     -----
	current number of blocks	         1	         0
	maximum number of blocks	        21	        51
	current total bytes		 104422248	         0
	maximum total bytes		 107207848	  22515176
	maximum total K-bytes		    107208	     22516
	maximum total M-bytes		       108	        23


                                     CITATION
                                     --------
                Please cite the following reference when publishing
                           results obtained with NWChem:

                 M. Valiev, E.J. Bylaska, N. Govind, K. Kowalski,
              T.P. Straatsma, H.J.J. van Dam, D. Wang, J. Nieplocha,
                        E. Apra, T.L. Windus, W.A. de Jong
                 "NWChem: a comprehensive and scalable open-source
                  solution for large scale molecular simulations"
                      Comput. Phys. Commun. 181, 1477 (2010)
                           doi:10.1016/j.cpc.2010.04.018

                                      AUTHORS
                                      -------
          E. Apra, E. J. Bylaska, W. A. de Jong, N. Govind, K. Kowalski,
       T. P. Straatsma, M. Valiev, H. J. J. van Dam, D. Wang, T. L. Windus,
        J. Hammond, J. Autschbach, K. Bhaskaran-Nair, J. Brabec, K. Lopata,
    S. A. Fischer, S. Krishnamoorthy, M. Jacquelin, W. Ma, M. Klemm, O. Villa,
      Y. Chen, V. Anisimov, F. Aquino, S. Hirata, M. T. Hackler, V. Konjkov,
            D. Mejia-Rodriguez, T. Risthaus, M. Malagoli, A. Marenich,
   A. Otero-de-la-Roza, J. Mullin, P. Nichols, R. Peverati, J. Pittner, Y. Zhao,
        P.-D. Fan, A. Fonari, M. J. Williamson, R. J. Harrison, J. R. Rehr,
      M. Dupuis, D. Silverstein, D. M. A. Smith, J. Nieplocha, V. Tipparaju,
    M. Krishnan, B. E. Van Kuiken, A. Vazquez-Mayagoitia, L. Jensen, M. Swart,
      Q. Wu, T. Van Voorhis, A. A. Auer, M. Nooijen, L. D. Crosby, E. Brown,
      G. Cisneros, G. I. Fann, H. Fruchtl, J. Garza, K. Hirao, R. A. Kendall,
      J. A. Nichols, K. Tsemekhman, K. Wolinski, J. Anchell, D. E. Bernholdt,
      P. Borowski, T. Clark, D. Clerc, H. Dachsel, M. J. O. Deegan, K. Dyall,
    D. Elwood, E. Glendening, M. Gutowski, A. C. Hess, J. Jaffe, B. G. Johnson,
     J. Ju, R. Kobayashi, R. Kutteh, Z. Lin, R. Littlefield, X. Long, B. Meng,
      T. Nakajima, S. Niu, L. Pollack, M. Rosing, K. Glaesemann, G. Sandrone,
      M. Stave, H. Taylor, G. Thomas, J. H. van Lenthe, A. T. Wong, Z. Zhang.

 Total times  cpu:       16.5s     wall:       16.5s
