 argument  1 = /home/list1234/source/nwchem-6.8.1-release/QA/tests/acr-camb3lyp-cdfit/acr-camb3lyp-cdfit.nw



============================== echo of input deck ==============================
echo
start acr-camb3lyp-cdfit

geometry units bohr
C         -3.4889915040            0.0757243564            0.0000000000
C         -1.1660674990           -0.8921396346            0.0000000000
C          1.0745076249            0.7531195619            0.0000000000
O          3.2306456355           -0.0048697519            0.0000000000
H         -5.1598072439           -1.1007803728            0.0000000000
H         -3.7843301456            2.1030589485            0.0000000000
H         -0.8202431053           -2.9101405740            0.0000000000
H          0.6573804135            2.8079130427            0.0000000000
end

basis spherical
 * library "cc-pVTZ"
end

basis "cd basis"
*  library "DGauss A2 DFT Coulomb Fitting"
end

set int:cando_txs f

dft
 xc xcamb88 1.00 lyp 0.81 vwn_5 0.19 hfexch 1.00
 cam 0.33 cam_alpha 0.19 cam_beta 0.81
# direct
# odft
# mult 1
end
#task dft energy

#property
# center com
# dipole
#end
#task dft property

tddft
 nroots 5
 notriplet
 algorithm 3
end
task tddft energy
================================================================================


                                         
                                         


              Northwest Computational Chemistry Package (NWChem) 6.8
              ------------------------------------------------------


                    Environmental Molecular Sciences Laboratory
                       Pacific Northwest National Laboratory
                                Richland, WA 99352

                              Copyright (c) 1994-2018
                       Pacific Northwest National Laboratory
                            Battelle Memorial Institute

             NWChem is an open-source computational chemistry package
                        distributed under the terms of the
                      Educational Community License (ECL) 2.0
             A copy of the license is included with this distribution
                              in the LICENSE.TXT file

                                  ACKNOWLEDGMENT
                                  --------------

            This software and its documentation were developed at the
            EMSL at Pacific Northwest National Laboratory, a multiprogram
            national laboratory, operated for the U.S. Department of Energy
            by Battelle under Contract Number DE-AC05-76RL01830. Support
            for this work was provided by the Department of Energy Office
            of Biological and Environmental Research, Office of Basic
            Energy Sciences, and the Office of Advanced Scientific Computing.


           Job information
           ---------------

    hostname        = list1234-B360M-H
    program         = /home/list1234/source/nwchem-6.8.1-release/bin/LINUX64/nwchem
    date            = Sun Jun 30 07:13:42 2019

    compiled        = Sun_Jun_30_05:21:11_2019
    source          = /home/list1234/source/nwchem-6.8.1-release
    nwchem branch   = Development
    nwchem revision = N/A
    ga revision     = 5.6.5
    use scalapack   = T
    input           = /home/list1234/source/nwchem-6.8.1-release/QA/tests/acr-camb3lyp-cdfit/acr-camb3lyp-cdfit.nw
    prefix          = acr-camb3lyp-cdfit.
    data base       = ./acr-camb3lyp-cdfit.db
    status          = startup
    nproc           =        4
    time left       =     -1s



           Memory information
           ------------------

    heap     =   86247168 doubles =    658.0 Mbytes
    stack    =   86247165 doubles =    658.0 Mbytes
    global   =  172494336 doubles =   1316.0 Mbytes (distinct from heap & stack)
    total    =  344988669 doubles =   2632.1 Mbytes
    verify   = yes
    hardfail = no 


           Directory information
           ---------------------

  0 permanent = .
  0 scratch   = .




                                NWChem Input Module
                                -------------------


 CS  symmetry detected

          ------
          auto-z
          ------
  no constraints, skipping    0.0000000000000000     
  no constraints, skipping    0.0000000000000000     


                             Geometry "geometry" -> ""
                             -------------------------

 Output coordinates in a.u. (scale by  1.000000000 to convert to a.u.)

  No.       Tag          Charge          X              Y              Z
 ---- ---------------- ---------- -------------- -------------- --------------
    1 C                    6.0000     0.25763286     3.32137763     0.00000000
    2 C                    6.0000    -0.84664484     1.06011528     0.00000000
    3 C                    6.0000     0.66247352    -1.27432608     0.00000000
    4 O                    8.0000    -0.22238340    -3.38157718     0.00000000
    5 H                    1.0000    -0.81743964     5.05919457     0.00000000
    6 H                    1.0000     2.29894170     3.49564380     0.00000000
    7 H                    1.0000    -2.88163854     0.83489769     0.00000000
    8 H                    1.0000     2.73843448    -0.98011961     0.00000000

      Atomic Mass 
      ----------- 

      C                 12.000000
      O                 15.994910
      H                  1.007825


 Effective nuclear repulsion energy (a.u.)     103.2460005257

            Nuclear Dipole moment (a.u.) 
            ----------------------------
        X                 Y               Z
 ---------------- ---------------- ----------------
     0.0000000000    -0.0000000000     0.0000000000

      Symmetry information
      --------------------

 Group name             Cs        
 Group number              2
 Group order               2
 No. of unique centers     8

      Symmetry unique atoms

     1    2    3    4    5    6    7    8



                                Z-matrix (autoz)
                                -------- 

 Units are Angstrom for bonds and degrees for angles

      Type          Name      I     J     K     L     M      Value
      ----------- --------  ----- ----- ----- ----- ----- ----------
    1 Stretch                  1     2                       1.33167
    2 Stretch                  1     5                       1.08136
    3 Stretch                  1     6                       1.08414
    4 Stretch                  2     3                       1.47098
    5 Stretch                  2     7                       1.08345
    6 Stretch                  3     4                       1.20943
    7 Stretch                  3     8                       1.10953
    8 Bend                     1     2     3               121.09066
    9 Bend                     1     2     7               122.34373
   10 Bend                     2     1     5               122.22929
   11 Bend                     2     1     6               120.90787
   12 Bend                     2     3     4               124.34098
   13 Bend                     2     3     8               114.81470
   14 Bend                     3     2     7               116.56561
   15 Bend                     4     3     8               120.84432
   16 Bend                     5     1     6               116.86284
   17 Torsion                  1     2     3     4         180.00000
   18 Torsion                  1     2     3     8           0.00000
   19 Torsion                  3     2     1     5         180.00000
   20 Torsion                  3     2     1     6           0.00000
   21 Torsion                  4     3     2     7           0.00000
   22 Torsion                  5     1     2     7           0.00000
   23 Torsion                  6     1     2     7         180.00000
   24 Torsion                  7     2     3     8         180.00000


            XYZ format geometry
            -------------------
     8
 geometry
 C                     0.13633345     1.75759748     0.00000000
 C                    -0.44802519     0.56098889     0.00000000
 C                     0.35056591    -0.67434437     0.00000000
 O                    -0.11768024    -1.78945371     0.00000000
 H                    -0.43257046     2.67721067     0.00000000
 H                     1.21654764     1.84981517     0.00000000
 H                    -1.52489755     0.44180886     0.00000000
 H                     1.44911722    -0.51865700     0.00000000

 ==============================================================================
                                internuclear distances
 ------------------------------------------------------------------------------
       center one      |      center two      | atomic units |       a.u.
 ------------------------------------------------------------------------------
    2 C                |   1 C                |     2.51649  |     2.51649
    3 C                |   2 C                |     2.77976  |     2.77976
    4 O                |   3 C                |     2.28549  |     2.28549
    5 H                |   1 C                |     2.04347  |     2.04347
    6 H                |   1 C                |     2.04873  |     2.04873
    7 H                |   2 C                |     2.04742  |     2.04742
    8 H                |   3 C                |     2.09670  |     2.09670
 ------------------------------------------------------------------------------
                         number of included internuclear distances:          7
 ==============================================================================



 ==============================================================================
                                 internuclear angles
 ------------------------------------------------------------------------------
        center 1       |       center 2       |       center 3       |  degrees
 ------------------------------------------------------------------------------
    2 C                |   1 C                |   5 H                |   122.23
    2 C                |   1 C                |   6 H                |   120.91
    5 H                |   1 C                |   6 H                |   116.86
    1 C                |   2 C                |   3 C                |   121.09
    1 C                |   2 C                |   7 H                |   122.34
    3 C                |   2 C                |   7 H                |   116.57
    2 C                |   3 C                |   4 O                |   124.34
    2 C                |   3 C                |   8 H                |   114.81
    4 O                |   3 C                |   8 H                |   120.84
 ------------------------------------------------------------------------------
                            number of included internuclear angles:          9
 ==============================================================================





 Summary of "ao basis" -> "" (spherical)
 ------------------------------------------------------------------------------
       Tag                 Description            Shells   Functions and Types
 ---------------- ------------------------------  ------  ---------------------
 *                          cc-pVTZ                   on all atoms 




 Summary of "cd basis" -> "" (cartesian)
 ------------------------------------------------------------------------------
       Tag                 Description            Shells   Functions and Types
 ---------------- ------------------------------  ------  ---------------------
 *                DGauss A2 DFT Coulomb Fitting       on all atoms 



                                 NWChem DFT Module
                                 -----------------


                      Basis "ao basis" -> "ao basis" (spherical)
                      -----
  C (Carbon)
  ----------
            Exponent  Coefficients 
       -------------- ---------------------------------------------------------
  1 S  8.23600000E+03  0.000531
  1 S  1.23500000E+03  0.004108
  1 S  2.80800000E+02  0.021087
  1 S  7.92700000E+01  0.081853
  1 S  2.55900000E+01  0.234817
  1 S  8.99700000E+00  0.434401
  1 S  3.31900000E+00  0.346129
  1 S  3.64300000E-01 -0.008983

  2 S  8.23600000E+03 -0.000113
  2 S  1.23500000E+03 -0.000878
  2 S  2.80800000E+02 -0.004540
  2 S  7.92700000E+01 -0.018133
  2 S  2.55900000E+01 -0.055760
  2 S  8.99700000E+00 -0.126895
  2 S  3.31900000E+00 -0.170352
  2 S  3.64300000E-01  0.598684

  3 S  9.05900000E-01  1.000000

  4 S  1.28500000E-01  1.000000

  5 P  1.87100000E+01  0.014031
  5 P  4.13300000E+00  0.086866
  5 P  1.20000000E+00  0.290216

  6 P  3.82700000E-01  1.000000

  7 P  1.20900000E-01  1.000000

  8 D  1.09700000E+00  1.000000

  9 D  3.18000000E-01  1.000000

 10 F  7.61000000E-01  1.000000

  O (Oxygen)
  ----------
            Exponent  Coefficients 
       -------------- ---------------------------------------------------------
  1 S  1.53300000E+04  0.000508
  1 S  2.29900000E+03  0.003929
  1 S  5.22400000E+02  0.020243
  1 S  1.47300000E+02  0.079181
  1 S  4.75500000E+01  0.230687
  1 S  1.67600000E+01  0.433118
  1 S  6.20700000E+00  0.350260
  1 S  6.88200000E-01 -0.008154

  2 S  1.53300000E+04 -0.000115
  2 S  2.29900000E+03 -0.000895
  2 S  5.22400000E+02 -0.004636
  2 S  1.47300000E+02 -0.018724
  2 S  4.75500000E+01 -0.058463
  2 S  1.67600000E+01 -0.136463
  2 S  6.20700000E+00 -0.175740
  2 S  6.88200000E-01  0.603418

  3 S  1.75200000E+00  1.000000

  4 S  2.38400000E-01  1.000000

  5 P  3.44600000E+01  0.015928
  5 P  7.74900000E+00  0.099740
  5 P  2.28000000E+00  0.310492

  6 P  7.15600000E-01  1.000000

  7 P  2.14000000E-01  1.000000

  8 D  2.31400000E+00  1.000000

  9 D  6.45000000E-01  1.000000

 10 F  1.42800000E+00  1.000000

  H (Hydrogen)
  ------------
            Exponent  Coefficients 
       -------------- ---------------------------------------------------------
  1 S  3.38700000E+01  0.006068
  1 S  5.09500000E+00  0.045308
  1 S  1.15900000E+00  0.202822

  2 S  3.25800000E-01  1.000000

  3 S  1.02700000E-01  1.000000

  4 P  1.40700000E+00  1.000000

  5 P  3.88000000E-01  1.000000

  6 D  1.05700000E+00  1.000000



 Summary of "ao basis" -> "ao basis" (spherical)
 ------------------------------------------------------------------------------
       Tag                 Description            Shells   Functions and Types
 ---------------- ------------------------------  ------  ---------------------
 C                          cc-pVTZ                 10       30   4s3p2d1f
 O                          cc-pVTZ                 10       30   4s3p2d1f
 H                          cc-pVTZ                  6       14   3s2p1d


                      Basis "cd basis" -> "cd basis" (cartesian)
                      -----
  C (Carbon)
  ----------
            Exponent  Coefficients 
       -------------- ---------------------------------------------------------
  1 S  1.50000000E+03  1.000000

  2 S  3.30000000E+02  1.000000

  3 S  9.43200000E+01  1.000000

  4 S  2.70000000E+01  1.000000

  5 S  9.92000000E+00  1.000000

  6 P  9.92000000E+00  1.000000

  7 S  2.20000000E+00  1.000000

  8 P  2.20000000E+00  1.000000

  9 S  6.30000000E-01  1.000000

 10 P  6.30000000E-01  1.000000

 11 S  1.80000000E-01  1.000000

 12 P  1.80000000E-01  1.000000

 13 D  9.92000000E+00  1.000000

 14 D  2.20000000E+00  1.000000

 15 D  6.30000000E-01  1.000000

 16 D  1.80000000E-01  1.000000

  O (Oxygen)
  ----------
            Exponent  Coefficients 
       -------------- ---------------------------------------------------------
  1 S  2.56600000E+03  1.000000

  2 S  5.70000000E+02  1.000000

  3 S  1.63000000E+02  1.000000

  4 S  4.65000000E+01  1.000000

  5 S  1.70000000E+01  1.000000

  6 P  1.70000000E+01  1.000000

  7 S  3.80000000E+00  1.000000

  8 P  3.80000000E+00  1.000000

  9 S  1.08000000E+00  1.000000

 10 P  1.08000000E+00  1.000000

 11 S  3.10000000E-01  1.000000

 12 P  3.10000000E-01  1.000000

 13 D  1.70000000E+01  1.000000

 14 D  3.80000000E+00  1.000000

 15 D  1.08000000E+00  1.000000

 16 D  3.10000000E-01  1.000000

  H (Hydrogen)
  ------------
            Exponent  Coefficients 
       -------------- ---------------------------------------------------------
  1 S  4.50000000E+01  1.000000

  2 S  7.50000000E+00  1.000000

  3 S  3.00000000E-01  1.000000

  4 S  1.50000000E+00  1.000000

  5 P  1.50000000E+00  1.000000

  6 D  1.50000000E+00  1.000000



 Summary of "cd basis" -> "cd basis" (cartesian)
 ------------------------------------------------------------------------------
       Tag                 Description            Shells   Functions and Types
 ---------------- ------------------------------  ------  ---------------------
 C                DGauss A2 DFT Coulomb Fitting     16       44   8s4p4d
 O                DGauss A2 DFT Coulomb Fitting     16       44   8s4p4d
 H                DGauss A2 DFT Coulomb Fitting      6       13   4s1p1d


  int_init: cando_txs set to always be  F


 Summary of "ao basis" -> "ao basis" (spherical)
 ------------------------------------------------------------------------------
       Tag                 Description            Shells   Functions and Types
 ---------------- ------------------------------  ------  ---------------------
 C                          cc-pVTZ                 10       30   4s3p2d1f
 O                          cc-pVTZ                 10       30   4s3p2d1f
 H                          cc-pVTZ                  6       14   3s2p1d


      Symmetry analysis of basis
      --------------------------

        a'        120
        a"         56

  int_init: cando_txs set to always be  F
  Caching 1-el integrals 

            General Information
            -------------------
          SCF calculation type: DFT
          Wavefunction type:  closed shell.
          No. of atoms     :     8
          No. of electrons :    30
           Alpha electrons :    15
            Beta electrons :    15
          Charge           :     0
          Spin multiplicity:     1
          Use of symmetry is: off; symmetry adaption is: on 
          Maximum number of iterations:  30
          AO basis - number of functions:   176
                     number of shells:    64
          A Charge density fitting basis will be used.
          CD basis - number of functions:   228
                     number of shells:    88
          Convergence on energy requested:  1.00D-06
          Convergence on density requested:  1.00D-05
          Convergence on gradient requested:  5.00D-04

              XC Information
              --------------
                     Hartree-Fock (Exact) Exchange  1.000          
                   CAM-Becke88 Exchange Functional  1.000          
                      VWN V Correlation Functional  0.190 local    
              Lee-Yang-Parr Correlation Functional  0.810          

           Range-Separation Parameters        
           ---------------------------
           Alpha           :  0.19
           Beta            :  0.81
           Gamma           :  0.33
           Short-Range HF  :     F

             Grid Information
             ----------------
          Grid used for XC integration:  medium    
          Radial quadrature: Mura-Knowles        
          Angular quadrature: Lebedev. 
          Tag              B.-S. Rad. Rad. Pts. Rad. Cut. Ang. Pts.
          ---              ---------- --------- --------- ---------
          C                   0.70       49          10.0       434
          O                   0.60       49          12.0       434
          H                   0.35       45          11.0       434
          Grid pruning is: on 
          Number of quadrature shells:   376
          Spatial weights used:  Erf1

          Convergence Information
          -----------------------
          Convergence aids based upon iterative change in 
          total energy or number of iterations. 
          Levelshifting, if invoked, occurs when the 
          HOMO/LUMO gap drops below (HL_TOL):  1.00D-02
          DIIS, if invoked, will attempt to extrapolate 
          using up to (NFOCK): 10 stored Fock matrices.

                    Damping( 0%)  Levelshifting(0.5)       DIIS
                  --------------- ------------------- ---------------
          dE  on:    start            ASAP                start   
          dE off:    2 iters         30 iters            30 iters 


      Screening Tolerance Information
      -------------------------------
          Density screening/tol_rho:  1.00D-10
          AO Gaussian exp screening on grid/accAOfunc:  14
          CD Gaussian exp screening on grid/accCDfunc:  20
          XC Gaussian exp screening on grid/accXCfunc:  20
          Schwarz screening/accCoul:  1.00D-08


      Superposition of Atomic Density Guess
      -------------------------------------

 Sum of atomic energies:        -189.79139657

      Non-variational initial energy
      ------------------------------

 Total energy =    -191.883326
 1-e energy   =    -460.506602
 2-e energy   =     165.377275
 HOMO         =      -0.333757
 LUMO         =      -0.082552


      Symmetry analysis of molecular orbitals - initial
      -------------------------------------------------

  Numbering of irreducible representations: 

     1 a'          2 a"      

  Orbital symmetries:

     1 a'          2 a'          3 a'          4 a'          5 a'      
     6 a'          7 a'          8 a'          9 a'         10 a'      
    11 a"         12 a'         13 a'         14 a"         15 a'      
    16 a"         17 a"         18 a'         19 a'         20 a'      
    21 a'         22 a'         23 a'         24 a'         25 a"      

   Time after variat. SCF:      1.1

      3 Center 2 Electron Integral Information
      ----------------------------------------
          Maximum number of 3-center 2e- integrals is:         7062528.
            This is reduced with Schwarz screening to:         4953300.
            Incore requires a per proc buffer size of:         1053133.
          Minimum dble words available (all nodes) is:       172491524
                   This is reduced (for later use) to:       172132554
                      proc 0 Suggested buffer size is:         1053133
                         Max Suggested buffer size is:         1053133
                              no. integral batches is:            1000

           1.053 MW buffer allocated for incore 3-center 
          2e- integral storage on stack. 
   Time prior to 1st pass:      1.3

 Grid_pts file          = ./acr-camb3lyp-cdfit.gridpts.0
 Record size in doubles =  12289        No. of grid_pts per rec  =   3070
 Max. records in memory =     16        Max. recs in file   = 253312716


           Memory utilization after 1st SCF pass: 
           Heap Space remaining (MW):       51.86            51857416
          Stack Space remaining (MW):       85.19            85191868

   convergence    iter        energy       DeltaE   RMS-Dens  Diis-err    time
 ---------------- ----- ----------------- --------- --------- ---------  ------
 d= 0,ls=0.0,diis     1   -191.6369508420 -2.95D+02  7.73D-03  1.07D+00    13.7
 d= 0,ls=0.0,diis     2   -191.6275148998  9.44D-03  4.39D-03  1.43D+00    26.5
 d= 0,ls=0.0,diis     3   -191.7472554979 -1.20D-01  5.59D-04  2.96D-02    39.2
 d= 0,ls=0.0,diis     4   -191.7501323349 -2.88D-03  2.35D-04  1.46D-03    51.8
 d= 0,ls=0.0,diis     5   -191.7503465379 -2.14D-04  1.05D-04  1.57D-04    64.5
  Resetting Diis
 d= 0,ls=0.0,diis     6   -191.7503848399 -3.83D-05  4.17D-05  2.72D-05    77.2
 d= 0,ls=0.0,diis     7   -191.7503901265 -5.29D-06  2.68D-05  5.48D-06    89.9
 d= 0,ls=0.0,diis     8   -191.7503906007 -4.74D-07  5.50D-06  4.16D-06   102.5


         Total DFT energy =     -191.750390600694
      One electron energy =     -463.670552252909
           Coulomb energy =      194.730715348544
    Exchange-Corr. energy =      -26.056554222076
 Nuclear repulsion energy =      103.246000525747

 Numeric. integr. density =       30.000002871964

     Total iterative time =    101.2s



                  Occupations of the irreducible representations
                  ----------------------------------------------

                     irrep           alpha         beta
                     --------     --------     --------
                     a'               13.0         13.0
                     a"                2.0          2.0


                       DFT Final Molecular Orbital Analysis
                       ------------------------------------

 Vector    1  Occ=2.000000D+00  E=-1.926032D+01  Symmetry=a'
              MO Center= -1.2D-01, -1.8D+00, -6.3D-14, r^2= 1.5D-02
   Bfn.  Coefficient  Atom+Function         Bfn.  Coefficient  Atom+Function  
  ----- ------------  ---------------      ----- ------------  ---------------
    91      0.970818  4 O  s                 93      0.051399  4 O  s          

 Vector    2  Occ=2.000000D+00  E=-1.040098D+01  Symmetry=a'
              MO Center=  3.5D-01, -6.7D-01, -3.7D-13, r^2= 2.8D-02
   Bfn.  Coefficient  Atom+Function         Bfn.  Coefficient  Atom+Function  
  ----- ------------  ---------------      ----- ------------  ---------------
    61      0.978933  3 C  s                 63      0.051113  3 C  s          

 Vector    3  Occ=2.000000D+00  E=-1.033889D+01  Symmetry=a'
              MO Center=  1.3D-01,  1.8D+00, -1.6D-13, r^2= 3.3D-02
   Bfn.  Coefficient  Atom+Function         Bfn.  Coefficient  Atom+Function  
  ----- ------------  ---------------      ----- ------------  ---------------
     1      0.979221  1 C  s                  3      0.052296  1 C  s          
    31      0.051313  2 C  s          

 Vector    4  Occ=2.000000D+00  E=-1.033013D+01  Symmetry=a'
              MO Center= -4.5D-01,  5.6D-01, -5.0D-14, r^2= 3.3D-02
   Bfn.  Coefficient  Atom+Function         Bfn.  Coefficient  Atom+Function  
  ----- ------------  ---------------      ----- ------------  ---------------
    31      0.977728  2 C  s                  1     -0.054126  1 C  s          
    33      0.052137  2 C  s          

 Vector    5  Occ=2.000000D+00  E=-1.198252D+00  Symmetry=a'
              MO Center=  1.8D-02, -1.4D+00, -3.9D-11, r^2= 5.4D-01
   Bfn.  Coefficient  Atom+Function         Bfn.  Coefficient  Atom+Function  
  ----- ------------  ---------------      ----- ------------  ---------------
    92      0.436756  4 O  s                 62      0.246998  3 C  s          
    94      0.214845  4 O  s                 93      0.125874  4 O  s          
    99      0.098618  4 O  py                66     -0.096226  3 C  py         
    64      0.087521  3 C  s                 96      0.086515  4 O  py         
    69     -0.070521  3 C  py                63      0.061815  3 C  s          

 Vector    6  Occ=2.000000D+00  E=-9.584499D-01  Symmetry=a'
              MO Center= -8.6D-02,  8.9D-01, -1.3D-11, r^2= 1.4D+00
   Bfn.  Coefficient  Atom+Function         Bfn.  Coefficient  Atom+Function  
  ----- ------------  ---------------      ----- ------------  ---------------
    32      0.339995  2 C  s                  2      0.302629  1 C  s          
    34      0.129924  2 C  s                  4      0.122484  1 C  s          
    62      0.112345  3 C  s                 92     -0.096595  4 O  s          
    33      0.079827  2 C  s                 66      0.077950  3 C  py         
     3      0.073026  1 C  s                 69      0.073309  3 C  py         

 Vector    7  Occ=2.000000D+00  E=-7.914508D-01  Symmetry=a'
              MO Center=  1.2D-01,  6.3D-01, -9.6D-12, r^2= 2.6D+00
   Bfn.  Coefficient  Atom+Function         Bfn.  Coefficient  Atom+Function  
  ----- ------------  ---------------      ----- ------------  ---------------
     2      0.293819  1 C  s                 62     -0.259405  3 C  s          
     4      0.186581  1 C  s                 92      0.162904  4 O  s          
    32     -0.127653  2 C  s                 94      0.126780  4 O  s          
    36      0.124967  2 C  py                39      0.121302  2 C  py         
    69     -0.105531  3 C  py                64     -0.104302  3 C  s          

 Vector    8  Occ=2.000000D+00  E=-7.141669D-01  Symmetry=a'
              MO Center=  1.1D-01,  1.7D-01, -3.7D-11, r^2= 2.6D+00
   Bfn.  Coefficient  Atom+Function         Bfn.  Coefficient  Atom+Function  
  ----- ------------  ---------------      ----- ------------  ---------------
    32      0.209138  2 C  s                 62     -0.190388  3 C  s          
    34      0.161175  2 C  s                164     -0.145141  8 H  s          
   150      0.135283  7 H  s                 68     -0.134235  3 C  px         
    65     -0.129074  3 C  px                64     -0.119817  3 C  s          
   163     -0.108567  8 H  s                 35     -0.106285  2 C  px         

 Vector    9  Occ=2.000000D+00  E=-6.126247D-01  Symmetry=a'
              MO Center=  2.8D-01,  2.8D-01, -2.9D-12, r^2= 2.8D+00
   Bfn.  Coefficient  Atom+Function         Bfn.  Coefficient  Atom+Function  
  ----- ------------  ---------------      ----- ------------  ---------------
    68      0.191691  3 C  px                65      0.172063  3 C  px         
    39      0.163573  2 C  py               136     -0.159628  6 H  s          
     8     -0.157459  1 C  px                 5     -0.156673  1 C  px         
    36      0.150831  2 C  py                98      0.142074  4 O  px         
    95      0.121078  4 O  px               164      0.118380  8 H  s          

 Vector   10  Occ=2.000000D+00  E=-6.088978D-01  Symmetry=a'
              MO Center= -2.0D-01,  3.3D-01,  9.3D-11, r^2= 4.1D+00
   Bfn.  Coefficient  Atom+Function         Bfn.  Coefficient  Atom+Function  
  ----- ------------  ---------------      ----- ------------  ---------------
    99      0.192179  4 O  py                 9      0.190386  1 C  py         
     6      0.184403  1 C  py               122      0.173640  5 H  s          
    92     -0.171615  4 O  s                 96      0.167857  4 O  py         
    94     -0.139868  4 O  s                 38     -0.136623  2 C  px         
   102      0.136680  4 O  py                62      0.130094  3 C  s          

 Vector   11  Occ=2.000000D+00  E=-5.508957D-01  Symmetry=a'
              MO Center= -6.6D-02, -5.1D-01, -7.6D-25, r^2= 3.4D+00
   Bfn.  Coefficient  Atom+Function         Bfn.  Coefficient  Atom+Function  
  ----- ------------  ---------------      ----- ------------  ---------------
    99      0.265349  4 O  py                96      0.229543  4 O  py         
   102      0.194362  4 O  py                 6     -0.154633  1 C  py         
     9     -0.155009  1 C  py                66     -0.153872  3 C  py         
    39      0.132041  2 C  py                92     -0.127671  4 O  s          
    69     -0.126328  3 C  py               164     -0.119465  8 H  s          

 Vector   12  Occ=2.000000D+00  E=-5.314691D-01  Symmetry=a"
              MO Center=  2.7D-02, -1.0D+00, -1.1D-12, r^2= 1.6D+00
   Bfn.  Coefficient  Atom+Function         Bfn.  Coefficient  Atom+Function  
  ----- ------------  ---------------      ----- ------------  ---------------
   100      0.298221  4 O  pz                97      0.252121  4 O  pz         
    70      0.244727  3 C  pz                67      0.200542  3 C  pz         
   103      0.200358  4 O  pz                73      0.137935  3 C  pz         
    40      0.119371  2 C  pz                37      0.095537  2 C  pz         
    10      0.073355  1 C  pz                 7      0.059730  1 C  pz         

 Vector   13  Occ=2.000000D+00  E=-5.157047D-01  Symmetry=a'
              MO Center= -1.6D-01,  1.0D+00,  3.6D-12, r^2= 2.8D+00
   Bfn.  Coefficient  Atom+Function         Bfn.  Coefficient  Atom+Function  
  ----- ------------  ---------------      ----- ------------  ---------------
     8      0.196196  1 C  px                 5      0.184124  1 C  px         
   136      0.184834  6 H  s                 38     -0.181253  2 C  px         
   150      0.173871  7 H  s                 35     -0.162840  2 C  px         
   122     -0.141974  5 H  s                149      0.129616  7 H  s          
   135      0.127224  6 H  s                 11      0.123586  1 C  px         

 Vector   14  Occ=2.000000D+00  E=-4.079499D-01  Symmetry=a"
              MO Center= -1.3D-01,  6.8D-01,  1.3D-10, r^2= 2.5D+00
   Bfn.  Coefficient  Atom+Function         Bfn.  Coefficient  Atom+Function  
  ----- ------------  ---------------      ----- ------------  ---------------
    10      0.255853  1 C  pz                40      0.254063  2 C  pz         
     7      0.209888  1 C  pz                37      0.204194  2 C  pz         
    13      0.199455  1 C  pz                43      0.183350  2 C  pz         
   100     -0.178991  4 O  pz                97     -0.153352  4 O  pz         
   103     -0.143537  4 O  pz                73     -0.042626  3 C  pz         

 Vector   15  Occ=2.000000D+00  E=-3.835419D-01  Symmetry=a'
              MO Center=  8.9D-02, -1.2D+00, -2.0D-10, r^2= 1.8D+00
   Bfn.  Coefficient  Atom+Function         Bfn.  Coefficient  Atom+Function  
  ----- ------------  ---------------      ----- ------------  ---------------
    34      0.420070  2 C  s                 98      0.352930  4 O  px         
   101      0.306738  4 O  px                95      0.301884  4 O  px         
   164     -0.193980  8 H  s                  4     -0.172238  1 C  s          
   165     -0.163038  8 H  s                 99     -0.146983  4 O  py         
    39     -0.140768  2 C  py                41      0.134231  2 C  px         

 Vector   16  Occ=0.000000D+00  E= 1.529408D-02  Symmetry=a"
              MO Center=  6.7D-02,  2.8D-01, -3.8D-11, r^2= 3.3D+00
   Bfn.  Coefficient  Atom+Function         Bfn.  Coefficient  Atom+Function  
  ----- ------------  ---------------      ----- ------------  ---------------
    13      0.462205  1 C  pz                43     -0.308898  2 C  pz         
   103      0.292453  4 O  pz                73     -0.257977  3 C  pz         
    10      0.241260  1 C  pz                70     -0.231702  3 C  pz         
   100      0.212624  4 O  pz                 7      0.203289  1 C  pz         
    97      0.188359  4 O  pz                67     -0.172032  3 C  pz         

 Vector   17  Occ=0.000000D+00  E= 1.153575D-01  Symmetry=a'
              MO Center=  8.5D-01,  1.9D+00,  1.3D-10, r^2= 6.1D+00
   Bfn.  Coefficient  Atom+Function         Bfn.  Coefficient  Atom+Function  
  ----- ------------  ---------------      ----- ------------  ---------------
     4      3.353283  1 C  s                137     -1.576193  6 H  s          
   123     -1.295991  5 H  s                 64      1.197624  3 C  s          
   165     -1.051433  8 H  s                 41     -0.887119  2 C  px         
    34     -0.706355  2 C  s                 71      0.635409  3 C  px         
   151     -0.585569  7 H  s                 42     -0.488027  2 C  py         

 Vector   18  Occ=0.000000D+00  E= 1.260859D-01  Symmetry=a'
              MO Center= -4.5D-01,  1.0D+00, -2.3D-12, r^2= 7.8D+00
   Bfn.  Coefficient  Atom+Function         Bfn.  Coefficient  Atom+Function  
  ----- ------------  ---------------      ----- ------------  ---------------
   151     -1.634092  7 H  s                 34      1.547344  2 C  s          
   123     -1.417006  5 H  s                 64     -1.327445  3 C  s          
   165      1.181495  8 H  s                137      0.924515  6 H  s          
    11     -0.764782  1 C  px                12      0.539236  1 C  py         
     4      0.512994  1 C  s                 42     -0.460884  2 C  py         

 Vector   19  Occ=0.000000D+00  E= 1.345050D-01  Symmetry=a"
              MO Center=  8.7D-02,  1.1D-01, -1.0D-09, r^2= 3.3D+00
   Bfn.  Coefficient  Atom+Function         Bfn.  Coefficient  Atom+Function  
  ----- ------------  ---------------      ----- ------------  ---------------
    43      0.839520  2 C  pz                73     -0.722674  3 C  pz         
    13     -0.616666  1 C  pz               103      0.358891  4 O  pz         
    70     -0.252479  3 C  pz                40      0.242860  2 C  pz         
    37      0.206499  2 C  pz                67     -0.206907  3 C  pz         
    97      0.149006  4 O  pz               100      0.148097  4 O  pz         

 Vector   20  Occ=0.000000D+00  E= 1.653941D-01  Symmetry=a'
              MO Center= -1.0D-01,  3.2D-01, -4.1D-11, r^2= 8.8D+00
   Bfn.  Coefficient  Atom+Function         Bfn.  Coefficient  Atom+Function  
  ----- ------------  ---------------      ----- ------------  ---------------
   151      2.196187  7 H  s                 64     -1.911157  3 C  s          
   165      1.916834  8 H  s                 41      1.796576  2 C  px         
   123     -1.226618  5 H  s                  4      1.008123  1 C  s          
    71     -0.982214  3 C  px                34     -0.927279  2 C  s          
    72     -0.732000  3 C  py                11     -0.560016  1 C  px         

 Vector   21  Occ=0.000000D+00  E= 1.866809D-01  Symmetry=a'
              MO Center=  4.7D-01,  1.6D+00,  5.3D-11, r^2= 8.0D+00
   Bfn.  Coefficient  Atom+Function         Bfn.  Coefficient  Atom+Function  
  ----- ------------  ---------------      ----- ------------  ---------------
   137      2.463281  6 H  s                123     -2.234616  5 H  s          
    11     -1.929862  1 C  px               151      1.597532  7 H  s          
   165     -1.287568  8 H  s                 41      1.249269  2 C  px         
    34     -1.074026  2 C  s                 12      0.993739  1 C  py         
    64      0.771948  3 C  s                  4     -0.373871  1 C  s          

 Vector   22  Occ=0.000000D+00  E= 2.447821D-01  Symmetry=a'
              MO Center=  5.8D-01,  4.2D-01, -6.3D-11, r^2= 7.1D+00
   Bfn.  Coefficient  Atom+Function         Bfn.  Coefficient  Atom+Function  
  ----- ------------  ---------------      ----- ------------  ---------------
    34      6.098781  2 C  s                  4     -3.543074  1 C  s          
    72     -2.658472  3 C  py                41      2.636877  2 C  px         
    12      2.319530  1 C  py                64     -1.665580  3 C  s          
    94     -1.596811  4 O  s                151      0.974818  7 H  s          
   137      0.495276  6 H  s                 69     -0.489372  3 C  py         

 Vector   23  Occ=0.000000D+00  E= 2.961092D-01  Symmetry=a'
              MO Center= -1.1D-01,  6.6D-01, -9.3D-11, r^2= 6.4D+00
   Bfn.  Coefficient  Atom+Function         Bfn.  Coefficient  Atom+Function  
  ----- ------------  ---------------      ----- ------------  ---------------
    34      4.642650  2 C  s                 64     -4.551442  3 C  s          
    12      2.758701  1 C  py                 4     -2.181757  1 C  s          
    41      2.136292  2 C  px                94      1.941967  4 O  s          
   151      1.223653  7 H  s                123     -1.154455  5 H  s          
    71      0.889608  3 C  px               102      0.798492  4 O  py         

 Vector   24  Occ=0.000000D+00  E= 3.380382D-01  Symmetry=a'
              MO Center= -3.7D-01,  7.5D-01, -4.3D-10, r^2= 5.3D+00
   Bfn.  Coefficient  Atom+Function         Bfn.  Coefficient  Atom+Function  
  ----- ------------  ---------------      ----- ------------  ---------------
     4      5.417181  1 C  s                 42     -5.055821  2 C  py         
    34     -3.872407  2 C  s                 12     -3.120147  1 C  py         
    11     -1.780009  1 C  px               137      1.469519  6 H  s          
   165     -1.475409  8 H  s                 71      1.341863  3 C  px         
    64     -1.299909  3 C  s                 41     -1.032142  2 C  px         

 Vector   25  Occ=0.000000D+00  E= 3.523717D-01  Symmetry=a"
              MO Center=  6.9D-02,  5.0D-01,  1.4D-09, r^2= 4.2D+00
   Bfn.  Coefficient  Atom+Function         Bfn.  Coefficient  Atom+Function  
  ----- ------------  ---------------      ----- ------------  ---------------
    73      0.670827  3 C  pz                13      0.596189  1 C  pz         
    70     -0.496254  3 C  pz                10     -0.460041  1 C  pz         
    43      0.363887  2 C  pz                40     -0.352758  2 C  pz         
    67     -0.164744  3 C  pz                 7     -0.152885  1 C  pz         
    52      0.094837  2 C  d  1              37     -0.083912  2 C  pz         

 Vector   26  Occ=0.000000D+00  E= 3.817515D-01  Symmetry=a'
              MO Center=  3.8D-01,  8.9D-01, -5.8D-10, r^2= 3.6D+00
   Bfn.  Coefficient  Atom+Function         Bfn.  Coefficient  Atom+Function  
  ----- ------------  ---------------      ----- ------------  ---------------
    64      2.705341  3 C  s                 42      1.928503  2 C  py         
   136     -1.729260  6 H  s                 11      1.479727  1 C  px         
    72      1.403579  3 C  py                71     -1.318789  3 C  px         
   137     -1.155643  6 H  s                150     -0.810951  7 H  s          
     4      0.762693  1 C  s                 12      0.657817  1 C  py         

 Vector   27  Occ=0.000000D+00  E= 4.131099D-01  Symmetry=a"
              MO Center=  2.3D-01,  2.9D-01,  5.8D-09, r^2= 5.2D+00
   Bfn.  Coefficient  Atom+Function         Bfn.  Coefficient  Atom+Function  
  ----- ------------  ---------------      ----- ------------  ---------------
    73      1.349147  3 C  pz                13     -0.733372  1 C  pz         
    70     -0.579576  3 C  pz                43     -0.547729  2 C  pz         
    10      0.415209  1 C  pz                50      0.207695  2 C  d -1       
    67     -0.184018  3 C  pz                40      0.165721  2 C  pz         
     7      0.137474  1 C  pz                80      0.101004  3 C  d -1       

 Vector   28  Occ=0.000000D+00  E= 4.158066D-01  Symmetry=a'
              MO Center= -1.2D-01,  4.7D-01, -5.2D-09, r^2= 4.5D+00
   Bfn.  Coefficient  Atom+Function         Bfn.  Coefficient  Atom+Function  
  ----- ------------  ---------------      ----- ------------  ---------------
    64      4.004441  3 C  s                  4     -3.321295  1 C  s          
    42      2.911078  2 C  py                11      1.975627  1 C  px         
    94     -1.588398  4 O  s                 71     -1.453432  3 C  px         
   122      1.356856  5 H  s                137     -1.006225  6 H  s          
   150      0.944721  7 H  s                164     -0.911034  8 H  s          

 Vector   29  Occ=0.000000D+00  E= 4.490721D-01  Symmetry=a'
              MO Center=  2.2D-01,  1.9D-01, -9.0D-10, r^2= 5.6D+00
   Bfn.  Coefficient  Atom+Function         Bfn.  Coefficient  Atom+Function  
  ----- ------------  ---------------      ----- ------------  ---------------
    34      3.374318  2 C  s                 71      2.801221  3 C  px         
    11     -2.420517  1 C  px                64     -2.379251  3 C  s          
    72     -1.913803  3 C  py               137      1.904053  6 H  s          
    42     -1.742942  2 C  py               165     -1.475923  8 H  s          
   123     -1.359608  5 H  s                 41      1.317213  2 C  px         

 Vector   30  Occ=0.000000D+00  E= 4.639842D-01  Symmetry=a"
              MO Center= -3.1D-01,  9.3D-01,  8.3D-10, r^2= 4.0D+00
   Bfn.  Coefficient  Atom+Function         Bfn.  Coefficient  Atom+Function  
  ----- ------------  ---------------      ----- ------------  ---------------
    43      1.916852  2 C  pz                13     -1.404735  1 C  pz         
    40     -0.614391  2 C  pz                73     -0.617301  3 C  pz         
    10      0.445895  1 C  pz                20      0.259029  1 C  d -1       
    37     -0.235470  2 C  pz                 7      0.182705  1 C  pz         
    80     -0.166344  3 C  d -1              70      0.156423  3 C  pz         

 Vector   31  Occ=0.000000D+00  E= 4.843703D-01  Symmetry=a'
              MO Center=  2.1D-01,  4.3D-01, -1.2D-10, r^2= 5.0D+00
   Bfn.  Coefficient  Atom+Function         Bfn.  Coefficient  Atom+Function  
  ----- ------------  ---------------      ----- ------------  ---------------
     4      4.831201  1 C  s                 71      2.978101  3 C  px         
    42     -2.826478  2 C  py               165     -2.183062  8 H  s          
    34     -2.033093  2 C  s                 12     -1.751419  1 C  py         
   150      1.511585  7 H  s                136     -1.310008  6 H  s          
    72     -1.080652  3 C  py               164     -0.931893  8 H  s          

 Vector   32  Occ=0.000000D+00  E= 5.057448D-01  Symmetry=a'
              MO Center=  3.2D-01,  6.0D-01,  2.4D-10, r^2= 5.9D+00
   Bfn.  Coefficient  Atom+Function         Bfn.  Coefficient  Atom+Function  
  ----- ------------  ---------------      ----- ------------  ---------------
    71      2.226700  3 C  px               165     -2.174624  8 H  s          
   151      2.015896  7 H  s                 11      1.532450  1 C  px         
    64      1.516592  3 C  s                137     -1.486294  6 H  s          
    41      1.402241  2 C  px               164     -1.217887  8 H  s          
   122      0.884779  5 H  s                169      0.725702  8 H  px         

 Vector   33  Occ=0.000000D+00  E= 5.421239D-01  Symmetry=a'
              MO Center= -7.2D-02,  1.0D+00,  3.4D-11, r^2= 6.7D+00
   Bfn.  Coefficient  Atom+Function         Bfn.  Coefficient  Atom+Function  
  ----- ------------  ---------------      ----- ------------  ---------------
    64      5.620064  3 C  s                  4      3.502465  1 C  s          
    41     -2.941300  2 C  px               123     -2.122522  5 H  s          
   151     -1.936649  7 H  s                 42      1.615750  2 C  py         
    12      1.557267  1 C  py                94     -1.456293  4 O  s          
   122     -1.305090  5 H  s                 72      1.145587  3 C  py         

 Vector   34  Occ=0.000000D+00  E= 5.509290D-01  Symmetry=a'
              MO Center= -1.7D-01, -2.8D-01,  8.0D-10, r^2= 6.3D+00
   Bfn.  Coefficient  Atom+Function         Bfn.  Coefficient  Atom+Function  
  ----- ------------  ---------------      ----- ------------  ---------------
    64      5.851445  3 C  s                  4     -4.620771  1 C  s          
    34     -4.499013  2 C  s                 42      4.208716  2 C  py         
    71     -2.759839  3 C  px                94     -2.499118  4 O  s          
   150      1.996088  7 H  s                 41      1.941666  2 C  px         
   151      1.811083  7 H  s                137      1.221455  6 H  s          

 Vector   35  Occ=0.000000D+00  E= 5.546729D-01  Symmetry=a'
              MO Center=  3.7D-01,  2.9D-01, -1.2D-09, r^2= 5.9D+00
   Bfn.  Coefficient  Atom+Function         Bfn.  Coefficient  Atom+Function  
  ----- ------------  ---------------      ----- ------------  ---------------
     4      6.866368  1 C  s                 64     -3.713144  3 C  s          
    34     -3.366357  2 C  s                165      1.975782  8 H  s          
   137     -1.913531  6 H  s                 71     -1.814807  3 C  px         
    72     -1.721597  3 C  py               122     -1.709702  5 H  s          
   164      1.696273  8 H  s                150      1.408947  7 H  s          

 Vector   36  Occ=0.000000D+00  E= 5.743837D-01  Symmetry=a'
              MO Center= -3.1D-01,  8.6D-01,  8.6D-11, r^2= 6.0D+00
   Bfn.  Coefficient  Atom+Function         Bfn.  Coefficient  Atom+Function  
  ----- ------------  ---------------      ----- ------------  ---------------
    34      4.872289  2 C  s                  4     -3.365616  1 C  s          
   123      2.730438  5 H  s                 41     -2.314410  2 C  px         
    12     -2.205150  1 C  py                11      2.180849  1 C  px         
   151     -2.180088  7 H  s                150     -2.024015  7 H  s          
    72     -1.434092  3 C  py               122      1.425149  5 H  s          

 Vector   37  Occ=0.000000D+00  E= 6.228918D-01  Symmetry=a'
              MO Center=  9.2D-02,  3.3D-01,  2.9D-10, r^2= 5.1D+00
   Bfn.  Coefficient  Atom+Function         Bfn.  Coefficient  Atom+Function  
  ----- ------------  ---------------      ----- ------------  ---------------
    64      8.277200  3 C  s                 34     -5.828171  2 C  s          
    41     -4.432421  2 C  px                42      4.435043  2 C  py         
    11      3.899794  1 C  px                72      2.810086  3 C  py         
   137     -2.510545  6 H  s                 71     -1.926935  3 C  px         
   151     -1.695878  7 H  s                123      1.444739  5 H  s          

 Vector   38  Occ=0.000000D+00  E= 6.247070D-01  Symmetry=a"
              MO Center=  1.2D-01,  1.4D+00, -1.3D-09, r^2= 3.1D+00
   Bfn.  Coefficient  Atom+Function         Bfn.  Coefficient  Atom+Function  
  ----- ------------  ---------------      ----- ------------  ---------------
    43      0.734589  2 C  pz                73     -0.484338  3 C  pz         
    22     -0.388186  1 C  d  1             129     -0.353467  5 H  pz         
    52     -0.309672  2 C  d  1             143      0.305881  6 H  pz         
    13     -0.260690  1 C  pz                40     -0.224002  2 C  pz         
    20     -0.180205  1 C  d -1             100      0.144167  4 O  pz         

 Vector   39  Occ=0.000000D+00  E= 6.542255D-01  Symmetry=a'
              MO Center= -7.3D-02, -3.6D-01,  1.0D-09, r^2= 5.5D+00
   Bfn.  Coefficient  Atom+Function         Bfn.  Coefficient  Atom+Function  
  ----- ------------  ---------------      ----- ------------  ---------------
    34     11.552137  2 C  s                  4     -6.742428  1 C  s          
    64     -6.237812  3 C  s                 11      2.497329  1 C  px         
    41      2.031038  2 C  px               150     -1.815767  7 H  s          
    42      1.728267  2 C  py                72     -1.708725  3 C  py         
   164      1.707046  8 H  s                 12      1.647371  1 C  py         

 Vector   40  Occ=0.000000D+00  E= 6.872103D-01  Symmetry=a"
              MO Center=  2.1D-01, -1.9D-01,  1.9D-09, r^2= 3.4D+00
   Bfn.  Coefficient  Atom+Function         Bfn.  Coefficient  Atom+Function  
  ----- ------------  ---------------      ----- ------------  ---------------
    43      0.460703  2 C  pz               103     -0.444040  4 O  pz         
    82     -0.411514  3 C  d  1             171      0.382012  8 H  pz         
   100      0.332287  4 O  pz                73     -0.291337  3 C  pz         
    50      0.270069  2 C  d -1              52     -0.174943  2 C  d  1       
    20     -0.168079  1 C  d -1              80     -0.152862  3 C  d -1       

 Vector   41  Occ=0.000000D+00  E= 7.158917D-01  Symmetry=a'
              MO Center= -9.1D-02,  5.6D-01, -4.4D-10, r^2= 5.1D+00
   Bfn.  Coefficient  Atom+Function         Bfn.  Coefficient  Atom+Function  
  ----- ------------  ---------------      ----- ------------  ---------------
     4     10.829339  1 C  s                 34     -8.947087  2 C  s          
    42     -6.666493  2 C  py                12     -4.283086  1 C  py         
    11     -3.131514  1 C  px                41     -2.634615  2 C  px         
    71      2.644389  3 C  px               165     -1.484397  8 H  s          
    64     -1.093428  3 C  s                137      1.064933  6 H  s          

 Vector   42  Occ=0.000000D+00  E= 7.557044D-01  Symmetry=a"
              MO Center= -1.4D-01,  7.1D-01,  1.2D-09, r^2= 3.5D+00
   Bfn.  Coefficient  Atom+Function         Bfn.  Coefficient  Atom+Function  
  ----- ------------  ---------------      ----- ------------  ---------------
   157      0.618667  7 H  pz               143      0.513683  6 H  pz         
   171      0.332492  8 H  pz                43     -0.320594  2 C  pz         
    80     -0.301926  3 C  d -1             103     -0.295496  4 O  pz         
    52      0.213709  2 C  d  1             129     -0.192621  5 H  pz         
    20      0.175521  1 C  d -1              40      0.135841  2 C  pz         

 Vector   43  Occ=0.000000D+00  E= 7.614449D-01  Symmetry=a'
              MO Center=  9.6D-02,  5.5D-01, -3.9D-09, r^2= 5.7D+00
   Bfn.  Coefficient  Atom+Function         Bfn.  Coefficient  Atom+Function  
  ----- ------------  ---------------      ----- ------------  ---------------
    34      4.594532  2 C  s                 41      3.688649  2 C  px         
    11     -3.644733  1 C  px                12      3.429850  1 C  py         
     4     -2.514379  1 C  s                 42     -2.385826  2 C  py         
   136      2.194426  6 H  s                 64     -2.171576  3 C  s          
    71      2.069749  3 C  px               122     -1.565124  5 H  s          

 Vector   44  Occ=0.000000D+00  E= 8.039177D-01  Symmetry=a"
              MO Center= -1.0D-01, -1.4D+00,  1.3D-09, r^2= 3.6D+00
   Bfn.  Coefficient  Atom+Function         Bfn.  Coefficient  Atom+Function  
  ----- ------------  ---------------      ----- ------------  ---------------
   103      1.724233  4 O  pz                73     -1.094945  3 C  pz         
   100     -0.556877  4 O  pz                82     -0.465335  3 C  d  1       
    80      0.442843  3 C  d -1              43      0.295101  2 C  pz         
    97     -0.206364  4 O  pz               129     -0.178493  5 H  pz         
    20     -0.170856  1 C  d -1              40     -0.143148  2 C  pz         

 Vector   45  Occ=0.000000D+00  E= 8.049193D-01  Symmetry=a'
              MO Center= -5.4D-02,  6.2D-02,  3.3D-10, r^2= 4.9D+00
   Bfn.  Coefficient  Atom+Function         Bfn.  Coefficient  Atom+Function  
  ----- ------------  ---------------      ----- ------------  ---------------
    41      5.210198  2 C  px                 4     -4.321884  1 C  s          
    71     -3.505892  3 C  px                42      2.508171  2 C  py         
    64     -2.509262  3 C  s                151      1.832085  7 H  s          
   150      1.633086  7 H  s                165      1.587178  8 H  s          
    34      1.321836  2 C  s                 12      1.178888  1 C  py         

 Vector   46  Occ=0.000000D+00  E= 8.602817D-01  Symmetry=a'
              MO Center=  4.4D-02, -1.1D+00, -1.7D-11, r^2= 4.9D+00
   Bfn.  Coefficient  Atom+Function         Bfn.  Coefficient  Atom+Function  
  ----- ------------  ---------------      ----- ------------  ---------------
    34      8.296711  2 C  s                  4     -4.442039  1 C  s          
    64     -4.422729  3 C  s                 41      3.382846  2 C  px         
    72     -2.516439  3 C  py                71      2.065164  3 C  px         
   101     -1.813828  4 O  px                12      1.587797  1 C  py         
   164      1.490528  8 H  s                 83     -1.098486  3 C  d  2       

 Vector   47  Occ=0.000000D+00  E= 8.932760D-01  Symmetry=a"
              MO Center=  2.4D-01,  4.5D-01, -6.5D-11, r^2= 4.1D+00
   Bfn.  Coefficient  Atom+Function         Bfn.  Coefficient  Atom+Function  
  ----- ------------  ---------------      ----- ------------  ---------------
   129      0.673982  5 H  pz                73     -0.665719  3 C  pz         
    80      0.634830  3 C  d -1              13     -0.608029  1 C  pz         
    43      0.587308  2 C  pz               171      0.556589  8 H  pz         
   103      0.501695  4 O  pz                22     -0.291229  1 C  d  1       
    52     -0.254776  2 C  d  1              70     -0.223361  3 C  pz         

 Vector   48  Occ=0.000000D+00  E= 9.470397D-01  Symmetry=a'
              MO Center=  4.3D-01,  1.2D+00, -1.6D-10, r^2= 4.3D+00
   Bfn.  Coefficient  Atom+Function         Bfn.  Coefficient  Atom+Function  
  ----- ------------  ---------------      ----- ------------  ---------------
    64      4.217734  3 C  s                 34     -3.828142  2 C  s          
    41     -3.208794  2 C  px                11      3.148618  1 C  px         
    12     -2.181534  1 C  py               122      2.099171  5 H  s          
    72      1.615462  3 C  py               136     -1.409156  6 H  s          
    42      1.371202  2 C  py               123      1.248124  5 H  s          

 Vector   49  Occ=0.000000D+00  E= 9.876137D-01  Symmetry=a'
              MO Center= -1.3D-01,  1.3D+00, -9.6D-12, r^2= 4.1D+00
   Bfn.  Coefficient  Atom+Function         Bfn.  Coefficient  Atom+Function  
  ----- ------------  ---------------      ----- ------------  ---------------
    64      3.139999  3 C  s                 41     -1.834000  2 C  px         
   136      1.746282  6 H  s                 42      1.695877  2 C  py         
    34     -1.670487  2 C  s                  4     -1.292770  1 C  s          
    12     -0.740299  1 C  py                 8     -0.681445  1 C  px         
   151     -0.681066  7 H  s                 23     -0.640070  1 C  d  2       

 Vector   50  Occ=0.000000D+00  E= 1.044404D+00  Symmetry=a'
              MO Center= -3.1D-02,  2.6D-01,  2.2D-10, r^2= 4.0D+00
   Bfn.  Coefficient  Atom+Function         Bfn.  Coefficient  Atom+Function  
  ----- ------------  ---------------      ----- ------------  ---------------
    34      6.100349  2 C  s                  4     -4.744734  1 C  s          
    41      3.460407  2 C  px                42      3.152567  2 C  py         
    64     -1.501433  3 C  s                 72     -1.391937  3 C  py         
     9      1.284527  1 C  py                12      1.261350  1 C  py         
   164     -1.152125  8 H  s                151      1.065745  7 H  s          

 Vector   51  Occ=0.000000D+00  E= 1.067737D+00  Symmetry=a"
              MO Center=  3.5D-01,  8.7D-01, -1.4D-10, r^2= 4.3D+00
   Bfn.  Coefficient  Atom+Function         Bfn.  Coefficient  Atom+Function  
  ----- ------------  ---------------      ----- ------------  ---------------
    13      1.056660  1 C  pz                43     -0.960584  2 C  pz         
   171      0.788543  8 H  pz               143     -0.732751  6 H  pz         
   129     -0.712391  5 H  pz                82      0.675914  3 C  d  1       
    10      0.513134  1 C  pz                50     -0.422502  2 C  d -1       
    40     -0.307552  2 C  pz                52      0.294741  2 C  d  1       

 Vector   52  Occ=0.000000D+00  E= 1.068756D+00  Symmetry=a'
              MO Center=  2.6D-01,  3.5D-02,  4.5D-11, r^2= 4.7D+00
   Bfn.  Coefficient  Atom+Function         Bfn.  Coefficient  Atom+Function  
  ----- ------------  ---------------      ----- ------------  ---------------
    64     -3.223570  3 C  s                 34      3.123709  2 C  s          
    72     -2.232605  3 C  py               164      1.574789  8 H  s          
   136      1.462692  6 H  s                 11      1.343505  1 C  px         
    23     -1.209802  1 C  d  2               8     -1.160115  1 C  px         
   122     -0.967772  5 H  s                127     -0.967416  5 H  px         

 Vector   53  Occ=0.000000D+00  E= 1.092868D+00  Symmetry=a"
              MO Center= -8.0D-02,  4.3D-01,  5.5D-11, r^2= 4.0D+00
   Bfn.  Coefficient  Atom+Function         Bfn.  Coefficient  Atom+Function  
  ----- ------------  ---------------      ----- ------------  ---------------
   157      1.122797  7 H  pz               171     -0.894741  8 H  pz         
    43     -0.837736  2 C  pz               143     -0.783977  6 H  pz         
    73      0.594366  3 C  pz                82     -0.484688  3 C  d  1       
    13      0.480318  1 C  pz                22     -0.470650  1 C  d  1       
    52     -0.469512  2 C  d  1             103     -0.167238  4 O  pz         

 Vector   54  Occ=0.000000D+00  E= 1.120490D+00  Symmetry=a"
              MO Center=  1.1D-01,  8.5D-01, -8.3D-11, r^2= 3.9D+00
   Bfn.  Coefficient  Atom+Function         Bfn.  Coefficient  Atom+Function  
  ----- ------------  ---------------      ----- ------------  ---------------
    43      0.961304  2 C  pz                20      0.829724  1 C  d -1       
   143     -0.830444  6 H  pz                80     -0.752137  3 C  d -1       
    73     -0.675259  3 C  pz                22     -0.658029  1 C  d  1       
    40      0.634317  2 C  pz                82     -0.534404  3 C  d  1       
   129     -0.461317  5 H  pz               157     -0.461335  7 H  pz         

 Vector   55  Occ=0.000000D+00  E= 1.166157D+00  Symmetry=a'
              MO Center=  2.4D-01,  4.0D-01,  7.2D-11, r^2= 4.3D+00
   Bfn.  Coefficient  Atom+Function         Bfn.  Coefficient  Atom+Function  
  ----- ------------  ---------------      ----- ------------  ---------------
    34      3.858640  2 C  s                 64     -3.546348  3 C  s          
    41      2.052210  2 C  px                71      2.026558  3 C  px         
    42     -1.781958  2 C  py                94      1.758207  4 O  s          
   170      1.231494  8 H  py                72     -1.208432  3 C  py         
   122      1.091035  5 H  s                164     -0.996694  8 H  s          

 Vector   56  Occ=0.000000D+00  E= 1.198093D+00  Symmetry=a"
              MO Center=  1.2D-01,  9.2D-01, -8.3D-12, r^2= 4.0D+00
   Bfn.  Coefficient  Atom+Function         Bfn.  Coefficient  Atom+Function  
  ----- ------------  ---------------      ----- ------------  ---------------
    20      1.319389  1 C  d -1             129     -1.082536  5 H  pz         
    80      0.908084  3 C  d -1              50      0.882142  2 C  d -1       
   171     -0.490827  8 H  pz                73      0.477261  3 C  pz         
    40      0.274793  2 C  pz               100      0.247092  4 O  pz         
    70      0.207634  3 C  pz                22      0.188323  1 C  d  1       

 Vector   57  Occ=0.000000D+00  E= 1.217903D+00  Symmetry=a'
              MO Center= -3.1D-01,  5.8D-01, -5.3D-11, r^2= 4.4D+00
   Bfn.  Coefficient  Atom+Function         Bfn.  Coefficient  Atom+Function  
  ----- ------------  ---------------      ----- ------------  ---------------
    42      5.396404  2 C  py                 4     -4.852679  1 C  s          
    64      4.010684  3 C  s                 12      2.466949  1 C  py         
    11      2.074616  1 C  px                72      1.763059  3 C  py         
    71     -1.497377  3 C  px                94      1.430857  4 O  s          
   156     -1.194434  7 H  py                39      1.042258  2 C  py         

 Vector   58  Occ=0.000000D+00  E= 1.252013D+00  Symmetry=a'
              MO Center=  1.7D-01,  7.3D-01, -1.3D-10, r^2= 4.4D+00
   Bfn.  Coefficient  Atom+Function         Bfn.  Coefficient  Atom+Function  
  ----- ------------  ---------------      ----- ------------  ---------------
   150      3.567832  7 H  s                 64      2.965277  3 C  s          
     4     -2.569395  1 C  s                 38      2.264085  2 C  px         
    12      2.075434  1 C  py                53     -1.748449  2 C  d  2       
    94     -1.719974  4 O  s                155      1.565691  7 H  px         
    42      1.529933  2 C  py                11      1.206198  1 C  px         

 Vector   59  Occ=0.000000D+00  E= 1.280499D+00  Symmetry=a'
              MO Center=  1.3D-01,  1.4D-01, -3.5D-11, r^2= 4.9D+00
   Bfn.  Coefficient  Atom+Function         Bfn.  Coefficient  Atom+Function  
  ----- ------------  ---------------      ----- ------------  ---------------
    64      2.941736  3 C  s                136      2.792246  6 H  s          
    72      2.410614  3 C  py               150     -2.414118  7 H  s          
     4     -2.167707  1 C  s                 38     -1.902438  2 C  px         
     8     -1.764050  1 C  px                12      1.738870  1 C  py         
    79     -1.683582  3 C  d -2              94      1.553722  4 O  s          

 Vector   60  Occ=0.000000D+00  E= 1.334590D+00  Symmetry=a'
              MO Center=  9.9D-02,  4.9D-02, -4.2D-11, r^2= 5.2D+00
   Bfn.  Coefficient  Atom+Function         Bfn.  Coefficient  Atom+Function  
  ----- ------------  ---------------      ----- ------------  ---------------
    34      5.121634  2 C  s                 64     -4.603270  3 C  s          
    94      4.370559  4 O  s                 71      2.582545  3 C  px         
     4     -2.084729  1 C  s                 41      2.049076  2 C  px         
    38      1.956901  2 C  px                68      1.857207  3 C  px         
   164     -1.863148  8 H  s                  8      1.693494  1 C  px         

 Vector   61  Occ=0.000000D+00  E= 1.364967D+00  Symmetry=a"
              MO Center= -3.6D-02,  4.6D-01, -1.6D-10, r^2= 3.8D+00
   Bfn.  Coefficient  Atom+Function         Bfn.  Coefficient  Atom+Function  
  ----- ------------  ---------------      ----- ------------  ---------------
    50      1.739520  2 C  d -1              22     -1.246687  1 C  d  1       
    82      0.924640  3 C  d  1              20      0.871699  1 C  d -1       
   143     -0.704912  6 H  pz               171      0.608230  8 H  pz         
    10     -0.498922  1 C  pz                13     -0.476960  1 C  pz         
    52     -0.450762  2 C  d  1              43      0.341873  2 C  pz         

 Vector   62  Occ=0.000000D+00  E= 1.367020D+00  Symmetry=a'
              MO Center= -2.1D-01,  1.2D+00, -1.4D-13, r^2= 4.9D+00
   Bfn.  Coefficient  Atom+Function         Bfn.  Coefficient  Atom+Function  
  ----- ------------  ---------------      ----- ------------  ---------------
    64     -6.445860  3 C  s                  4      5.975505  1 C  s          
    42     -4.260816  2 C  py                94      3.235516  4 O  s          
    71      2.231622  3 C  px                12     -2.123570  1 C  py         
   136     -1.807459  6 H  s                128     -1.475988  5 H  py         
     9     -1.330697  1 C  py                 8      1.221111  1 C  px         

 Vector   63  Occ=0.000000D+00  E= 1.426051D+00  Symmetry=a'
              MO Center=  9.7D-02,  6.6D-01, -1.2D-10, r^2= 5.6D+00
   Bfn.  Coefficient  Atom+Function         Bfn.  Coefficient  Atom+Function  
  ----- ------------  ---------------      ----- ------------  ---------------
    64      7.032963  3 C  s                122      4.854836  5 H  s          
     4     -4.319540  1 C  s                 94     -3.816014  4 O  s          
    42      3.745005  2 C  py                11      2.893049  1 C  px         
     8      2.738602  1 C  px                 9     -2.420816  1 C  py         
    71     -2.358248  3 C  px               128     -2.281546  5 H  py         

 Vector   64  Occ=0.000000D+00  E= 1.481350D+00  Symmetry=a'
              MO Center=  3.1D-01,  7.8D-01, -3.3D-11, r^2= 4.8D+00
   Bfn.  Coefficient  Atom+Function         Bfn.  Coefficient  Atom+Function  
  ----- ------------  ---------------      ----- ------------  ---------------
    34      7.902586  2 C  s                150     -2.450622  7 H  s          
     4     -1.995815  1 C  s                155     -1.589717  7 H  px         
    38     -1.517103  2 C  px               169      1.505021  8 H  px         
    68      1.497514  3 C  px                23     -1.457126  1 C  d  2       
    72     -1.373644  3 C  py                12      1.300378  1 C  py         

 Vector   65  Occ=0.000000D+00  E= 1.496084D+00  Symmetry=a"
              MO Center= -2.9D-01,  7.8D-01, -2.3D-10, r^2= 3.4D+00
   Bfn.  Coefficient  Atom+Function         Bfn.  Coefficient  Atom+Function  
  ----- ------------  ---------------      ----- ------------  ---------------
    52      1.843236  2 C  d  1             157     -1.206564  7 H  pz         
    22     -1.082759  1 C  d  1              20     -0.994099  1 C  d -1       
   129      0.848432  5 H  pz                80      0.750466  3 C  d -1       
   143     -0.747411  6 H  pz               171     -0.394401  8 H  pz         
    73      0.310829  3 C  pz                82     -0.279112  3 C  d  1       

 Vector   66  Occ=0.000000D+00  E= 1.501593D+00  Symmetry=a'
              MO Center=  5.9D-01,  6.1D-01,  1.4D-10, r^2= 4.5D+00
   Bfn.  Coefficient  Atom+Function         Bfn.  Coefficient  Atom+Function  
  ----- ------------  ---------------      ----- ------------  ---------------
    34      7.645698  2 C  s                 64     -5.346947  3 C  s          
   164      3.790418  8 H  s                136     -3.328959  6 H  s          
   150     -3.176511  7 H  s                  4     -2.692054  1 C  s          
    68     -2.359922  3 C  px               169     -2.309359  8 H  px         
   122      2.140258  5 H  s                141      2.129435  6 H  px         

 Vector   67  Occ=0.000000D+00  E= 1.567447D+00  Symmetry=a'
              MO Center= -3.4D-01,  8.1D-01,  1.7D-10, r^2= 4.1D+00
   Bfn.  Coefficient  Atom+Function         Bfn.  Coefficient  Atom+Function  
  ----- ------------  ---------------      ----- ------------  ---------------
    19      2.200156  1 C  d -2             122      1.931765  5 H  s          
    34     -1.809031  2 C  s                164     -1.631472  8 H  s          
   151      1.392258  7 H  s                 39     -1.301550  2 C  py         
    41      1.252854  2 C  px                64      1.223824  3 C  s          
   142     -1.135449  6 H  py               155      1.050796  7 H  px         

 Vector   68  Occ=0.000000D+00  E= 1.597673D+00  Symmetry=a'
              MO Center= -7.3D-02,  1.2D+00, -2.1D-11, r^2= 4.2D+00
   Bfn.  Coefficient  Atom+Function         Bfn.  Coefficient  Atom+Function  
  ----- ------------  ---------------      ----- ------------  ---------------
     4     10.730522  1 C  s                 34    -10.720088  2 C  s          
   150      6.377830  7 H  s                122     -6.194357  5 H  s          
    53     -3.592728  2 C  d  2               9      3.479002  1 C  py         
   136     -3.370123  6 H  s                 19     -3.105288  1 C  d -2       
    64      2.710945  3 C  s                 38      2.553449  2 C  px         

 Vector   69  Occ=0.000000D+00  E= 1.720863D+00  Symmetry=a'
              MO Center= -8.5D-02,  3.4D-01,  8.3D-11, r^2= 3.9D+00
   Bfn.  Coefficient  Atom+Function         Bfn.  Coefficient  Atom+Function  
  ----- ------------  ---------------      ----- ------------  ---------------
    34      6.831779  2 C  s                 64     -4.813310  3 C  s          
     4     -2.424491  1 C  s                164      2.425999  8 H  s          
    72     -2.082966  3 C  py                41      1.813298  2 C  px         
     9      1.694688  1 C  py               122     -1.305293  5 H  s          
    94     -1.196196  4 O  s                150     -1.174013  7 H  s          

 Vector   70  Occ=0.000000D+00  E= 1.794308D+00  Symmetry=a'
              MO Center= -1.2D-01, -1.7D-01,  8.1D-11, r^2= 4.1D+00
   Bfn.  Coefficient  Atom+Function         Bfn.  Coefficient  Atom+Function  
  ----- ------------  ---------------      ----- ------------  ---------------
   136      3.833478  6 H  s                 49     -2.787303  2 C  d -2       
    23     -2.643890  1 C  d  2             122     -2.615334  5 H  s          
     8     -1.981948  1 C  px                42      1.887158  2 C  py         
     4     -1.627075  1 C  s                150      1.531182  7 H  s          
    19     -1.520771  1 C  d -2             141     -1.377389  6 H  px         

 Vector   71  Occ=0.000000D+00  E= 1.828117D+00  Symmetry=a"
              MO Center=  4.0D-02, -1.3D+00,  3.0D-09, r^2= 2.2D+00
   Bfn.  Coefficient  Atom+Function         Bfn.  Coefficient  Atom+Function  
  ----- ------------  ---------------      ----- ------------  ---------------
    82      0.915993  3 C  d  1             112     -0.912695  4 O  d  1       
    50      0.726738  2 C  d -1             171      0.596919  8 H  pz         
    80      0.423061  3 C  d -1              22     -0.414846  1 C  d  1       
   110     -0.317332  4 O  d -1              37     -0.246537  2 C  pz         
   143     -0.226020  6 H  pz                52      0.200801  2 C  d  1       

 Vector   72  Occ=0.000000D+00  E= 1.839627D+00  Symmetry=a'
              MO Center= -1.5D-01, -2.2D-01, -3.3D-09, r^2= 4.0D+00
   Bfn.  Coefficient  Atom+Function         Bfn.  Coefficient  Atom+Function  
  ----- ------------  ---------------      ----- ------------  ---------------
   136      4.484879  6 H  s                  4     -2.936291  1 C  s          
    23     -2.766191  1 C  d  2             150      2.644206  7 H  s          
    49     -2.268107  2 C  d -2              53     -1.921914  2 C  d  2       
    69     -1.826370  3 C  py                41      1.693828  2 C  px         
   122     -1.675487  5 H  s                 34      1.653098  2 C  s          

 Vector   73  Occ=0.000000D+00  E= 2.036791D+00  Symmetry=a"
              MO Center=  7.8D-02, -8.0D-01, -3.9D-09, r^2= 2.0D+00
   Bfn.  Coefficient  Atom+Function         Bfn.  Coefficient  Atom+Function  
  ----- ------------  ---------------      ----- ------------  ---------------
    67      0.825543  3 C  pz               110     -0.777311  4 O  d -1       
    80     -0.752745  3 C  d -1              70     -0.696942  3 C  pz         
   103     -0.630902  4 O  pz                52     -0.503233  2 C  d  1       
    73      0.475902  3 C  pz                82      0.438961  3 C  d  1       
    40     -0.399832  2 C  pz                37      0.391135  2 C  pz         

 Vector   74  Occ=0.000000D+00  E= 2.043458D+00  Symmetry=a'
              MO Center=  8.1D-02,  2.7D-02,  3.9D-09, r^2= 3.2D+00
   Bfn.  Coefficient  Atom+Function         Bfn.  Coefficient  Atom+Function  
  ----- ------------  ---------------      ----- ------------  ---------------
   150      5.253861  7 H  s                 53     -3.191726  2 C  d  2       
   164      2.318397  8 H  s                155      2.072410  7 H  px         
    38      2.049527  2 C  px                 4     -1.985452  1 C  s          
    34     -1.989988  2 C  s                 83     -1.761104  3 C  d  2       
   136      1.577601  6 H  s                 79      1.519953  3 C  d -2       

 Vector   75  Occ=0.000000D+00  E= 2.103278D+00  Symmetry=a"
              MO Center=  5.6D-03,  4.0D-01,  7.6D-10, r^2= 3.1D+00
   Bfn.  Coefficient  Atom+Function         Bfn.  Coefficient  Atom+Function  
  ----- ------------  ---------------      ----- ------------  ---------------
    10      0.940558  1 C  pz                40      0.818817  2 C  pz         
     7     -0.803389  1 C  pz                37     -0.636930  2 C  pz         
    80     -0.621770  3 C  d -1              70      0.571649  3 C  pz         
   110     -0.549595  4 O  d -1             103     -0.506054  4 O  pz         
   112      0.370682  4 O  d  1              43     -0.284592  2 C  pz         

 Vector   76  Occ=0.000000D+00  E= 2.165018D+00  Symmetry=a'
              MO Center=  1.7D-01, -9.4D-01, -2.3D-10, r^2= 3.1D+00
   Bfn.  Coefficient  Atom+Function         Bfn.  Coefficient  Atom+Function  
  ----- ------------  ---------------      ----- ------------  ---------------
   164      5.086065  8 H  s                 94     -3.342816  4 O  s          
    68     -2.702014  3 C  px                83     -2.454152  3 C  d  2       
    69     -2.077141  3 C  py               169     -1.816686  8 H  px         
    34      1.504410  2 C  s                 64     -1.502172  3 C  s          
     4     -1.238631  1 C  s                 72     -1.168753  3 C  py         

 Vector   77  Occ=0.000000D+00  E= 2.228919D+00  Symmetry=a'
              MO Center=  1.6D-02,  1.3D+00,  5.8D-10, r^2= 2.8D+00
   Bfn.  Coefficient  Atom+Function         Bfn.  Coefficient  Atom+Function  
  ----- ------------  ---------------      ----- ------------  ---------------
   122      4.353381  5 H  s                  9     -2.464591  1 C  py         
     4     -1.493861  1 C  s                127      1.297853  5 H  px         
    23      1.268202  1 C  d  2              53      1.250642  2 C  d  2       
    19      1.112765  1 C  d -2              34     -1.110043  2 C  s          
   128     -1.112246  5 H  py                12     -0.965837  1 C  py         

 Vector   78  Occ=0.000000D+00  E= 2.229654D+00  Symmetry=a"
              MO Center=  3.3D-02, -3.5D-02,  1.5D-10, r^2= 3.1D+00
   Bfn.  Coefficient  Atom+Function         Bfn.  Coefficient  Atom+Function  
  ----- ------------  ---------------      ----- ------------  ---------------
    70      1.326835  3 C  pz                10     -1.040351  1 C  pz         
    67     -0.764211  3 C  pz                 7      0.650167  1 C  pz         
   110     -0.649601  4 O  d -1              80     -0.469655  3 C  d -1       
    50      0.465787  2 C  d -1             103     -0.458412  4 O  pz         
    82      0.423191  3 C  d  1              73     -0.282386  3 C  pz         

 Vector   79  Occ=0.000000D+00  E= 2.271507D+00  Symmetry=a'
              MO Center=  4.7D-02, -1.2D+00, -7.0D-10, r^2= 2.8D+00
   Bfn.  Coefficient  Atom+Function         Bfn.  Coefficient  Atom+Function  
  ----- ------------  ---------------      ----- ------------  ---------------
    94     -2.592950  4 O  s                 64      2.522737  3 C  s          
    34     -2.108149  2 C  s                 79      2.021548  3 C  d -2       
    69     -1.979126  3 C  py                 4      1.632166  1 C  s          
   102     -1.578074  4 O  py               122      1.251920  5 H  s          
   113      1.232411  4 O  d  2             136     -1.222654  6 H  s          

 Vector   80  Occ=0.000000D+00  E= 2.328712D+00  Symmetry=a'
              MO Center= -8.1D-02,  5.5D-01, -7.2D-10, r^2= 2.5D+00
   Bfn.  Coefficient  Atom+Function         Bfn.  Coefficient  Atom+Function  
  ----- ------------  ---------------      ----- ------------  ---------------
   150      1.842905  7 H  s                 68      1.428111  3 C  px         
   164     -1.034394  8 H  s                 38      0.962397  2 C  px         
    39      0.877665  2 C  py                53     -0.836511  2 C  d  2       
    41      0.781052  2 C  px               136     -0.768291  6 H  s          
    42     -0.743367  2 C  py                 8      0.680565  1 C  px         

 Vector   81  Occ=0.000000D+00  E= 2.337134D+00  Symmetry=a"
              MO Center= -9.9D-02,  7.8D-01,  6.5D-10, r^2= 1.8D+00
   Bfn.  Coefficient  Atom+Function         Bfn.  Coefficient  Atom+Function  
  ----- ------------  ---------------      ----- ------------  ---------------
    40      1.424174  2 C  pz                10     -1.015564  1 C  pz         
    37     -0.945170  2 C  pz                 7      0.635983  1 C  pz         
    70     -0.565611  3 C  pz                43     -0.443692  2 C  pz         
    67      0.371101  3 C  pz                20      0.292076  1 C  d -1       
    13      0.281793  1 C  pz                80     -0.225474  3 C  d -1       

 Vector   82  Occ=0.000000D+00  E= 2.447040D+00  Symmetry=a'
              MO Center= -2.8D-02,  5.8D-01, -1.3D-10, r^2= 3.2D+00
   Bfn.  Coefficient  Atom+Function         Bfn.  Coefficient  Atom+Function  
  ----- ------------  ---------------      ----- ------------  ---------------
   136      3.574663  6 H  s                  8     -2.857523  1 C  px         
   150     -2.706598  7 H  s                 38     -2.407415  2 C  px         
   122     -1.636596  5 H  s                141     -1.379057  6 H  px         
    11     -1.243966  1 C  px                34     -1.206420  2 C  s          
   155     -1.052547  7 H  px                42     -1.038201  2 C  py         

 Vector   83  Occ=0.000000D+00  E= 2.501010D+00  Symmetry=a'
[...]
  ----- ------------  ---------------      ----- ------------  ---------------
   106     -0.918382  4 O  d  0              34      0.908610  2 C  s          
    83      0.911369  3 C  d  2              64     -0.886745  3 C  s          
    42     -0.709881  2 C  py                53      0.708917  2 C  d  2       
    79     -0.688369  3 C  d -2             111      0.683717  4 O  d  0       
    38      0.633028  2 C  px                 9      0.596176  1 C  py         

 Vector  169  Occ=0.000000D+00  E= 6.950746D+00  Symmetry=a"
              MO Center= -1.4D-01, -1.8D+00,  2.2D-10, r^2= 5.8D-01
   Bfn.  Coefficient  Atom+Function         Bfn.  Coefficient  Atom+Function  
  ----- ------------  ---------------      ----- ------------  ---------------
   110      1.271740  4 O  d -1             105     -0.949348  4 O  d -1       
    70     -0.818865  3 C  pz               100      0.614019  4 O  pz         
    80      0.608478  3 C  d -1             103      0.532991  4 O  pz         
   112     -0.516418  4 O  d  1             117     -0.468287  4 O  f  0       
   115      0.430526  4 O  f -2             119     -0.428128  4 O  f  2       

 Vector  170  Occ=0.000000D+00  E= 7.057462D+00  Symmetry=a'
              MO Center= -6.0D-02, -1.4D+00,  9.6D-12, r^2= 1.4D+00
   Bfn.  Coefficient  Atom+Function         Bfn.  Coefficient  Atom+Function  
  ----- ------------  ---------------      ----- ------------  ---------------
    34      1.414541  2 C  s                 83     -0.909538  3 C  d  2       
   108      0.896717  4 O  d  2              54      0.761301  2 C  f -3       
    84     -0.725337  3 C  f -3             104      0.695699  4 O  d -2       
   113     -0.666655  4 O  d  2             150     -0.649537  7 H  s          
    68      0.609426  3 C  px                24     -0.598690  1 C  f -3       

 Vector  171  Occ=0.000000D+00  E= 7.148477D+00  Symmetry=a'
              MO Center= -1.4D-01, -1.8D+00,  1.4D-11, r^2= 5.6D-01
   Bfn.  Coefficient  Atom+Function         Bfn.  Coefficient  Atom+Function  
  ----- ------------  ---------------      ----- ------------  ---------------
    94      1.267755  4 O  s                109      1.008533  4 O  d -2       
   104     -0.832148  4 O  d -2              69      0.799694  3 C  py         
    62     -0.770101  3 C  s                102      0.743519  4 O  py         
   111     -0.677397  4 O  d  0              63     -0.595172  3 C  s          
   113     -0.573347  4 O  d  2             106      0.567251  4 O  d  0       

 Vector  172  Occ=0.000000D+00  E= 7.241214D+00  Symmetry=a'
              MO Center= -2.7D-02, -1.2D+00, -1.6D-11, r^2= 1.9D+00
   Bfn.  Coefficient  Atom+Function         Bfn.  Coefficient  Atom+Function  
  ----- ------------  ---------------      ----- ------------  ---------------
    84      1.597698  3 C  f -3              68      1.515068  3 C  px         
   113     -1.129910  4 O  d  2              98     -1.105913  4 O  px         
   114     -1.065000  4 O  f -3              54     -1.027444  2 C  f -3       
   109     -0.970677  4 O  d -2              34      0.962891  2 C  s          
    24      0.687785  1 C  f -3              69     -0.666034  3 C  py         

 Vector  173  Occ=0.000000D+00  E= 1.053700D+01  Symmetry=a'
              MO Center=  1.6D-01, -5.9D-01, -2.0D-11, r^2= 2.6D+00
   Bfn.  Coefficient  Atom+Function         Bfn.  Coefficient  Atom+Function  
  ----- ------------  ---------------      ----- ------------  ---------------
    62      7.527710  3 C  s                164     -6.387454  8 H  s          
   150     -5.869789  7 H  s                 64      5.344800  3 C  s          
    61      4.239083  3 C  s                 32      3.764936  2 C  s          
    53      3.539045  2 C  d  2             136     -3.239600  6 H  s          
    92      3.105053  4 O  s                169      3.025626  8 H  px         

 Vector  174  Occ=0.000000D+00  E= 1.119398D+01  Symmetry=a'
              MO Center= -2.5D-01,  6.5D-01,  1.9D-11, r^2= 2.5D+00
   Bfn.  Coefficient  Atom+Function         Bfn.  Coefficient  Atom+Function  
  ----- ------------  ---------------      ----- ------------  ---------------
    32      8.195616  2 C  s                150     -6.424499  7 H  s          
     2      5.865045  1 C  s                136     -4.729525  6 H  s          
    31      4.608188  2 C  s                  4      3.935809  1 C  s          
   122     -3.746054  5 H  s                  1      3.255971  1 C  s          
   155     -2.974356  7 H  px                 9      2.833924  1 C  py         

 Vector  175  Occ=0.000000D+00  E= 1.306235D+01  Symmetry=a'
              MO Center=  1.3D-01, -7.4D-01,  1.1D-11, r^2= 2.1D+00
   Bfn.  Coefficient  Atom+Function         Bfn.  Coefficient  Atom+Function  
  ----- ------------  ---------------      ----- ------------  ---------------
    62      6.983837  3 C  s                 92     -4.621671  4 O  s          
     2     -4.354674  1 C  s                 61      3.847417  3 C  s          
    91     -2.964717  4 O  s                 99     -2.860597  4 O  py         
    69     -2.737640  3 C  py                64      2.659403  3 C  s          
    94     -2.437824  4 O  s                  1     -2.422188  1 C  s          

 Vector  176  Occ=0.000000D+00  E= 1.425900D+01  Symmetry=a'
              MO Center= -1.6D-02,  1.1D+00,  1.5D-11, r^2= 2.1D+00
   Bfn.  Coefficient  Atom+Function         Bfn.  Coefficient  Atom+Function  
  ----- ------------  ---------------      ----- ------------  ---------------
     2     10.273721  1 C  s                 34     -8.360630  2 C  s          
     4      7.797548  1 C  s                 32     -6.765063  2 C  s          
     1      5.650198  1 C  s                 62      3.813896  3 C  s          
    31     -3.756974  2 C  s                122     -3.590030  5 H  s          
    64      3.458662  3 C  s                136     -3.379380  6 H  s          


 center of mass
 --------------
 x =  -0.02367988 y =  -0.14861971 z =   0.00000000

 moments of inertia (a.u.)
 ------------------
         386.798472072844          -0.000000000000           0.000000000000
          -0.000000000000          37.350689219708           0.000000000000
           0.000000000000           0.000000000000         424.149161292551

     Multipole analysis of the density
     ---------------------------------

     L   x y z        total         alpha         beta         nuclear
     -   - - -        -----         -----         ----         -------
     0   0 0 0     -0.000000    -15.000000    -15.000000     30.000000

     1   1 0 0      0.280028      0.140014      0.140014      0.000000
     1   0 1 0      1.283865      0.641932      0.641932     -0.000000
     1   0 0 1      0.000000      0.000000      0.000000      0.000000

     2   2 0 0    -16.163423    -22.823791    -22.823791     29.484160
     2   1 1 0     -0.621324     -0.065945     -0.065945     -0.489433
     2   1 0 1      0.000000      0.000000      0.000000      0.000000
     2   0 2 0    -20.145950   -116.887466   -116.887466    213.628982
     2   0 1 1      0.000000      0.000000      0.000000      0.000000
     2   0 0 2    -18.688009     -9.344005     -9.344005      0.000000

  int_init: cando_txs set to always be  F
                                NWChem TDDFT Module
                                -------------------


            General Information
            -------------------
           No. of orbitals :     352
            Alpha orbitals :     176
             Beta orbitals :     176
        Alpha frozen cores :       0
         Beta frozen cores :       0
     Alpha frozen virtuals :       0
      Beta frozen virtuals :       0
         Spin multiplicity :       1
    Number of AO functions :     176
        Use of symmetry is : off
      Symmetry adaption is : on 
         Schwarz screening :  0.10D-07

              XC Information
              --------------
              Hartree-Fock (Exact) Exchange   1.00          
            CAM-Becke88 Exchange Functional   1.00          
               VWN V Correlation Functional   0.19 local    
       Lee-Yang-Parr Correlation Functional   0.81          
           Alpha           :  0.19
           Beta            :  0.81
           Gamma           :  0.33

             TDDFT Information
             -----------------
          Calculation type : TDDFT             
         Wavefunction type : Restricted singlets
          No. of electrons :      30
           Alpha electrons :      15
            Beta electrons :      15
              No. of roots :       5
          Max subspacesize :    5000
            Max iterations :     100
               Target root :       1
           Target symmetry : none
      Symmetry restriction : off
                 Algorithm : Disk-based multiple tensor contraction
        Davidson threshold :  0.10D-03

            Memory Information
            ------------------
          Available GA space size is         689946368 doubles
          Available MA space size is         138300660 doubles
          Length of a trial vector is         2415
          Estimated peak GA usage is           1391924 doubles
          Estimated peak MA usage is           1268000 doubles
          Estimated peak DRA usage is         48300000 doubles

    5 smallest eigenvalue differences (eV) 
--------------------------------------------------------
  No. Spin  Occ  Vir  Irrep   E(Occ)    E(Vir)   E(Diff)
--------------------------------------------------------
    1    1   15   16 a"       -0.384     0.015    10.853
    2    1   14   16 a'       -0.408     0.015    11.517
    3    1   15   17 a'       -0.384     0.115    13.576
    4    1   15   18 a'       -0.384     0.126    13.868
    5    1   15   19 a"       -0.384     0.135    14.097
--------------------------------------------------------

  Entering Davidson iterations
  Restricted singlet excited states

  Iter   NTrls   NConv    DeltaV     DeltaE      Time   
  ----  ------  ------  ---------  ---------  --------- 
    1      5       0     0.36E+00   0.10+100       34.1
    2     15       0     0.73E-01   0.40E-01       41.7
    3     25       0     0.12E+00   0.14E-01       41.5
    4     35       0     0.64E-01   0.17E-01       41.6
    5     45       0     0.28E-01   0.76E-02       41.6
    6     55       1     0.19E-01   0.19E-02       41.7
    7     63       2     0.45E-01   0.72E-02       39.0
    8     69       2     0.17E-01   0.18E-02       36.3
    9     75       2     0.42E-02   0.17E-03       36.3
   10     81       3     0.18E-02   0.15E-04       36.7
   11     85       4     0.46E-03   0.17E-05       34.1
   12     87       4     0.13E-03   0.92E-07       31.1
   13     89       5     0.65E-04   0.66E-08       31.2
  ----  ------  ------  ---------  ---------  --------- 
  Convergence criterion met

  Ground state a'       -191.750390600694 a.u.

  ----------------------------------------------------------------------------
  Root   1 singlet a"             0.144573218 a.u.                3.9340 eV 
  ----------------------------------------------------------------------------
     Transition Moments    X  0.00000   Y  0.00000   Z -0.05436
     Transition Moments   XX -0.00000  XY  0.00000  XZ -0.37426
     Transition Moments   YY  0.00000  YZ  0.08832  ZZ  0.00000
     Dipole Oscillator Strength                    0.0002848617
     Electric Quadrupole                           0.0000000024
     Magnetic Dipole                               0.0000011782
     Total Oscillator Strength                     0.0002860423

     Occ.   15  a'  ---  Virt.   16  a"   0.94135 X
     Occ.   15  a'  ---  Virt.   19  a"   0.32296 X
  ----------------------------------------------------------------------------
  Root   2 singlet a'             0.245408410 a.u.                6.6779 eV 
  ----------------------------------------------------------------------------
     Transition Moments    X -0.19471   Y -1.64247   Z -0.00000
     Transition Moments   XX  0.47683  XY -0.47151  XZ -0.00000
     Transition Moments   YY -3.00515  YZ  0.00000  ZZ -0.21551
     Dipole Oscillator Strength                    0.4475650322
     Electric Quadrupole                           0.0000002849
     Magnetic Dipole                               0.0000000798
     Total Oscillator Strength                     0.4475653969

     Occ.   12  a"  ---  Virt.   16  a"   0.05641 X
     Occ.   13  a'  ---  Virt.   24  a'   0.05410 X
     Occ.   14  a"  ---  Virt.   16  a"   0.98187 X
     Occ.   14  a"  ---  Virt.   16  a"  -0.09621 Y
     Occ.   15  a'  ---  Virt.   17  a'  -0.09812 X
     Occ.   15  a'  ---  Virt.   18  a'   0.06384 X
     Occ.   15  a'  ---  Virt.   20  a'   0.06322 X
     Occ.   15  a'  ---  Virt.   29  a'  -0.05121 X
  ----------------------------------------------------------------------------
  Root   3 singlet a"             0.278912687 a.u.                7.5896 eV 
  ----------------------------------------------------------------------------
     Transition Moments    X  0.00000   Y -0.00000   Z -0.02019
     Transition Moments   XX -0.00000  XY  0.00000  XZ  0.77678
     Transition Moments   YY  0.00000  YZ -0.19275  ZZ  0.00000
     Dipole Oscillator Strength                    0.0000758165
     Electric Quadrupole                           0.0000000740
     Magnetic Dipole                               0.0000043078
     Total Oscillator Strength                     0.0000801982

     Occ.    9  a'  ---  Virt.   16  a"  -0.12289 X
     Occ.   13  a'  ---  Virt.   16  a"  -0.68231 X
     Occ.   13  a'  ---  Virt.   19  a"   0.10296 X
     Occ.   15  a'  ---  Virt.   16  a"   0.24248 X
     Occ.   15  a'  ---  Virt.   19  a"  -0.66009 X
     Occ.   15  a'  ---  Virt.   30  a"   0.05542 X
  ----------------------------------------------------------------------------
  Root   4 singlet a"             0.300525948 a.u.                8.1777 eV 
  ----------------------------------------------------------------------------
     Transition Moments    X -0.00000   Y  0.00000   Z -0.03870
     Transition Moments   XX  0.00000  XY -0.00000  XZ  0.15940
     Transition Moments   YY -0.00000  YZ  0.26147  ZZ -0.00000
     Dipole Oscillator Strength                    0.0003000866
     Electric Quadrupole                           0.0000000136
     Magnetic Dipole                               0.0000010431
     Total Oscillator Strength                     0.0003011432

     Occ.    9  a'  ---  Virt.   16  a"   0.13011 X
     Occ.    9  a'  ---  Virt.   19  a"  -0.12780 X
     Occ.   10  a'  ---  Virt.   16  a"  -0.10216 X
     Occ.   11  a'  ---  Virt.   16  a"   0.25315 X
     Occ.   13  a'  ---  Virt.   16  a"  -0.68392 X
     Occ.   13  a'  ---  Virt.   19  a"   0.08134 X
     Occ.   15  a'  ---  Virt.   16  a"  -0.19061 X
     Occ.   15  a'  ---  Virt.   19  a"   0.60782 X
  ----------------------------------------------------------------------------
  Root   5 singlet a"             0.316868038 a.u.                8.6224 eV 
  ----------------------------------------------------------------------------
     Transition Moments    X -0.00000   Y -0.00000   Z -0.11325
     Transition Moments   XX  0.00000  XY -0.00000  XZ  0.16175
     Transition Moments   YY -0.00000  YZ  0.13099  ZZ  0.00000
     Dipole Oscillator Strength                    0.0027094595
     Electric Quadrupole                           0.0000000073
     Magnetic Dipole                               0.0000005522
     Total Oscillator Strength                     0.0027100190

     Occ.   10  a'  ---  Virt.   19  a"  -0.19232 X
     Occ.   11  a'  ---  Virt.   16  a"  -0.92698 X
     Occ.   11  a'  ---  Virt.   19  a"  -0.15197 X
     Occ.   13  a'  ---  Virt.   16  a"  -0.15129 X
     Occ.   15  a'  ---  Virt.   16  a"  -0.07320 X
     Occ.   15  a'  ---  Virt.   19  a"   0.19970 X

              Target root =      1
          Target symmetry = none
      Ground state energy =   -191.750390600694
        Excitation energy =      0.144573218263
     Excited state energy =   -191.605817382431

  stored tddft:energy   -191.60581738243127     

 Task  times  cpu:      582.7s     wall:      589.8s


                                NWChem Input Module
                                -------------------


 Summary of allocated global arrays
-----------------------------------
  No active global arrays



                         GA Statistics for process    0
                         ------------------------------

       create   destroy   get      put      acc     scatter   gather  read&inc
calls: 1555     1555     2.53e+06 3.37e+06 2.26e+06  475        0      979     
number of processes/call 1.06e+00 1.04e+00 1.05e+00 0.00e+00 0.00e+00
bytes total:             5.48e+09 9.70e+08 6.22e+09 6.20e+04 0.00e+00 7.83e+03
bytes remote:            1.31e+09 5.47e+08 9.23e+08 0.00e+00 0.00e+00 0.00e+00
Max memory consumed for GA by this process: 8990464 bytes

MA_summarize_allocated_blocks: starting scan ...
heap block 'gridpts', handle 98, address 0x55e7ca1a7f80:
	type of elements:		double precision
	number of elements:		34191012
	address of client space:	0x55e7ca1a8000
	index for client space:		13333523
	total number of bytes:		273528232
MA_summarize_allocated_blocks: scan completed: 1 heap block, 0 stack blocks
MA usage statistics:

	allocation statistics:
					      heap	     stack
					      ----	     -----
	current number of blocks	         1	         0
	maximum number of blocks	        25	        56
	current total bytes		 273528232	         0
	maximum total bytes		 275117480	  22517640
	maximum total K-bytes		    275118	     22518
	maximum total M-bytes		       276	        23


                                     CITATION
                                     --------
                Please cite the following reference when publishing
                           results obtained with NWChem:

                 M. Valiev, E.J. Bylaska, N. Govind, K. Kowalski,
              T.P. Straatsma, H.J.J. van Dam, D. Wang, J. Nieplocha,
                        E. Apra, T.L. Windus, W.A. de Jong
                 "NWChem: a comprehensive and scalable open-source
                  solution for large scale molecular simulations"
                      Comput. Phys. Commun. 181, 1477 (2010)
                           doi:10.1016/j.cpc.2010.04.018

                                      AUTHORS
                                      -------
          E. Apra, E. J. Bylaska, W. A. de Jong, N. Govind, K. Kowalski,
       T. P. Straatsma, M. Valiev, H. J. J. van Dam, D. Wang, T. L. Windus,
        J. Hammond, J. Autschbach, K. Bhaskaran-Nair, J. Brabec, K. Lopata,
    S. A. Fischer, S. Krishnamoorthy, M. Jacquelin, W. Ma, M. Klemm, O. Villa,
      Y. Chen, V. Anisimov, F. Aquino, S. Hirata, M. T. Hackler, V. Konjkov,
            D. Mejia-Rodriguez, T. Risthaus, M. Malagoli, A. Marenich,
   A. Otero-de-la-Roza, J. Mullin, P. Nichols, R. Peverati, J. Pittner, Y. Zhao,
        P.-D. Fan, A. Fonari, M. J. Williamson, R. J. Harrison, J. R. Rehr,
      M. Dupuis, D. Silverstein, D. M. A. Smith, J. Nieplocha, V. Tipparaju,
    M. Krishnan, B. E. Van Kuiken, A. Vazquez-Mayagoitia, L. Jensen, M. Swart,
      Q. Wu, T. Van Voorhis, A. A. Auer, M. Nooijen, L. D. Crosby, E. Brown,
      G. Cisneros, G. I. Fann, H. Fruchtl, J. Garza, K. Hirao, R. A. Kendall,
      J. A. Nichols, K. Tsemekhman, K. Wolinski, J. Anchell, D. E. Bernholdt,
      P. Borowski, T. Clark, D. Clerc, H. Dachsel, M. J. O. Deegan, K. Dyall,
    D. Elwood, E. Glendening, M. Gutowski, A. C. Hess, J. Jaffe, B. G. Johnson,
     J. Ju, R. Kobayashi, R. Kutteh, Z. Lin, R. Littlefield, X. Long, B. Meng,
      T. Nakajima, S. Niu, L. Pollack, M. Rosing, K. Glaesemann, G. Sandrone,
      M. Stave, H. Taylor, G. Thomas, J. H. van Lenthe, A. T. Wong, Z. Zhang.

 Total times  cpu:      582.7s     wall:      589.8s
