 argument  1 = /home/list1234/source/nwchem-6.8.1-release/QA/tests/br2_dk/br2_dk.nw



============================== echo of input deck ==============================
echo
start br2

geometry
 br 0  0   1.5
 br 0  0  -1.5
end

basis spherical
 br S; 574300. 1.0
 br S; 89070. 1.0
 br S; 20210. 1.0
 br S; 5736. 1.0
 br S; 1899. 1.0
 br S; 698.7 1.0
 br S; 277.8 1.0
 br S; 115.2 1.0
 br S; 35.97 1.0
 br S; 15.5 1.0
 br S; 4.771 1.0
 br S; 2.077 1.0
 br S; 0.4211 1.0
 br S; 0.161 1.0
 br S; 0.04 1.0
 br S; 0.02 1.0
 br P; 4406. 1.0
 br P; 1042. 1.0
 br P; 332.1 1.0
 br P; 121.9 1.0
 br P; 49.24 1.0
 br P; 21.16 1.0
 br P; 8.836 1.0
 br P; 3.829 1.0
 br P; 1.643 1.0
 br P; 0.465 1.0
 br P; 0.1427 1.0
 br P; 0.04 1.0
 br D; 108.4 1.0
 br D; 30.71 1.0
 br D; 10.66 1.0
 br D; 3.851 1.0
 br D; 1.317 1.0
 br D; 0.33 1.0
 br D; 0.13 1.0
 br F; 0.555 1.0
end

relativistic
 douglas-kroll dkh
 clight 137.0360000d0
end

scf
  thresh 1.0d-8
end

set tng:fivept t

task scf

task scf gradient

task scf gradient numerical

relativistic
  douglas-kroll dk3full
end

task scf
================================================================================


                                         
                                         


              Northwest Computational Chemistry Package (NWChem) 6.8
              ------------------------------------------------------


                    Environmental Molecular Sciences Laboratory
                       Pacific Northwest National Laboratory
                                Richland, WA 99352

                              Copyright (c) 1994-2018
                       Pacific Northwest National Laboratory
                            Battelle Memorial Institute

             NWChem is an open-source computational chemistry package
                        distributed under the terms of the
                      Educational Community License (ECL) 2.0
             A copy of the license is included with this distribution
                              in the LICENSE.TXT file

                                  ACKNOWLEDGMENT
                                  --------------

            This software and its documentation were developed at the
            EMSL at Pacific Northwest National Laboratory, a multiprogram
            national laboratory, operated for the U.S. Department of Energy
            by Battelle under Contract Number DE-AC05-76RL01830. Support
            for this work was provided by the Department of Energy Office
            of Biological and Environmental Research, Office of Basic
            Energy Sciences, and the Office of Advanced Scientific Computing.


           Job information
           ---------------

    hostname        = list1234-B360M-H
    program         = /home/list1234/source/nwchem-6.8.1-release/bin/LINUX64/nwchem
    date            = Sun Jun 30 06:01:44 2019

    compiled        = Sun_Jun_30_05:21:11_2019
    source          = /home/list1234/source/nwchem-6.8.1-release
    nwchem branch   = Development
    nwchem revision = N/A
    ga revision     = 5.6.5
    use scalapack   = T
    input           = /home/list1234/source/nwchem-6.8.1-release/QA/tests/br2_dk/br2_dk.nw
    prefix          = br2.
    data base       = ./br2.db
    status          = startup
    nproc           =        4
    time left       =     -1s



           Memory information
           ------------------

    heap     =   86247168 doubles =    658.0 Mbytes
    stack    =   86247165 doubles =    658.0 Mbytes
    global   =  172494336 doubles =   1316.0 Mbytes (distinct from heap & stack)
    total    =  344988669 doubles =   2632.1 Mbytes
    verify   = yes
    hardfail = no 


           Directory information
           ---------------------

  0 permanent = .
  0 scratch   = .




                                NWChem Input Module
                                -------------------



 Scaling coordinates for geometry "geometry" by  1.889725989
 (inverse scale =  0.529177249)

 ORDER OF PRIMARY AXIS IS BEING SET TO 4
 D4H symmetry detected

          ------
          auto-z
          ------
     1 autoz failed with cvr_scaling = 1.2 changing to 1.3
  no constraints, skipping    0.0000000000000000     
  no constraints, skipping    0.0000000000000000     


                             Geometry "geometry" -> ""
                             -------------------------

 Output coordinates in angstroms (scale by  1.889725989 to convert to a.u.)

  No.       Tag          Charge          X              Y              Z
 ---- ---------------- ---------- -------------- -------------- --------------
    1 br                  35.0000     0.00000000     0.00000000     1.50000000
    2 br                  35.0000     0.00000000     0.00000000    -1.50000000

      Atomic Mass 
      ----------- 

      br                79.916500


 Effective nuclear repulsion energy (a.u.)     216.0807100082

            Nuclear Dipole moment (a.u.) 
            ----------------------------
        X                 Y               Z
 ---------------- ---------------- ----------------
     0.0000000000     0.0000000000     0.0000000000

      Symmetry information
      --------------------

 Group name             D4h       
 Group number             28
 Group order              16
 No. of unique centers     1

      Symmetry unique atoms

     1



                                Z-matrix (autoz)
                                -------- 

 Units are Angstrom for bonds and degrees for angles

      Type          Name      I     J     K     L     M      Value
      ----------- --------  ----- ----- ----- ----- ----- ----------
    1 Stretch                  1     2                       3.00000


            XYZ format geometry
            -------------------
     2
 geometry
 br                    0.00000000     0.00000000     1.50000000
 br                    0.00000000     0.00000000    -1.50000000

                      Basis "ao basis" -> "" (spherical)
                      -----
  br (Bromine)
  ------------
            Exponent  Coefficients 
       -------------- ---------------------------------------------------------
  1 S  5.74300000E+05  1.000000

  2 S  8.90700000E+04  1.000000

  3 S  2.02100000E+04  1.000000

  4 S  5.73600000E+03  1.000000

  5 S  1.89900000E+03  1.000000

  6 S  6.98700000E+02  1.000000

  7 S  2.77800000E+02  1.000000

  8 S  1.15200000E+02  1.000000

  9 S  3.59700000E+01  1.000000

 10 S  1.55000000E+01  1.000000

 11 S  4.77100000E+00  1.000000

 12 S  2.07700000E+00  1.000000

 13 S  4.21100000E-01  1.000000

 14 S  1.61000000E-01  1.000000

 15 S  4.00000000E-02  1.000000

 16 S  2.00000000E-02  1.000000

 17 P  4.40600000E+03  1.000000

 18 P  1.04200000E+03  1.000000

 19 P  3.32100000E+02  1.000000

 20 P  1.21900000E+02  1.000000

 21 P  4.92400000E+01  1.000000

 22 P  2.11600000E+01  1.000000

 23 P  8.83600000E+00  1.000000

 24 P  3.82900000E+00  1.000000

 25 P  1.64300000E+00  1.000000

 26 P  4.65000000E-01  1.000000

 27 P  1.42700000E-01  1.000000

 28 P  4.00000000E-02  1.000000

 29 D  1.08400000E+02  1.000000

 30 D  3.07100000E+01  1.000000

 31 D  1.06600000E+01  1.000000

 32 D  3.85100000E+00  1.000000

 33 D  1.31700000E+00  1.000000

 34 D  3.30000000E-01  1.000000

 35 D  1.30000000E-01  1.000000

 36 F  5.55000000E-01  1.000000



 Summary of "ao basis" -> "" (spherical)
 ------------------------------------------------------------------------------
       Tag                 Description            Shells   Functions and Types
 ---------------- ------------------------------  ------  ---------------------
 br                      user specified             36       94   16s12p7d1f



Douglas-Kroll integrals are switched on !

Integrals for the no-pair equation with external-field projection operators
will be computed (Douglas-Kroll-Hess).


The speed of light used in the relativistic calculations is   137.0360000000au.

                                 NWChem SCF Module
                                 -----------------



  ao basis        = "ao basis"
  functions       =   188
  atoms           =     2
  closed shells   =    35
  open shells     =     0
  charge          =   0.00
  wavefunction    = RHF 
  input vectors   = atomic
  output vectors  = ./br2.movecs
  use symmetry    = T
  symmetry adapt  = T


 Summary of "ao basis" -> "ao basis" (spherical)
 ------------------------------------------------------------------------------
       Tag                 Description            Shells   Functions and Types
 ---------------- ------------------------------  ------  ---------------------
 br                      user specified             36       94   16s12p7d1f


      Symmetry analysis of basis
      --------------------------

        a1g        36
        a1u         0
        a2g         0
        a2u        36
        b1g         8
        b1u         8
        b2g         8
        b2u         8
        eg         42
        eu         42


 Forming initial guess at       0.4s


      Superposition of Atomic Density Guess
      -------------------------------------

 Sum of atomic energies:       -5144.74924043

      Non-variational initial energy
      ------------------------------

 Total energy =   -5191.125080
 1-e energy   =   -7642.114664
 2-e energy   =    2234.908874
 HOMO         =      -0.382106
 LUMO         =      -0.307499


      Symmetry analysis of molecular orbitals - initial
      -------------------------------------------------


 !! scf_movecs_sym_adapt:   32 vectors were symmetry contaminated

  Symmetry fudging

 !! scf_movecs_sym_adapt:   28 vectors were symmetry contaminated

  Numbering of irreducible representations: 

     1 a1g         2 a1u         3 a2g         4 a2u         5 b1g     
     6 b1u         7 b2g         8 b2u         9 eg         10 eu      

  Orbital symmetries:

     1 a2u         2 a1g         3 a2u         4 a1g         5 a1g     
     6 a2u         7 eg          8 eg          9 eu         10 eu      
    11 a1g        12 a2u        13 a2u        14 a1g        15 eu      
    16 eu         17 eg         18 eg         19 a1g        20 eu      
    21 eu         22 eg         23 eg         24 b1g        25 b2g     
    26 b1u        27 b2u        28 a2u        29 a1g        30 a2u     
    31 a1g        32 eu         33 eu         34 eg         35 eg      
    36 a2u        37 a1g        38 a2u        39 eu         40 eu      
    41 eg         42 eg         43 a1g        44 a2u        45 a1g     


 Starting SCF solution at       1.3s



 ----------------------------------------------
         Quadratically convergent ROHF

 Convergence threshold     :          1.000E-08
 Maximum no. of iterations :           30
 Final Fock-matrix accuracy:          1.000E-10
 ----------------------------------------------


              iter       energy          gnorm     gmax       time
             ----- ------------------- --------- --------- --------
                 1    -5208.3218826636  4.03D+00  8.31D-01      2.6
                 2    -5208.3509751595  6.65D-01  1.86D-01      5.1
                 3    -5208.3548664365  3.86D-01  7.83D-02      6.4
                 4    -5208.3553810714  1.04D-02  5.45D-03      8.8
                 5    -5208.3553958785  3.17D-05  1.17D-05     12.7
                 6    -5208.3553958791  4.65D-07  1.88D-07     19.0
                 7    -5208.3553958791  9.21D-10  7.21D-10     20.7


       Final RHF  results 
       ------------------ 

         Total SCF energy =  -5208.355395879074
      One-electron energy =  -7675.252505181809
      Two-electron energy =   2250.816399294525
 Nuclear repulsion energy =    216.080710008210

        Time for solution =     19.4s



       Symmetry analysis of molecular orbitals - final
       -----------------------------------------------

  Numbering of irreducible representations: 

     1 a1g         2 a1u         3 a2g         4 a2u         5 b1g     
     6 b1u         7 b2g         8 b2u         9 eg         10 eu      

  Orbital symmetries:

     1 a2u         2 a1g         3 a2u         4 a1g         5 a2u     
     6 a1g         7 eg          8 eg          9 eu         10 eu      
    11 a1g        12 a2u        13 a1g        14 a2u        15 eu      
    16 eu         17 eg         18 eg         19 a1g        20 a2u     
    21 eu         22 eu         23 eg         24 eg         25 b1u     
    26 b2u        27 b1g        28 b2g        29 a1g        30 a2u     
    31 eu         32 eu         33 a1g        34 eg         35 eg      
    36 a2u        37 a1g        38 a2u        39 eu         40 eu      
    41 a1g        42 eg         43 eg         44 a2u        45 a1g     

             Final eigenvalues
             -----------------

              1      
    1 -498.1701
    2 -498.1701
    3  -67.1233
    4  -67.1233
    5  -59.0331
    6  -59.0331
    7  -59.0305
    8  -59.0305
    9  -59.0305
   10  -59.0305
   11  -10.2235
   12  -10.2235
   13   -7.5845
   14   -7.5845
   15   -7.5733
   16   -7.5733
   17   -7.5733
   18   -7.5733
   19   -3.1887
   20   -3.1884
   21   -3.1835
   22   -3.1835
   23   -3.1834
   24   -3.1834
   25   -3.1685
   26   -3.1685
   27   -3.1685
   28   -3.1685
   29   -1.0569
   30   -1.0193
   31   -0.4692
   32   -0.4692
   33   -0.4431
   34   -0.4414
   35   -0.4414
   36   -0.1256
   37    0.0314
   38    0.0431
   39    0.1174
   40    0.1174
   41    0.1340
   42    0.1388
   43    0.1388
   44    0.1607
   45    0.1707

                       ROHF Final Molecular Orbital Analysis
                       -------------------------------------

 Vector   26  Occ=2.000000D+00  E=-3.168533D+00  Symmetry=b2u
              MO Center= -1.6D-15, -7.7D-15,  2.2D-16, r^2= 2.4D+00
   Bfn.  Coefficient  Atom+Function         Bfn.  Coefficient  Atom+Function  
  ----- ------------  ---------------      ----- ------------  ---------------
    72      0.348226  1 Br d  2             166     -0.348226  2 Br d  2       
    67      0.258576  1 Br d  2             161     -0.258576  2 Br d  2       
    77      0.187006  1 Br d  2             171     -0.187006  2 Br d  2       

 Vector   27  Occ=2.000000D+00  E=-3.168530D+00  Symmetry=b1g
              MO Center=  1.3D-15, -2.5D-15, -3.3D-16, r^2= 2.4D+00
   Bfn.  Coefficient  Atom+Function         Bfn.  Coefficient  Atom+Function  
  ----- ------------  ---------------      ----- ------------  ---------------
    72      0.348223  1 Br d  2             166      0.348223  2 Br d  2       
    67      0.258578  1 Br d  2             161      0.258578  2 Br d  2       
    77      0.187016  1 Br d  2             171      0.187016  2 Br d  2       

 Vector   28  Occ=2.000000D+00  E=-3.168530D+00  Symmetry=b2g
              MO Center=  1.0D-14,  5.6D-15, -3.3D-16, r^2= 2.4D+00
   Bfn.  Coefficient  Atom+Function         Bfn.  Coefficient  Atom+Function  
  ----- ------------  ---------------      ----- ------------  ---------------
    68      0.348223  1 Br d -2             162      0.348223  2 Br d -2       
    63      0.258578  1 Br d -2             157      0.258578  2 Br d -2       
    73      0.187016  1 Br d -2             167      0.187016  2 Br d -2       

 Vector   29  Occ=2.000000D+00  E=-1.056908D+00  Symmetry=a1g
              MO Center= -1.3D-17,  1.4D-17,  1.5D-14, r^2= 3.0D+00
   Bfn.  Coefficient  Atom+Function         Bfn.  Coefficient  Atom+Function  
  ----- ------------  ---------------      ----- ------------  ---------------
    13      0.507424  1 Br s                107      0.507424  2 Br s          
    12     -0.341175  1 Br s                106     -0.341175  2 Br s          
    14      0.336572  1 Br s                108      0.336572  2 Br s          
    11     -0.182697  1 Br s                105     -0.182697  2 Br s          

 Vector   30  Occ=2.000000D+00  E=-1.019277D+00  Symmetry=a2u
              MO Center= -1.1D-15,  3.8D-16,  2.9D-14, r^2= 3.4D+00
   Bfn.  Coefficient  Atom+Function         Bfn.  Coefficient  Atom+Function  
  ----- ------------  ---------------      ----- ------------  ---------------
    13      0.532682  1 Br s                107     -0.532682  2 Br s          
    12     -0.352385  1 Br s                106      0.352385  2 Br s          
    14      0.337722  1 Br s                108     -0.337722  2 Br s          
    11     -0.188190  1 Br s                105      0.188190  2 Br s          

 Vector   31  Occ=2.000000D+00  E=-4.691881D-01  Symmetry=eu
              MO Center=  5.4D-14, -1.6D-14,  5.7D-12, r^2= 3.6D+00
   Bfn.  Coefficient  Atom+Function         Bfn.  Coefficient  Atom+Function  
  ----- ------------  ---------------      ----- ------------  ---------------
    44      0.403213  1 Br px               138      0.403213  2 Br px         
    47      0.346510  1 Br px               141      0.346510  2 Br px         
    38     -0.151813  1 Br px               132     -0.151813  2 Br px         

 Vector   32  Occ=2.000000D+00  E=-4.691881D-01  Symmetry=eu
              MO Center= -8.3D-16, -1.3D-14, -4.2D-13, r^2= 3.6D+00
   Bfn.  Coefficient  Atom+Function         Bfn.  Coefficient  Atom+Function  
  ----- ------------  ---------------      ----- ------------  ---------------
    45      0.403213  1 Br py               139      0.403213  2 Br py         
    48      0.346510  1 Br py               142      0.346510  2 Br py         
    39     -0.151813  1 Br py               133     -0.151813  2 Br py         

 Vector   33  Occ=2.000000D+00  E=-4.430521D-01  Symmetry=a1g
              MO Center= -4.9D-15,  5.8D-16, -1.3D-13, r^2= 3.4D+00
   Bfn.  Coefficient  Atom+Function         Bfn.  Coefficient  Atom+Function  
  ----- ------------  ---------------      ----- ------------  ---------------
    46      0.364155  1 Br pz               140     -0.364155  2 Br pz         
    49      0.350652  1 Br pz               143     -0.350652  2 Br pz         

 Vector   34  Occ=2.000000D+00  E=-4.414310D-01  Symmetry=eg
              MO Center= -1.9D-15,  1.1D-14,  4.3D-13, r^2= 3.8D+00
   Bfn.  Coefficient  Atom+Function         Bfn.  Coefficient  Atom+Function  
  ----- ------------  ---------------      ----- ------------  ---------------
    45      0.419819  1 Br py               139     -0.419819  2 Br py         
    48      0.363567  1 Br py               142     -0.363567  2 Br py         
    39     -0.157553  1 Br py               133      0.157553  2 Br py         

 Vector   35  Occ=2.000000D+00  E=-4.414310D-01  Symmetry=eg
              MO Center= -5.8D-15, -1.6D-15, -5.7D-12, r^2= 3.8D+00
   Bfn.  Coefficient  Atom+Function         Bfn.  Coefficient  Atom+Function  
  ----- ------------  ---------------      ----- ------------  ---------------
    44      0.419819  1 Br px               138     -0.419819  2 Br px         
    47      0.363567  1 Br px               141     -0.363567  2 Br px         
    38     -0.157553  1 Br px               132      0.157553  2 Br px         

 Vector   36  Occ=0.000000D+00  E=-1.255973D-01  Symmetry=a2u
              MO Center= -1.2D-14,  3.0D-15,  2.4D-13, r^2= 4.6D+00
   Bfn.  Coefficient  Atom+Function         Bfn.  Coefficient  Atom+Function  
  ----- ------------  ---------------      ----- ------------  ---------------
    49      0.429826  1 Br pz               143      0.429826  2 Br pz         
    46      0.405790  1 Br pz               140      0.405790  2 Br pz         
    52      0.164236  1 Br pz               146      0.164236  2 Br pz         
    40     -0.156286  1 Br pz               134     -0.156286  2 Br pz         

 Vector   37  Occ=0.000000D+00  E= 3.135822D-02  Symmetry=a1g
              MO Center=  2.2D-13, -7.0D-12,  1.3D-09, r^2= 2.2D+01
   Bfn.  Coefficient  Atom+Function         Bfn.  Coefficient  Atom+Function  
  ----- ------------  ---------------      ----- ------------  ---------------
    16      1.207210  1 Br s                110      1.207210  2 Br s          
    15     -0.868195  1 Br s                109     -0.868195  2 Br s          

 Vector   38  Occ=0.000000D+00  E= 4.312505D-02  Symmetry=a2u
              MO Center= -7.5D-16,  1.5D-16, -1.3D-09, r^2= 2.9D+01
   Bfn.  Coefficient  Atom+Function         Bfn.  Coefficient  Atom+Function  
  ----- ------------  ---------------      ----- ------------  ---------------
    16      2.753997  1 Br s                110     -2.753997  2 Br s          
    15     -1.065966  1 Br s                109      1.065966  2 Br s          
    52     -0.264029  1 Br pz               146     -0.264029  2 Br pz         

 Vector   39  Occ=0.000000D+00  E= 1.174151D-01  Symmetry=eu
              MO Center= -1.0D-12,  9.1D-14, -3.1D-15, r^2= 1.3D+01
   Bfn.  Coefficient  Atom+Function         Bfn.  Coefficient  Atom+Function  
  ----- ------------  ---------------      ----- ------------  ---------------
    50      0.721819  1 Br px               144      0.721819  2 Br px         
    47     -0.391984  1 Br px               141     -0.391984  2 Br px         

 Vector   40  Occ=0.000000D+00  E= 1.174151D-01  Symmetry=eu
              MO Center=  6.3D-13,  7.0D-12,  0.0D+00, r^2= 1.3D+01
   Bfn.  Coefficient  Atom+Function         Bfn.  Coefficient  Atom+Function  
  ----- ------------  ---------------      ----- ------------  ---------------
    51      0.721819  1 Br py               145      0.721819  2 Br py         
    48     -0.391984  1 Br py               142     -0.391984  2 Br py         

 Vector   41  Occ=0.000000D+00  E= 1.339705D-01  Symmetry=a1g
              MO Center=  9.9D-15, -1.7D-14, -1.7D-13, r^2= 1.6D+01
   Bfn.  Coefficient  Atom+Function         Bfn.  Coefficient  Atom+Function  
  ----- ------------  ---------------      ----- ------------  ---------------
    15      1.168853  1 Br s                109      1.168853  2 Br s          
    52      0.972523  1 Br pz               146     -0.972523  2 Br pz         
    16     -0.709949  1 Br s                110     -0.709949  2 Br s          
    49     -0.383334  1 Br pz               143      0.383334  2 Br pz         
    14     -0.163614  1 Br s                108     -0.163614  2 Br s          

 Vector   42  Occ=0.000000D+00  E= 1.387597D-01  Symmetry=eg
              MO Center=  3.1D-16,  2.5D-16,  1.3D-14, r^2= 1.6D+01
   Bfn.  Coefficient  Atom+Function         Bfn.  Coefficient  Atom+Function  
  ----- ------------  ---------------      ----- ------------  ---------------
    50      1.175940  1 Br px               144     -1.175940  2 Br px         
    51      0.426212  1 Br py               145     -0.426212  2 Br py         
    47     -0.363191  1 Br px               141      0.363191  2 Br px         

 Vector   43  Occ=0.000000D+00  E= 1.387597D-01  Symmetry=eg
              MO Center=  1.1D-16, -1.7D-16,  2.1D-14, r^2= 1.6D+01
   Bfn.  Coefficient  Atom+Function         Bfn.  Coefficient  Atom+Function  
  ----- ------------  ---------------      ----- ------------  ---------------
    51      1.175940  1 Br py               145     -1.175940  2 Br py         
    50     -0.426212  1 Br px               144      0.426212  2 Br px         
    48     -0.363191  1 Br py               142      0.363191  2 Br py         

 Vector   44  Occ=0.000000D+00  E= 1.607109D-01  Symmetry=a2u
              MO Center= -4.3D-16,  1.5D-16,  4.8D-12, r^2= 2.2D+01
   Bfn.  Coefficient  Atom+Function         Bfn.  Coefficient  Atom+Function  
  ----- ------------  ---------------      ----- ------------  ---------------
    52      3.448808  1 Br pz               146      3.448808  2 Br pz         
    16     -2.830316  1 Br s                110      2.830316  2 Br s          
    15     -2.133199  1 Br s                109      2.133199  2 Br s          
    49     -0.296154  1 Br pz               143     -0.296154  2 Br pz         
    85     -0.216014  1 Br d  0             179      0.216014  2 Br d  0       

 Vector   45  Occ=0.000000D+00  E= 1.706940D-01  Symmetry=a1g
              MO Center= -9.3D-14,  2.5D-14,  1.9D-13, r^2= 1.4D+01
   Bfn.  Coefficient  Atom+Function         Bfn.  Coefficient  Atom+Function  
  ----- ------------  ---------------      ----- ------------  ---------------
    15      2.130452  1 Br s                109      2.130452  2 Br s          
    16     -1.291549  1 Br s                110     -1.291549  2 Br s          
    14     -0.921208  1 Br s                108     -0.921208  2 Br s          
    49      0.179344  1 Br pz               143     -0.179344  2 Br pz         
    52     -0.163908  1 Br pz               146      0.163908  2 Br pz         

 Vector   46  Occ=0.000000D+00  E= 1.952061D-01  Symmetry=a2u
              MO Center= -2.3D-15,  6.9D-16, -4.7D-12, r^2= 1.5D+01
   Bfn.  Coefficient  Atom+Function         Bfn.  Coefficient  Atom+Function  
  ----- ------------  ---------------      ----- ------------  ---------------
    15      4.310845  1 Br s                109     -4.310845  2 Br s          
    16     -1.624778  1 Br s                110      1.624778  2 Br s          
    52     -1.239105  1 Br pz               146     -1.239105  2 Br pz         
    14     -0.968485  1 Br s                108      0.968485  2 Br s          
    49     -0.254262  1 Br pz               143     -0.254262  2 Br pz         

 Vector   47  Occ=0.000000D+00  E= 2.759980D-01  Symmetry=eu
              MO Center= -1.5D-14, -2.4D-14, -1.4D-14, r^2= 5.4D+00
   Bfn.  Coefficient  Atom+Function         Bfn.  Coefficient  Atom+Function  
  ----- ------------  ---------------      ----- ------------  ---------------
    84      0.487544  1 Br d -1             178     -0.487544  2 Br d -1       
    86     -0.299181  1 Br d  1             180      0.299181  2 Br d  1       

 Vector   48  Occ=0.000000D+00  E= 2.759980D-01  Symmetry=eu
              MO Center= -1.3D-14,  8.9D-15,  1.4D-12, r^2= 5.4D+00
   Bfn.  Coefficient  Atom+Function         Bfn.  Coefficient  Atom+Function  
  ----- ------------  ---------------      ----- ------------  ---------------
    86      0.487544  1 Br d  1             180     -0.487544  2 Br d  1       
    84      0.299181  1 Br d -1             178     -0.299181  2 Br d -1       

 Vector   49  Occ=0.000000D+00  E= 2.936111D-01  Symmetry=b2g
              MO Center=  3.6D-14, -2.2D-14,  1.2D-15, r^2= 5.7D+00
   Bfn.  Coefficient  Atom+Function         Bfn.  Coefficient  Atom+Function  
  ----- ------------  ---------------      ----- ------------  ---------------
    83      0.663018  1 Br d -2             177      0.663018  2 Br d -2       

 Vector   50  Occ=0.000000D+00  E= 2.936111D-01  Symmetry=b1g
              MO Center=  8.0D-15,  1.6D-14, -2.2D-16, r^2= 5.7D+00
   Bfn.  Coefficient  Atom+Function         Bfn.  Coefficient  Atom+Function  
  ----- ------------  ---------------      ----- ------------  ---------------
    87      0.663018  1 Br d  2             181      0.663018  2 Br d  2       

 Vector   51  Occ=0.000000D+00  E= 3.514309D-01  Symmetry=b2u
              MO Center=  1.8D-16,  5.5D-16,  3.3D-16, r^2= 6.2D+00
   Bfn.  Coefficient  Atom+Function         Bfn.  Coefficient  Atom+Function  
  ----- ------------  ---------------      ----- ------------  ---------------
    87      0.736030  1 Br d  2             181     -0.736030  2 Br d  2       

 Vector   52  Occ=0.000000D+00  E= 3.514309D-01  Symmetry=b1u
              MO Center= -3.8D-17,  2.4D-16, -1.3D-15, r^2= 6.2D+00
   Bfn.  Coefficient  Atom+Function         Bfn.  Coefficient  Atom+Function  
  ----- ------------  ---------------      ----- ------------  ---------------
    83      0.736030  1 Br d -2             177     -0.736030  2 Br d -2       

 Vector   53  Occ=0.000000D+00  E= 3.752237D-01  Symmetry=a1g
              MO Center= -1.0D-13,  1.3D-14,  1.4D-11, r^2= 7.1D+00
   Bfn.  Coefficient  Atom+Function         Bfn.  Coefficient  Atom+Function  
  ----- ------------  ---------------      ----- ------------  ---------------
    85      0.675900  1 Br d  0             179      0.675900  2 Br d  0       
    52     -0.514950  1 Br pz               146      0.514950  2 Br pz         
    49      0.446942  1 Br pz               143     -0.446942  2 Br pz         
    15     -0.189443  1 Br s                109     -0.189443  2 Br s          
    14     -0.177640  1 Br s                108     -0.177640  2 Br s          

 Vector   54  Occ=0.000000D+00  E= 4.402138D-01  Symmetry=eg
              MO Center= -4.1D-15,  7.2D-14, -9.3D-14, r^2= 7.7D+00
   Bfn.  Coefficient  Atom+Function         Bfn.  Coefficient  Atom+Function  
  ----- ------------  ---------------      ----- ------------  ---------------
    84      0.985570  1 Br d -1             178      0.985570  2 Br d -1       
    51     -0.503447  1 Br py               145      0.503447  2 Br py         

 Vector   55  Occ=0.000000D+00  E= 4.402138D-01  Symmetry=eg
              MO Center= -2.0D-13, -1.2D-14, -2.4D-12, r^2= 7.7D+00
   Bfn.  Coefficient  Atom+Function         Bfn.  Coefficient  Atom+Function  
  ----- ------------  ---------------      ----- ------------  ---------------
    86      0.985570  1 Br d  1             180      0.985570  2 Br d  1       
    50      0.503447  1 Br px               144     -0.503447  2 Br px         

 Vector   56  Occ=0.000000D+00  E= 4.648618D-01  Symmetry=a2u
              MO Center=  1.3D-13, -7.9D-14, -1.4D-11, r^2= 1.0D+01
   Bfn.  Coefficient  Atom+Function         Bfn.  Coefficient  Atom+Function  
  ----- ------------  ---------------      ----- ------------  ---------------
    15      3.710297  1 Br s                109     -3.710297  2 Br s          
    52     -2.470532  1 Br pz               146     -2.470532  2 Br pz         
    85      1.386653  1 Br d  0             179     -1.386653  2 Br d  0       
    16      0.529628  1 Br s                110     -0.529628  2 Br s          
    49     -0.490118  1 Br pz               143     -0.490118  2 Br pz         

 Vector   57  Occ=0.000000D+00  E= 7.685530D-01  Symmetry=eu
              MO Center=  1.9D-13, -1.2D-13,  1.1D-12, r^2= 6.1D+00
   Bfn.  Coefficient  Atom+Function         Bfn.  Coefficient  Atom+Function  
  ----- ------------  ---------------      ----- ------------  ---------------
    47      0.974957  1 Br px               141      0.974957  2 Br px         
    44     -0.867962  1 Br px               138     -0.867962  2 Br px         
    48     -0.630280  1 Br py               142     -0.630280  2 Br py         
    45      0.561111  1 Br py               139      0.561111  2 Br py         
    50     -0.313286  1 Br px               144     -0.313286  2 Br px         


 center of mass
 --------------
 x =   0.00000000 y =   0.00000000 z =   0.00000000

 moments of inertia (a.u.)
 ------------------
        1284.241324874075           0.000000000000           0.000000000000
           0.000000000000        1284.241324874075           0.000000000000
           0.000000000000           0.000000000000           0.000000000000

  Mulliken analysis of the total density
  --------------------------------------

    Atom       Charge   Shell Charges
 -----------   ------   -------------------------------------------------------
    1 Br  35    35.00   0.00  0.00  0.01  0.05  0.20  0.56  0.80  0.34  0.94  1.04  0.89  1.13  1.18  0.84  0.01 -0.00  0.00  0.02  0.21  1.16  2.61  1.84  1.49  3.31  1.40
  2.48  2.38  0.06  0.04  0.65  3.01  4.54  1.74  0.05  0.01  0.00
    2 Br  35    35.00   0.00  0.00  0.01  0.05  0.20  0.56  0.80  0.34  0.94  1.04  0.89  1.13  1.18  0.84  0.01 -0.00  0.00  0.02  0.21  1.16  2.61  1.84  1.49  3.31  1.40
  2.48  2.38  0.06  0.04  0.65  3.01  4.54  1.74  0.05  0.01  0.00

       Multipole analysis of the density wrt the origin
       ------------------------------------------------

     L   x y z        total         open         nuclear
     -   - - -        -----         ----         -------
     0   0 0 0     -0.000000      0.000000     70.000000

     1   1 0 0     -0.000000      0.000000      0.000000
     1   0 1 0      0.000000      0.000000      0.000000
     1   0 0 1      0.000000      0.000000      0.000000

     2   2 0 0    -28.147421      0.000000      0.000000
     2   1 1 0      0.000000      0.000000      0.000000
     2   1 0 1      0.000000      0.000000      0.000000
     2   0 2 0    -28.147421      0.000000      0.000000
     2   0 1 1     -0.000000      0.000000      0.000000
     2   0 0 2    -22.422198      0.000000    562.442629


 Task  times  cpu:       20.8s     wall:       20.8s


                                NWChem Input Module
                                -------------------


                                 NWChem SCF Module
                                 -----------------



  ao basis        = "ao basis"
  functions       =   188
  atoms           =     2
  closed shells   =    35
  open shells     =     0
  charge          =   0.00
  wavefunction    = RHF 
  input vectors   = ./br2.movecs
  output vectors  = ./br2.movecs
  use symmetry    = T
  symmetry adapt  = T


 Summary of "ao basis" -> "ao basis" (spherical)
 ------------------------------------------------------------------------------
       Tag                 Description            Shells   Functions and Types
 ---------------- ------------------------------  ------  ---------------------
 br                      user specified             36       94   16s12p7d1f


      Symmetry analysis of basis
      --------------------------

        a1g        36
        a1u         0
        a2g         0
        a2u        36
        b1g         8
        b1u         8
        b2g         8
        b2u         8
        eg         42
        eu         42


  The SCF is already converged 

         Total SCF energy =  -5208.355395879074

                              NWChem Gradients Module
                              -----------------------



  wavefunction    =   RHF     

  Using symmetry
                              Douglas-Kroll gradients
                              -----------------------

            The Douglas-Kroll correction to the gradient is 
            computed numerically and added to the analytical 
            non-relativistic gradients.


                         NWChem Numerical Gradients Module
                         ---------------------------------


 No. of totally-symmetric internal modes =   1

 Finite difference step  1.00000D-02
 Use five point formula T

 step   1 +2        -102.91416535
 step   1 +1        -102.91416511
 step   1 -1        -102.91416463
 step   1 -2        -102.91416439
            gradient        -0.000024 (3pt was -0.000024)


                         DOUGLAS-KROLL CORRECTION TO ENERGY GRADIENTS

    atom               coordinates                        gradient
                 x          y          z           x          y          z
   1 br      0.000000   0.000000   2.834589    0.000000   0.000000  -0.000017
   2 br      0.000000   0.000000  -2.834589    0.000000   0.000000   0.000017




                         RHF ENERGY GRADIENTS

    atom               coordinates                        gradient
                 x          y          z           x          y          z
   1 br      0.000000   0.000000   2.834589    0.000000   0.000000   0.063438
   2 br      0.000000   0.000000  -2.834589    0.000000   0.000000  -0.063438

                 ----------------------------------------
                 |  Time  |  1-e(secs)   |  2-e(secs)   |
                 ----------------------------------------
                 |  CPU   |       1.27   |       4.02   |
                 ----------------------------------------
                 |  WALL  |       1.28   |       4.02   |
                 ----------------------------------------

 Task  times  cpu:        5.3s     wall:        5.3s


                                NWChem Input Module
                                -------------------


                         NWChem Numerical Gradients Module
                         ---------------------------------


 No. of totally-symmetric internal modes =   1

                                 NWChem SCF Module
                                 -----------------



  ao basis        = "ao basis"
  functions       =   188
  atoms           =     2
  closed shells   =    35
  open shells     =     0
  charge          =   0.00
  wavefunction    = RHF 
  input vectors   = ./br2.movecs
  output vectors  = ./br2.movecs
  use symmetry    = T
  symmetry adapt  = T


 Summary of "ao basis" -> "ao basis" (spherical)
 ------------------------------------------------------------------------------
       Tag                 Description            Shells   Functions and Types
 ---------------- ------------------------------  ------  ---------------------
 br                      user specified             36       94   16s12p7d1f


      Symmetry analysis of basis
      --------------------------

        a1g        36
        a1u         0
        a2g         0
        a2u        36
        b1g         8
        b1u         8
        b2g         8
        b2u         8
        eg         42
        eu         42


  The SCF is already converged 

         Total SCF energy =  -5208.355395879074

 Reference energy       -5208.35539588


 Saving state for scf with suffix numg
        ./br2.movecs

 Finite difference step  1.00000D-02
 Use five point formula T

                                 NWChem SCF Module
                                 -----------------



  ao basis        = "ao basis"
  functions       =   188
  atoms           =     2
  closed shells   =    35
  open shells     =     0
  charge          =   0.00
  wavefunction    = RHF 
  input vectors   = ./br2.movecs
  output vectors  = ./br2.movecs
  use symmetry    = T
  symmetry adapt  = T


 Summary of "ao basis" -> "ao basis" (spherical)
 ------------------------------------------------------------------------------
       Tag                 Description            Shells   Functions and Types
 ---------------- ------------------------------  ------  ---------------------
 br                      user specified             36       94   16s12p7d1f


      Symmetry analysis of basis
      --------------------------

        a1g        36
        a1u         0
        a2g         0
        a2u        36
        b1g         8
        b1u         8
        b2g         8
        b2u         8
        eg         42
        eu         42


 Forming initial guess at      26.5s


 Loading old vectors from job with title :




      Symmetry analysis of molecular orbitals - initial
      -------------------------------------------------

  Numbering of irreducible representations: 

     1 a1g         2 a1u         3 a2g         4 a2u         5 b1g     
     6 b1u         7 b2g         8 b2u         9 eg         10 eu      

  Orbital symmetries:

     1 a2u         2 a1g         3 a2u         4 a1g         5 a2u     
     6 a1g         7 eg          8 eg          9 eu         10 eu      
    11 a1g        12 a2u        13 a1g        14 a2u        15 eu      
    16 eu         17 eg         18 eg         19 a1g        20 a2u     
    21 eu         22 eu         23 eg         24 eg         25 b1u     
    26 b2u        27 b1g        28 b2g        29 a1g        30 a2u     
    31 eu         32 eu         33 a1g        34 eg         35 eg      
    36 a2u        37 a1g        38 a2u        39 eu         40 eu      
    41 a1g        42 eg         43 eg         44 a2u        45 a1g     


 Starting SCF solution at      26.6s



 ----------------------------------------------
         Quadratically convergent ROHF

 Convergence threshold     :          1.000E-08
 Maximum no. of iterations :           30
 Final Fock-matrix accuracy:          1.000E-10
 ----------------------------------------------


              iter       energy          gnorm     gmax       time
             ----- ------------------- --------- --------- --------
                 1    -5208.3536026456  8.51D-03  3.60D-03     27.9
                 2    -5208.3536070811  2.66D-05  8.70D-06     31.9
                 3    -5208.3536070814  7.18D-07  4.90D-07     38.3
                 4    -5208.3536070816  2.85D-09  1.12D-09     40.0


       Final RHF  results 
       ------------------ 

         Total SCF energy =  -5208.353607081596
      One-electron energy =  -7673.098458218782
      Two-electron energy =   2249.736844230637
 Nuclear repulsion energy =    215.008006906549

        Time for solution =     13.4s



       Symmetry analysis of molecular orbitals - final
       -----------------------------------------------

  Numbering of irreducible representations: 

     1 a1g         2 a1u         3 a2g         4 a2u         5 b1g     
     6 b1u         7 b2g         8 b2u         9 eg         10 eu      

  Orbital symmetries:

     1 a2u         2 a1g         3 a2u         4 a1g         5 a2u     
     6 a1g         7 eg          8 eg          9 eu         10 eu      
    11 a1g        12 a2u        13 a1g        14 a2u        15 eu      
    16 eu         17 eg         18 eg         19 a1g        20 a2u     
    21 eu         22 eu         23 eg         24 eg         25 b2u     
    26 b1u        27 b1g        28 b2g        29 a1g        30 a2u     
    31 eu         32 eu         33 eg         34 eg         35 a1g     
    36 a2u        37 a1g        38 a2u        39 eu         40 eu      
    41 a1g        42 eg         43 eg         44 a2u        45 a1g     

             Final eigenvalues
             -----------------

              1      
    1 -498.1702
    2 -498.1702
    3  -67.1235
    4  -67.1235
    5  -59.0333
    6  -59.0333
    7  -59.0306
    8  -59.0306
    9  -59.0306
   10  -59.0306
   11  -10.2237
   12  -10.2237
   13   -7.5847
   14   -7.5847
   15   -7.5734
   16   -7.5734
   17   -7.5734
   18   -7.5734
   19   -3.1888
   20   -3.1886
   21   -3.1837
   22   -3.1837
   23   -3.1836
   24   -3.1836
   25   -3.1687
   26   -3.1687
   27   -3.1687
   28   -3.1687
   29   -1.0563
   30   -1.0197
   31   -0.4689
   32   -0.4689
   33   -0.4418
   34   -0.4418
   35   -0.4415
   36   -0.1273
   37    0.0313
   38    0.0431
   39    0.1173
   40    0.1173
   41    0.1341
   42    0.1387
   43    0.1387
   44    0.1607
   45    0.1707

                       ROHF Final Molecular Orbital Analysis
                       -------------------------------------

 Vector   26  Occ=2.000000D+00  E=-3.168660D+00  Symmetry=b1u
              MO Center=  7.0D-16, -4.3D-15,  6.7D-16, r^2= 2.4D+00
   Bfn.  Coefficient  Atom+Function         Bfn.  Coefficient  Atom+Function  
  ----- ------------  ---------------      ----- ------------  ---------------
    68      0.348226  1 Br d -2             162     -0.348226  2 Br d -2       
    63      0.258577  1 Br d -2             157     -0.258577  2 Br d -2       
    73      0.187005  1 Br d -2             167     -0.187005  2 Br d -2       

 Vector   27  Occ=2.000000D+00  E=-3.168657D+00  Symmetry=b1g
              MO Center=  1.3D-15, -2.5D-15,  2.2D-16, r^2= 2.4D+00
   Bfn.  Coefficient  Atom+Function         Bfn.  Coefficient  Atom+Function  
  ----- ------------  ---------------      ----- ------------  ---------------
    72      0.348223  1 Br d  2             166      0.348223  2 Br d  2       
    67      0.258578  1 Br d  2             161      0.258578  2 Br d  2       
    77      0.187015  1 Br d  2             171      0.187015  2 Br d  2       

 Vector   28  Occ=2.000000D+00  E=-3.168657D+00  Symmetry=b2g
              MO Center=  1.0D-14,  5.6D-15, -7.8D-16, r^2= 2.4D+00
   Bfn.  Coefficient  Atom+Function         Bfn.  Coefficient  Atom+Function  
  ----- ------------  ---------------      ----- ------------  ---------------
    68      0.348223  1 Br d -2             162      0.348223  2 Br d -2       
    63      0.258578  1 Br d -2             157      0.258578  2 Br d -2       
    73      0.187015  1 Br d -2             167      0.187015  2 Br d -2       

 Vector   29  Occ=2.000000D+00  E=-1.056337D+00  Symmetry=a1g
              MO Center= -1.2D-17,  1.3D-17,  1.4D-14, r^2= 3.0D+00
   Bfn.  Coefficient  Atom+Function         Bfn.  Coefficient  Atom+Function  
  ----- ------------  ---------------      ----- ------------  ---------------
    13      0.507851  1 Br s                107      0.507851  2 Br s          
    12     -0.341357  1 Br s                106     -0.341357  2 Br s          
    14      0.336599  1 Br s                108      0.336599  2 Br s          
    11     -0.182801  1 Br s                105     -0.182801  2 Br s          

 Vector   30  Occ=2.000000D+00  E=-1.019709D+00  Symmetry=a2u
              MO Center= -1.2D-15,  3.7D-16,  2.9D-14, r^2= 3.4D+00
   Bfn.  Coefficient  Atom+Function         Bfn.  Coefficient  Atom+Function  
  ----- ------------  ---------------      ----- ------------  ---------------
    13      0.532604  1 Br s                107     -0.532604  2 Br s          
    12     -0.352332  1 Br s                106      0.352332  2 Br s          
    14      0.337596  1 Br s                108     -0.337596  2 Br s          
    11     -0.188161  1 Br s                105      0.188161  2 Br s          

 Vector   31  Occ=2.000000D+00  E=-4.688724D-01  Symmetry=eu
              MO Center=  2.8D-16, -3.0D-17,  3.6D-15, r^2= 3.6D+00
   Bfn.  Coefficient  Atom+Function         Bfn.  Coefficient  Atom+Function  
  ----- ------------  ---------------      ----- ------------  ---------------
    44      0.406462  1 Br px               138      0.406462  2 Br px         
    47      0.349299  1 Br px               141      0.349299  2 Br px         
    38     -0.153024  1 Br px               132     -0.153024  2 Br px         

 Vector   32  Occ=2.000000D+00  E=-4.688724D-01  Symmetry=eu
              MO Center= -9.8D-17, -1.3D-14, -3.9D-13, r^2= 3.6D+00
   Bfn.  Coefficient  Atom+Function         Bfn.  Coefficient  Atom+Function  
  ----- ------------  ---------------      ----- ------------  ---------------
    45      0.406462  1 Br py               139      0.406462  2 Br py         
    48      0.349299  1 Br py               142      0.349299  2 Br py         
    39     -0.153024  1 Br py               133     -0.153024  2 Br py         

 Vector   33  Occ=2.000000D+00  E=-4.418353D-01  Symmetry=eg
              MO Center=  4.7D-17, -5.0D-16,  6.1D-14, r^2= 3.8D+00
   Bfn.  Coefficient  Atom+Function         Bfn.  Coefficient  Atom+Function  
  ----- ------------  ---------------      ----- ------------  ---------------
    45      0.416701  1 Br py               139     -0.416701  2 Br py         
    48      0.360653  1 Br py               142     -0.360653  2 Br py         
    39     -0.156377  1 Br py               133      0.156377  2 Br py         

 Vector   34  Occ=2.000000D+00  E=-4.418353D-01  Symmetry=eg
              MO Center= -6.3D-16, -4.4D-16,  3.2D-13, r^2= 3.8D+00
   Bfn.  Coefficient  Atom+Function         Bfn.  Coefficient  Atom+Function  
  ----- ------------  ---------------      ----- ------------  ---------------
    44      0.416701  1 Br px               138     -0.416701  2 Br px         
    47      0.360653  1 Br px               141     -0.360653  2 Br px         
    38     -0.156377  1 Br px               132      0.156377  2 Br px         

 Vector   35  Occ=2.000000D+00  E=-4.415293D-01  Symmetry=a1g
              MO Center=  4.6D-17,  6.1D-17, -6.7D-15, r^2= 3.4D+00
   Bfn.  Coefficient  Atom+Function         Bfn.  Coefficient  Atom+Function  
  ----- ------------  ---------------      ----- ------------  ---------------
    46      0.363883  1 Br pz               140     -0.363883  2 Br pz         
    49      0.351290  1 Br pz               143     -0.351290  2 Br pz         

 Vector   36  Occ=0.000000D+00  E=-1.272633D-01  Symmetry=a2u
              MO Center= -9.5D-15,  1.7D-15,  1.5D-13, r^2= 4.6D+00
   Bfn.  Coefficient  Atom+Function         Bfn.  Coefficient  Atom+Function  
  ----- ------------  ---------------      ----- ------------  ---------------
    49      0.428902  1 Br pz               143      0.428902  2 Br pz         
    46      0.405719  1 Br pz               140      0.405719  2 Br pz         
    52      0.161350  1 Br pz               146      0.161350  2 Br pz         
    40     -0.156283  1 Br pz               134     -0.156283  2 Br pz         

 Vector   37  Occ=0.000000D+00  E= 3.133711D-02  Symmetry=a1g
              MO Center=  5.9D-16,  3.2D-15, -1.1D-15, r^2= 2.2D+01
   Bfn.  Coefficient  Atom+Function         Bfn.  Coefficient  Atom+Function  
  ----- ------------  ---------------      ----- ------------  ---------------
    16      1.207523  1 Br s                110      1.207523  2 Br s          
    15     -0.867965  1 Br s                109     -0.867965  2 Br s          

 Vector   38  Occ=0.000000D+00  E= 4.308429D-02  Symmetry=a2u
              MO Center= -7.3D-16,  1.5D-16,  1.2D-14, r^2= 2.9D+01
   Bfn.  Coefficient  Atom+Function         Bfn.  Coefficient  Atom+Function  
  ----- ------------  ---------------      ----- ------------  ---------------
    16      2.742479  1 Br s                110     -2.742479  2 Br s          
    15     -1.067838  1 Br s                109      1.067838  2 Br s          
    52     -0.260511  1 Br pz               146     -0.260511  2 Br pz         

 Vector   39  Occ=0.000000D+00  E= 1.173427D-01  Symmetry=eu
              MO Center=  1.9D-15,  2.2D-14, -4.4D-16, r^2= 1.3D+01
   Bfn.  Coefficient  Atom+Function         Bfn.  Coefficient  Atom+Function  
  ----- ------------  ---------------      ----- ------------  ---------------
    51      0.722325  1 Br py               145      0.722325  2 Br py         
    48     -0.391860  1 Br py               142     -0.391860  2 Br py         

 Vector   40  Occ=0.000000D+00  E= 1.173427D-01  Symmetry=eu
              MO Center= -4.9D-17,  2.8D-16,  3.3D-16, r^2= 1.3D+01
   Bfn.  Coefficient  Atom+Function         Bfn.  Coefficient  Atom+Function  
  ----- ------------  ---------------      ----- ------------  ---------------
    50      0.722325  1 Br px               144      0.722325  2 Br px         
    47     -0.391860  1 Br px               141     -0.391860  2 Br px         

 Vector   41  Occ=0.000000D+00  E= 1.340989D-01  Symmetry=a1g
              MO Center= -1.5D-15, -1.5D-14,  8.9D-15, r^2= 1.6D+01
   Bfn.  Coefficient  Atom+Function         Bfn.  Coefficient  Atom+Function  
  ----- ------------  ---------------      ----- ------------  ---------------
    15      1.175965  1 Br s                109      1.175965  2 Br s          
    52      0.968536  1 Br pz               146     -0.968536  2 Br pz         
    16     -0.714174  1 Br s                110     -0.714174  2 Br s          
    49     -0.384154  1 Br pz               143      0.384154  2 Br pz         
    14     -0.168063  1 Br s                108     -0.168063  2 Br s          

 Vector   42  Occ=0.000000D+00  E= 1.387427D-01  Symmetry=eg
              MO Center=  3.1D-16,  2.5D-16,  8.9D-16, r^2= 1.6D+01
   Bfn.  Coefficient  Atom+Function         Bfn.  Coefficient  Atom+Function  
  ----- ------------  ---------------      ----- ------------  ---------------
    50      1.171962  1 Br px               144     -1.171962  2 Br px         
    51      0.424741  1 Br py               145     -0.424741  2 Br py         
    47     -0.363554  1 Br px               141      0.363554  2 Br px         

 Vector   43  Occ=0.000000D+00  E= 1.387427D-01  Symmetry=eg
              MO Center=  4.4D-16, -1.2D-15,  7.1D-15, r^2= 1.6D+01
   Bfn.  Coefficient  Atom+Function         Bfn.  Coefficient  Atom+Function  
  ----- ------------  ---------------      ----- ------------  ---------------
    51      1.171962  1 Br py               145     -1.171962  2 Br py         
    50     -0.424741  1 Br px               144      0.424741  2 Br px         
    48     -0.363554  1 Br py               142      0.363554  2 Br py         

 Vector   44  Occ=0.000000D+00  E= 1.606745D-01  Symmetry=a2u
              MO Center= -4.4D-16,  1.5D-16,  1.5D-14, r^2= 2.2D+01
   Bfn.  Coefficient  Atom+Function         Bfn.  Coefficient  Atom+Function  
  ----- ------------  ---------------      ----- ------------  ---------------
    52      3.417125  1 Br pz               146      3.417125  2 Br pz         
    16     -2.820766  1 Br s                110      2.820766  2 Br s          
    15     -2.058800  1 Br s                109      2.058800  2 Br s          
    49     -0.299747  1 Br pz               143     -0.299747  2 Br pz         
    85     -0.213483  1 Br d  0             179      0.213483  2 Br d  0       

 Vector   45  Occ=0.000000D+00  E= 1.706720D-01  Symmetry=a1g
              MO Center=  1.4D-15,  3.6D-15,  2.0D-14, r^2= 1.4D+01
   Bfn.  Coefficient  Atom+Function         Bfn.  Coefficient  Atom+Function  
  ----- ------------  ---------------      ----- ------------  ---------------
    15      2.126799  1 Br s                109      2.126799  2 Br s          
    16     -1.289684  1 Br s                110     -1.289684  2 Br s          
    14     -0.919026  1 Br s                108     -0.919026  2 Br s          
    49      0.183032  1 Br pz               143     -0.183032  2 Br pz         
    52     -0.168600  1 Br pz               146      0.168600  2 Br pz         

 Vector   46  Occ=0.000000D+00  E= 1.951460D-01  Symmetry=a2u
              MO Center= -2.2D-15,  6.5D-16,  2.8D-14, r^2= 1.5D+01
   Bfn.  Coefficient  Atom+Function         Bfn.  Coefficient  Atom+Function  
  ----- ------------  ---------------      ----- ------------  ---------------
    15      4.272804  1 Br s                109     -4.272804  2 Br s          
    16     -1.619093  1 Br s                110      1.619093  2 Br s          
    52     -1.228022  1 Br pz               146     -1.228022  2 Br pz         
    14     -0.971659  1 Br s                108      0.971659  2 Br s          
    49     -0.246131  1 Br pz               143     -0.246131  2 Br pz         

 Vector   47  Occ=0.000000D+00  E= 2.757465D-01  Symmetry=eu
              MO Center=  6.2D-15,  2.8D-14,  1.8D-12, r^2= 5.4D+00
   Bfn.  Coefficient  Atom+Function         Bfn.  Coefficient  Atom+Function  
  ----- ------------  ---------------      ----- ------------  ---------------
    86      0.572984  1 Br d  1             180     -0.572984  2 Br d  1       

 Vector   48  Occ=0.000000D+00  E= 2.757465D-01  Symmetry=eu
              MO Center= -3.9D-14, -3.5D-14, -4.1D-13, r^2= 5.4D+00
   Bfn.  Coefficient  Atom+Function         Bfn.  Coefficient  Atom+Function  
  ----- ------------  ---------------      ----- ------------  ---------------
    84      0.572984  1 Br d -1             178     -0.572984  2 Br d -1       

 Vector   49  Occ=0.000000D+00  E= 2.939071D-01  Symmetry=b1g
              MO Center=  1.3D-14,  1.6D-14, -1.1D-16, r^2= 5.7D+00
   Bfn.  Coefficient  Atom+Function         Bfn.  Coefficient  Atom+Function  
  ----- ------------  ---------------      ----- ------------  ---------------
    87      0.663904  1 Br d  2             181      0.663904  2 Br d  2       

 Vector   50  Occ=0.000000D+00  E= 2.939071D-01  Symmetry=b2g
              MO Center=  3.6D-14, -2.8D-14,  1.1D-15, r^2= 5.7D+00
   Bfn.  Coefficient  Atom+Function         Bfn.  Coefficient  Atom+Function  
  ----- ------------  ---------------      ----- ------------  ---------------
    83      0.663904  1 Br d -2             177      0.663904  2 Br d -2       

 Vector   51  Occ=0.000000D+00  E= 3.509532D-01  Symmetry=b2u
              MO Center=  2.0D-16,  5.6D-16,  4.4D-16, r^2= 6.2D+00
   Bfn.  Coefficient  Atom+Function         Bfn.  Coefficient  Atom+Function  
  ----- ------------  ---------------      ----- ------------  ---------------
    87      0.734884  1 Br d  2             181     -0.734884  2 Br d  2       

 Vector   52  Occ=0.000000D+00  E= 3.509532D-01  Symmetry=b1u
              MO Center= -3.8D-17,  2.3D-16, -1.7D-15, r^2= 6.2D+00
   Bfn.  Coefficient  Atom+Function         Bfn.  Coefficient  Atom+Function  
  ----- ------------  ---------------      ----- ------------  ---------------
    83      0.734884  1 Br d -2             177     -0.734884  2 Br d -2       

 Vector   53  Occ=0.000000D+00  E= 3.739619D-01  Symmetry=a1g
              MO Center= -9.2D-14,  1.2D-14,  1.4D-11, r^2= 7.0D+00
   Bfn.  Coefficient  Atom+Function         Bfn.  Coefficient  Atom+Function  
  ----- ------------  ---------------      ----- ------------  ---------------
    85      0.671146  1 Br d  0             179      0.671146  2 Br d  0       
    52     -0.508334  1 Br pz               146      0.508334  2 Br pz         
    49      0.441841  1 Br pz               143     -0.441841  2 Br pz         
    15     -0.198648  1 Br s                109     -0.198648  2 Br s          
    16      0.177759  1 Br s                110      0.177759  2 Br s          

 Vector   54  Occ=0.000000D+00  E= 4.392167D-01  Symmetry=eg
              MO Center= -2.3D-13,  8.0D-15, -2.4D-12, r^2= 7.7D+00
   Bfn.  Coefficient  Atom+Function         Bfn.  Coefficient  Atom+Function  
  ----- ------------  ---------------      ----- ------------  ---------------
    86      0.980416  1 Br d  1             180      0.980416  2 Br d  1       
    50      0.499264  1 Br px               144     -0.499264  2 Br px         

 Vector   55  Occ=0.000000D+00  E= 4.392167D-01  Symmetry=eg
              MO Center=  1.5D-15,  6.7D-14,  8.6D-14, r^2= 7.7D+00
   Bfn.  Coefficient  Atom+Function         Bfn.  Coefficient  Atom+Function  
  ----- ------------  ---------------      ----- ------------  ---------------
    84      0.980416  1 Br d -1             178      0.980416  2 Br d -1       
    51     -0.499264  1 Br py               145      0.499264  2 Br py         

 Vector   56  Occ=0.000000D+00  E= 4.646862D-01  Symmetry=a2u
              MO Center=  1.3D-13, -6.8D-14, -1.3D-11, r^2= 1.0D+01
   Bfn.  Coefficient  Atom+Function         Bfn.  Coefficient  Atom+Function  
  ----- ------------  ---------------      ----- ------------  ---------------
    15      3.652803  1 Br s                109     -3.652803  2 Br s          
    52     -2.451943  1 Br pz               146     -2.451943  2 Br pz         
    85      1.380271  1 Br d  0             179     -1.380271  2 Br d  0       
    16      0.529744  1 Br s                110     -0.529744  2 Br s          
    49     -0.469979  1 Br pz               143     -0.469979  2 Br pz         

 Vector   57  Occ=0.000000D+00  E= 7.684949D-01  Symmetry=eu
              MO Center=  5.9D-14,  1.6D-15,  5.6D-13, r^2= 6.1D+00
   Bfn.  Coefficient  Atom+Function         Bfn.  Coefficient  Atom+Function  
  ----- ------------  ---------------      ----- ------------  ---------------
    47      1.160957  1 Br px               141      1.160957  2 Br px         
    44     -1.033158  1 Br px               138     -1.033158  2 Br px         
    50     -0.373300  1 Br px               144     -0.373300  2 Br px         


 center of mass
 --------------
 x =   0.00000000 y =   0.00000000 z =   0.00000000

 moments of inertia (a.u.)
 ------------------
        1297.087787755353           0.000000000000           0.000000000000
           0.000000000000        1297.087787755353           0.000000000000
           0.000000000000           0.000000000000           0.000000000000

  Mulliken analysis of the total density
  --------------------------------------

    Atom       Charge   Shell Charges
 -----------   ------   -------------------------------------------------------
    1 Br  35    35.00   0.00  0.00  0.01  0.05  0.20  0.56  0.80  0.34  0.94  1.04  0.89  1.13  1.18  0.84  0.01 -0.00  0.00  0.02  0.21  1.16  2.61  1.84  1.49  3.31  1.40
  2.48  2.38  0.06  0.04  0.65  3.01  4.54  1.74  0.05  0.01  0.00
    2 Br  35    35.00   0.00  0.00  0.01  0.05  0.20  0.56  0.80  0.34  0.94  1.04  0.89  1.13  1.18  0.84  0.01 -0.00  0.00  0.02  0.21  1.16  2.61  1.84  1.49  3.31  1.40
  2.48  2.38  0.06  0.04  0.65  3.01  4.54  1.74  0.05  0.01  0.00

       Multipole analysis of the density wrt the origin
       ------------------------------------------------

     L   x y z        total         open         nuclear
     -   - - -        -----         ----         -------
     0   0 0 0     -0.000000      0.000000     70.000000

     1   1 0 0     -0.000000      0.000000      0.000000
     1   0 1 0      0.000000      0.000000      0.000000
     1   0 0 1      0.000000      0.000000      0.000000

     2   2 0 0    -28.153060      0.000000      0.000000
     2   1 1 0      0.000000      0.000000      0.000000
     2   1 0 1      0.000000      0.000000      0.000000
     2   0 2 0    -28.153060      0.000000      0.000000
     2   0 1 1     -0.000000      0.000000      0.000000
     2   0 0 2    -22.405126      0.000000    568.068829

 step   1 +2       -5208.35360708
                                 NWChem SCF Module
                                 -----------------



  ao basis        = "ao basis"
  functions       =   188
  atoms           =     2
  closed shells   =    35
  open shells     =     0
  charge          =   0.00
  wavefunction    = RHF 
  input vectors   = ./br2.movecs
  output vectors  = ./br2.movecs
  use symmetry    = T
  symmetry adapt  = T


 Summary of "ao basis" -> "ao basis" (spherical)
 ------------------------------------------------------------------------------
       Tag                 Description            Shells   Functions and Types
 ---------------- ------------------------------  ------  ---------------------
 br                      user specified             36       94   16s12p7d1f


      Symmetry analysis of basis
      --------------------------

        a1g        36
        a1u         0
        a2g         0
        a2u        36
        b1g         8
        b1u         8
        b2g         8
        b2u         8
        eg         42
        eu         42


 Forming initial guess at      40.6s


 Loading old vectors from job with title :




      Symmetry analysis of molecular orbitals - initial
      -------------------------------------------------

  Numbering of irreducible representations: 

     1 a1g         2 a1u         3 a2g         4 a2u         5 b1g     
     6 b1u         7 b2g         8 b2u         9 eg         10 eu      

  Orbital symmetries:

     1 a2u         2 a1g         3 a2u         4 a1g         5 a2u     
     6 a1g         7 eg          8 eg          9 eu         10 eu      
    11 a1g        12 a2u        13 a1g        14 a2u        15 eu      
    16 eu         17 eg         18 eg         19 a1g        20 a2u     
    21 eu         22 eu         23 eg         24 eg         25 b1u     
    26 b2u        27 b1g        28 b2g        29 a1g        30 a2u     
    31 eu         32 eu         33 a1g        34 eg         35 eg      
    36 a2u        37 a1g        38 a2u        39 eu         40 eu      
    41 a1g        42 eg         43 eg         44 a2u        45 a1g     


 Starting SCF solution at      40.6s



 ----------------------------------------------
         Quadratically convergent ROHF

 Convergence threshold     :          1.000E-08
 Maximum no. of iterations :           30
 Final Fock-matrix accuracy:          1.000E-10
 ----------------------------------------------


              iter       energy          gnorm     gmax       time
             ----- ------------------- --------- --------- --------
                 1    -5208.3544989752  4.27D-03  1.81D-03     41.9
                 2    -5208.3545000961  1.35D-05  4.40D-06     46.0
                 3    -5208.3545000962  6.70D-07  4.84D-07     52.2
                 4    -5208.3545000965  2.47D-09  8.55D-10     53.8


       Final RHF  results 
       ------------------ 

         Total SCF energy =  -5208.354500096487
      One-electron energy =  -7674.172784632624
      Two-electron energy =   2250.275260713485
 Nuclear repulsion energy =    215.543023822652

        Time for solution =     13.2s



       Symmetry analysis of molecular orbitals - final
       -----------------------------------------------

  Numbering of irreducible representations: 

     1 a1g         2 a1u         3 a2g         4 a2u         5 b1g     
     6 b1u         7 b2g         8 b2u         9 eg         10 eu      

  Orbital symmetries:

     1 a2u         2 a1g         3 a2u         4 a1g         5 a2u     
     6 a1g         7 eg          8 eg          9 eu         10 eu      
    11 a1g        12 a2u        13 a1g        14 a2u        15 eu      
    16 eu         17 eg         18 eg         19 a1g        20 a2u     
    21 eu         22 eu         23 eg         24 eg         25 b2u     
    26 b1u        27 b1g        28 b2g        29 a1g        30 a2u     
    31 eu         32 eu         33 a1g        34 eg         35 eg      
    36 a2u        37 a1g        38 a2u        39 eu         40 eu      
    41 a1g        42 eg         43 eg         44 a2u        45 a1g     

             Final eigenvalues
             -----------------

              1      
    1 -498.1702
    2 -498.1702
    3  -67.1234
    4  -67.1234
    5  -59.0332
    6  -59.0332
    7  -59.0305
    8  -59.0305
    9  -59.0305
   10  -59.0305
   11  -10.2236
   12  -10.2236
   13   -7.5846
   14   -7.5846
   15   -7.5734
   16   -7.5734
   17   -7.5734
   18   -7.5734
   19   -3.1888
   20   -3.1885
   21   -3.1836
   22   -3.1836
   23   -3.1835
   24   -3.1835
   25   -3.1686
   26   -3.1686
   27   -3.1686
   28   -3.1686
   29   -1.0566
   30   -1.0195
   31   -0.4690
   32   -0.4690
   33   -0.4423
   34   -0.4416
   35   -0.4416
   36   -0.1264
   37    0.0313
   38    0.0431
   39    0.1174
   40    0.1174
   41    0.1340
   42    0.1388
   43    0.1388
   44    0.1607
   45    0.1707

                       ROHF Final Molecular Orbital Analysis
                       -------------------------------------

 Vector   26  Occ=2.000000D+00  E=-3.168597D+00  Symmetry=b1u
              MO Center=  7.0D-16, -4.3D-15,  3.3D-16, r^2= 2.4D+00
   Bfn.  Coefficient  Atom+Function         Bfn.  Coefficient  Atom+Function  
  ----- ------------  ---------------      ----- ------------  ---------------
    68      0.348226  1 Br d -2             162     -0.348226  2 Br d -2       
    63      0.258577  1 Br d -2             157     -0.258577  2 Br d -2       
    73      0.187006  1 Br d -2             167     -0.187006  2 Br d -2       

 Vector   27  Occ=2.000000D+00  E=-3.168594D+00  Symmetry=b1g
              MO Center=  2.6D-15, -2.2D-15, -3.3D-16, r^2= 2.4D+00
   Bfn.  Coefficient  Atom+Function         Bfn.  Coefficient  Atom+Function  
  ----- ------------  ---------------      ----- ------------  ---------------
    72      0.348223  1 Br d  2             166      0.348223  2 Br d  2       
    67      0.258578  1 Br d  2             161      0.258578  2 Br d  2       
    77      0.187016  1 Br d  2             171      0.187016  2 Br d  2       

 Vector   28  Occ=2.000000D+00  E=-3.168594D+00  Symmetry=b2g
              MO Center=  1.1D-14,  1.7D-15, -7.8D-16, r^2= 2.4D+00
   Bfn.  Coefficient  Atom+Function         Bfn.  Coefficient  Atom+Function  
  ----- ------------  ---------------      ----- ------------  ---------------
    68      0.348223  1 Br d -2             162      0.348223  2 Br d -2       
    63      0.258578  1 Br d -2             157      0.258578  2 Br d -2       
    73      0.187016  1 Br d -2             167      0.187016  2 Br d -2       

 Vector   29  Occ=2.000000D+00  E=-1.056620D+00  Symmetry=a1g
              MO Center= -2.8D-17,  1.6D-17,  1.4D-14, r^2= 3.0D+00
   Bfn.  Coefficient  Atom+Function         Bfn.  Coefficient  Atom+Function  
  ----- ------------  ---------------      ----- ------------  ---------------
    13      0.507638  1 Br s                107      0.507638  2 Br s          
    12     -0.341267  1 Br s                106     -0.341267  2 Br s          
    14      0.336586  1 Br s                108      0.336586  2 Br s          
    11     -0.182750  1 Br s                105     -0.182750  2 Br s          

 Vector   30  Occ=2.000000D+00  E=-1.019494D+00  Symmetry=a2u
              MO Center= -1.2D-15,  3.6D-16,  2.9D-14, r^2= 3.4D+00
   Bfn.  Coefficient  Atom+Function         Bfn.  Coefficient  Atom+Function  
  ----- ------------  ---------------      ----- ------------  ---------------
    13      0.532643  1 Br s                107     -0.532643  2 Br s          
    12     -0.352359  1 Br s                106      0.352359  2 Br s          
    14      0.337658  1 Br s                108     -0.337658  2 Br s          
    11     -0.188176  1 Br s                105      0.188176  2 Br s          

 Vector   31  Occ=2.000000D+00  E=-4.690290D-01  Symmetry=eu
              MO Center=  5.0D-15, -1.4D-14, -1.4D-13, r^2= 3.6D+00
   Bfn.  Coefficient  Atom+Function         Bfn.  Coefficient  Atom+Function  
  ----- ------------  ---------------      ----- ------------  ---------------
    45      0.408893  1 Br py               139      0.408893  2 Br py         
    48      0.351390  1 Br py               142      0.351390  2 Br py         
    39     -0.153946  1 Br py               133     -0.153946  2 Br py         

 Vector   32  Occ=2.000000D+00  E=-4.690290D-01  Symmetry=eu
              MO Center=  2.7D-16,  1.4D-16,  3.1D-15, r^2= 3.6D+00
   Bfn.  Coefficient  Atom+Function         Bfn.  Coefficient  Atom+Function  
  ----- ------------  ---------------      ----- ------------  ---------------
    44      0.408893  1 Br px               138      0.408893  2 Br px         
    47      0.351390  1 Br px               141      0.351390  2 Br px         
    38     -0.153946  1 Br px               132     -0.153946  2 Br px         

 Vector   33  Occ=2.000000D+00  E=-4.422884D-01  Symmetry=a1g
              MO Center=  8.5D-17,  3.4D-17, -6.3D-15, r^2= 3.4D+00
   Bfn.  Coefficient  Atom+Function         Bfn.  Coefficient  Atom+Function  
  ----- ------------  ---------------      ----- ------------  ---------------
    46      0.364017  1 Br pz               140     -0.364017  2 Br pz         
    49      0.350973  1 Br pz               143     -0.350973  2 Br pz         

 Vector   34  Occ=2.000000D+00  E=-4.416344D-01  Symmetry=eg
              MO Center= -5.0D-16, -3.8D-16,  5.5D-14, r^2= 3.8D+00
   Bfn.  Coefficient  Atom+Function         Bfn.  Coefficient  Atom+Function  
  ----- ------------  ---------------      ----- ------------  ---------------
    44      0.419017  1 Br px               138     -0.419017  2 Br px         
    47      0.362764  1 Br px               141     -0.362764  2 Br px         
    38     -0.157249  1 Br px               132      0.157249  2 Br px         

 Vector   35  Occ=2.000000D+00  E=-4.416344D-01  Symmetry=eg
              MO Center=  4.8D-17, -5.2D-16,  7.8D-14, r^2= 3.8D+00
   Bfn.  Coefficient  Atom+Function         Bfn.  Coefficient  Atom+Function  
  ----- ------------  ---------------      ----- ------------  ---------------
    45      0.419017  1 Br py               139     -0.419017  2 Br py         
    48      0.362764  1 Br py               142     -0.362764  2 Br py         
    39     -0.157249  1 Br py               133      0.157249  2 Br py         

 Vector   36  Occ=0.000000D+00  E=-1.264337D-01  Symmetry=a2u
              MO Center= -1.2D-14,  3.0D-15,  1.5D-13, r^2= 4.6D+00
   Bfn.  Coefficient  Atom+Function         Bfn.  Coefficient  Atom+Function  
  ----- ------------  ---------------      ----- ------------  ---------------
    49      0.429363  1 Br pz               143      0.429363  2 Br pz         
    46      0.405755  1 Br pz               140      0.405755  2 Br pz         
    52      0.162781  1 Br pz               146      0.162781  2 Br pz         
    40     -0.156285  1 Br pz               134     -0.156285  2 Br pz         

 Vector   37  Occ=0.000000D+00  E= 3.134771D-02  Symmetry=a1g
              MO Center= -4.5D-16,  3.0D-15, -1.8D-15, r^2= 2.2D+01
   Bfn.  Coefficient  Atom+Function         Bfn.  Coefficient  Atom+Function  
  ----- ------------  ---------------      ----- ------------  ---------------
    16      1.207367  1 Br s                110      1.207367  2 Br s          
    15     -0.868080  1 Br s                109     -0.868080  2 Br s          

 Vector   38  Occ=0.000000D+00  E= 4.310453D-02  Symmetry=a2u
              MO Center= -7.4D-16,  1.5D-16,  1.1D-14, r^2= 2.9D+01
   Bfn.  Coefficient  Atom+Function         Bfn.  Coefficient  Atom+Function  
  ----- ------------  ---------------      ----- ------------  ---------------
    16      2.748217  1 Br s                110     -2.748217  2 Br s          
    15     -1.066916  1 Br s                109      1.066916  2 Br s          
    52     -0.262258  1 Br pz               146     -0.262258  2 Br pz         

 Vector   39  Occ=0.000000D+00  E= 1.173791D-01  Symmetry=eu
              MO Center=  3.9D-17, -1.1D-16,  2.2D-16, r^2= 1.3D+01
   Bfn.  Coefficient  Atom+Function         Bfn.  Coefficient  Atom+Function  
  ----- ------------  ---------------      ----- ------------  ---------------
    51      0.722074  1 Br py               145      0.722074  2 Br py         
    48     -0.391924  1 Br py               142     -0.391924  2 Br py         

 Vector   40  Occ=0.000000D+00  E= 1.173791D-01  Symmetry=eu
              MO Center=  2.1D-17,  1.4D-16,  7.8D-16, r^2= 1.3D+01
   Bfn.  Coefficient  Atom+Function         Bfn.  Coefficient  Atom+Function  
  ----- ------------  ---------------      ----- ------------  ---------------
    50      0.722074  1 Br px               144      0.722074  2 Br px         
    47     -0.391924  1 Br px               141     -0.391924  2 Br px         

 Vector   41  Occ=0.000000D+00  E= 1.340348D-01  Symmetry=a1g
              MO Center=  1.4D-16, -6.5D-16,  1.2D-14, r^2= 1.6D+01
   Bfn.  Coefficient  Atom+Function         Bfn.  Coefficient  Atom+Function  
  ----- ------------  ---------------      ----- ------------  ---------------
    15      1.172427  1 Br s                109      1.172427  2 Br s          
    52      0.970525  1 Br pz               146     -0.970525  2 Br pz         
    16     -0.712073  1 Br s                110     -0.712073  2 Br s          
    49     -0.383746  1 Br pz               143      0.383746  2 Br pz         
    14     -0.165847  1 Br s                108     -0.165847  2 Br s          

 Vector   42  Occ=0.000000D+00  E= 1.387512D-01  Symmetry=eg
              MO Center=  6.9D-16,  3.8D-16,  4.4D-16, r^2= 1.6D+01
   Bfn.  Coefficient  Atom+Function         Bfn.  Coefficient  Atom+Function  
  ----- ------------  ---------------      ----- ------------  ---------------
    50      1.173226  1 Br px               144     -1.173226  2 Br px         
    51      0.427451  1 Br py               145     -0.427451  2 Br py         
    47     -0.363151  1 Br px               141      0.363151  2 Br px         

 Vector   43  Occ=0.000000D+00  E= 1.387512D-01  Symmetry=eg
              MO Center=  1.1D-16, -1.7D-16,  5.3D-15, r^2= 1.6D+01
   Bfn.  Coefficient  Atom+Function         Bfn.  Coefficient  Atom+Function  
  ----- ------------  ---------------      ----- ------------  ---------------
    51      1.173226  1 Br py               145     -1.173226  2 Br py         
    50     -0.427451  1 Br px               144      0.427451  2 Br px         
    48     -0.363151  1 Br py               142      0.363151  2 Br py         

 Vector   44  Occ=0.000000D+00  E= 1.606923D-01  Symmetry=a2u
              MO Center= -4.4D-16,  1.5D-16,  1.0D-14, r^2= 2.2D+01
   Bfn.  Coefficient  Atom+Function         Bfn.  Coefficient  Atom+Function  
  ----- ------------  ---------------      ----- ------------  ---------------
    52      3.432907  1 Br pz               146      3.432907  2 Br pz         
    16     -2.825537  1 Br s                110      2.825537  2 Br s          
    15     -2.095795  1 Br s                109      2.095795  2 Br s          
    49     -0.297958  1 Br pz               143     -0.297958  2 Br pz         
    85     -0.214747  1 Br d  0             179      0.214747  2 Br d  0       

 Vector   45  Occ=0.000000D+00  E= 1.706836D-01  Symmetry=a1g
              MO Center= -1.6D-15,  1.1D-14,  2.1D-14, r^2= 1.4D+01
   Bfn.  Coefficient  Atom+Function         Bfn.  Coefficient  Atom+Function  
  ----- ------------  ---------------      ----- ------------  ---------------
    15      2.128624  1 Br s                109      2.128624  2 Br s          
    16     -1.290614  1 Br s                110     -1.290614  2 Br s          
    14     -0.920122  1 Br s                108     -0.920122  2 Br s          
    49      0.181196  1 Br pz               143     -0.181196  2 Br pz         
    52     -0.166265  1 Br pz               146      0.166265  2 Br pz         

 Vector   46  Occ=0.000000D+00  E= 1.951761D-01  Symmetry=a2u
              MO Center= -2.3D-15,  6.6D-16,  3.2D-14, r^2= 1.5D+01
   Bfn.  Coefficient  Atom+Function         Bfn.  Coefficient  Atom+Function  
  ----- ------------  ---------------      ----- ------------  ---------------
    15      4.291746  1 Br s                109     -4.291746  2 Br s          
    16     -1.621921  1 Br s                110      1.621921  2 Br s          
    52     -1.233552  1 Br pz               146     -1.233552  2 Br pz         
    14     -0.970093  1 Br s                108      0.970093  2 Br s          
    49     -0.250179  1 Br pz               143     -0.250179  2 Br pz         

 Vector   47  Occ=0.000000D+00  E= 2.758713D-01  Symmetry=eu
              MO Center=  8.9D-15,  2.7D-14,  1.7D-12, r^2= 5.4D+00
   Bfn.  Coefficient  Atom+Function         Bfn.  Coefficient  Atom+Function  
  ----- ------------  ---------------      ----- ------------  ---------------
    86      0.569759  1 Br d  1             180     -0.569759  2 Br d  1       

 Vector   48  Occ=0.000000D+00  E= 2.758713D-01  Symmetry=eu
              MO Center= -4.2D-14, -3.4D-14, -3.3D-13, r^2= 5.4D+00
   Bfn.  Coefficient  Atom+Function         Bfn.  Coefficient  Atom+Function  
  ----- ------------  ---------------      ----- ------------  ---------------
    84      0.569759  1 Br d -1             178     -0.569759  2 Br d -1       

 Vector   49  Occ=0.000000D+00  E= 2.937594D-01  Symmetry=b1g
              MO Center=  1.3D-14,  1.7D-14, -2.2D-16, r^2= 5.7D+00
   Bfn.  Coefficient  Atom+Function         Bfn.  Coefficient  Atom+Function  
  ----- ------------  ---------------      ----- ------------  ---------------
    87      0.663463  1 Br d  2             181      0.663463  2 Br d  2       

 Vector   50  Occ=0.000000D+00  E= 2.937594D-01  Symmetry=b2g
              MO Center=  3.7D-14, -2.8D-14,  8.9D-16, r^2= 5.7D+00
   Bfn.  Coefficient  Atom+Function         Bfn.  Coefficient  Atom+Function  
  ----- ------------  ---------------      ----- ------------  ---------------
    83      0.663463  1 Br d -2             177      0.663463  2 Br d -2       

 Vector   51  Occ=0.000000D+00  E= 3.511915D-01  Symmetry=b2u
              MO Center=  1.9D-16,  5.7D-16, -3.3D-16, r^2= 6.2D+00
   Bfn.  Coefficient  Atom+Function         Bfn.  Coefficient  Atom+Function  
  ----- ------------  ---------------      ----- ------------  ---------------
    87      0.735453  1 Br d  2             181     -0.735453  2 Br d  2       

 Vector   52  Occ=0.000000D+00  E= 3.511915D-01  Symmetry=b1u
              MO Center= -3.9D-17,  2.3D-16, -8.9D-16, r^2= 6.2D+00
   Bfn.  Coefficient  Atom+Function         Bfn.  Coefficient  Atom+Function  
  ----- ------------  ---------------      ----- ------------  ---------------
    83      0.735453  1 Br d -2             177     -0.735453  2 Br d -2       

[...]
  ----- ------------  ---------------      ----- ------------  ---------------
    13      0.532838  1 Br s                107     -0.532838  2 Br s          
    12     -0.352290  1 Br s                106      0.352290  2 Br s          
    14      0.337557  1 Br s                108     -0.337557  2 Br s          
    11     -0.188301  1 Br s                105      0.188301  2 Br s          

 Vector   31  Occ=2.000000D+00  E=-4.691245D-01  Symmetry=eu
              MO Center=  2.7D-16, -3.9D-17,  3.2D-15, r^2= 3.6D+00
   Bfn.  Coefficient  Atom+Function         Bfn.  Coefficient  Atom+Function  
  ----- ------------  ---------------      ----- ------------  ---------------
    44      0.404791  1 Br px               138      0.404791  2 Br px         
    47      0.347960  1 Br px               141      0.347960  2 Br px         
    38     -0.152417  1 Br px               132     -0.152417  2 Br px         

 Vector   32  Occ=2.000000D+00  E=-4.691245D-01  Symmetry=eu
              MO Center=  4.6D-16, -1.4D-16,  6.9D-15, r^2= 3.6D+00
   Bfn.  Coefficient  Atom+Function         Bfn.  Coefficient  Atom+Function  
  ----- ------------  ---------------      ----- ------------  ---------------
    45      0.404791  1 Br py               139      0.404791  2 Br py         
    48      0.347960  1 Br py               142      0.347960  2 Br py         
    39     -0.152417  1 Br py               133     -0.152417  2 Br py         

 Vector   33  Occ=2.000000D+00  E=-4.430104D-01  Symmetry=a1g
              MO Center= -4.9D-15,  5.8D-16, -1.3D-13, r^2= 3.4D+00
   Bfn.  Coefficient  Atom+Function         Bfn.  Coefficient  Atom+Function  
  ----- ------------  ---------------      ----- ------------  ---------------
    46      0.364110  1 Br pz               140     -0.364110  2 Br pz         
    49      0.350693  1 Br pz               143     -0.350693  2 Br pz         

 Vector   34  Occ=2.000000D+00  E=-4.413608D-01  Symmetry=eg
              MO Center=  4.8D-17, -5.3D-16, -7.8D-15, r^2= 3.8D+00
   Bfn.  Coefficient  Atom+Function         Bfn.  Coefficient  Atom+Function  
  ----- ------------  ---------------      ----- ------------  ---------------
    45      0.419438  1 Br py               139     -0.419438  2 Br py         
    48      0.363338  1 Br py               142     -0.363338  2 Br py         
    39     -0.157420  1 Br py               133      0.157420  2 Br py         

 Vector   35  Occ=2.000000D+00  E=-4.413608D-01  Symmetry=eg
              MO Center= -6.5D-16, -4.2D-16, -4.7D-15, r^2= 3.8D+00
   Bfn.  Coefficient  Atom+Function         Bfn.  Coefficient  Atom+Function  
  ----- ------------  ---------------      ----- ------------  ---------------
    44      0.419438  1 Br px               138     -0.419438  2 Br px         
    47      0.363338  1 Br px               141     -0.363338  2 Br px         
    38     -0.157420  1 Br px               132      0.157420  2 Br px         

 Vector   36  Occ=0.000000D+00  E=-1.255438D-01  Symmetry=a2u
              MO Center= -1.2D-14,  3.1D-15,  2.4D-13, r^2= 4.6D+00
   Bfn.  Coefficient  Atom+Function         Bfn.  Coefficient  Atom+Function  
  ----- ------------  ---------------      ----- ------------  ---------------
    49      0.429875  1 Br pz               143      0.429875  2 Br pz         
    46      0.405729  1 Br pz               140      0.405729  2 Br pz         
    52      0.164324  1 Br pz               146      0.164324  2 Br pz         
    40     -0.156275  1 Br pz               134     -0.156275  2 Br pz         

 Vector   37  Occ=0.000000D+00  E= 3.135351D-02  Symmetry=a1g
              MO Center= -1.9D-17, -1.8D-17, -2.3D-15, r^2= 2.2D+01
   Bfn.  Coefficient  Atom+Function         Bfn.  Coefficient  Atom+Function  
  ----- ------------  ---------------      ----- ------------  ---------------
    16      1.207097  1 Br s                110      1.207097  2 Br s          
    15     -0.868019  1 Br s                109     -0.868019  2 Br s          

 Vector   38  Occ=0.000000D+00  E= 4.312506D-02  Symmetry=a2u
              MO Center= -7.5D-16,  1.5D-16, -2.9D-14, r^2= 2.9D+01
   Bfn.  Coefficient  Atom+Function         Bfn.  Coefficient  Atom+Function  
  ----- ------------  ---------------      ----- ------------  ---------------
    16      2.753993  1 Br s                110     -2.753993  2 Br s          
    15     -1.065907  1 Br s                109      1.065907  2 Br s          
    52     -0.264069  1 Br pz               146     -0.264069  2 Br pz         

 Vector   39  Occ=0.000000D+00  E= 1.174226D-01  Symmetry=eu
              MO Center=  2.3D-15,  2.2D-14, -1.1D-16, r^2= 1.3D+01
   Bfn.  Coefficient  Atom+Function         Bfn.  Coefficient  Atom+Function  
  ----- ------------  ---------------      ----- ------------  ---------------
    51      0.721829  1 Br py               145      0.721829  2 Br py         
    48     -0.392035  1 Br py               142     -0.392035  2 Br py         

 Vector   40  Occ=0.000000D+00  E= 1.174226D-01  Symmetry=eu
              MO Center=  9.1D-17, -3.6D-18,  7.8D-16, r^2= 1.3D+01
   Bfn.  Coefficient  Atom+Function         Bfn.  Coefficient  Atom+Function  
  ----- ------------  ---------------      ----- ------------  ---------------
    50      0.721829  1 Br px               144      0.721829  2 Br px         
    47     -0.392035  1 Br px               141     -0.392035  2 Br px         

 Vector   41  Occ=0.000000D+00  E= 1.339672D-01  Symmetry=a1g
              MO Center= -1.3D-15, -1.4D-14,  1.0D-14, r^2= 1.6D+01
   Bfn.  Coefficient  Atom+Function         Bfn.  Coefficient  Atom+Function  
  ----- ------------  ---------------      ----- ------------  ---------------
    15      1.169339  1 Br s                109      1.169339  2 Br s          
    52      0.972470  1 Br pz               146     -0.972470  2 Br pz         
    16     -0.710274  1 Br s                110     -0.710274  2 Br s          
    49     -0.383301  1 Br pz               143      0.383301  2 Br pz         
    14     -0.163775  1 Br s                108     -0.163775  2 Br s          

 Vector   42  Occ=0.000000D+00  E= 1.387638D-01  Symmetry=eg
              MO Center=  1.1D-16, -1.7D-16,  4.7D-15, r^2= 1.6D+01
   Bfn.  Coefficient  Atom+Function         Bfn.  Coefficient  Atom+Function  
  ----- ------------  ---------------      ----- ------------  ---------------
    51      1.176290  1 Br py               145     -1.176290  2 Br py         
    50     -0.425273  1 Br px               144      0.425273  2 Br px         
    48     -0.363342  1 Br py               142      0.363342  2 Br py         

 Vector   43  Occ=0.000000D+00  E= 1.387638D-01  Symmetry=eg
              MO Center=  3.2D-16,  2.5D-16,  6.7D-16, r^2= 1.6D+01
   Bfn.  Coefficient  Atom+Function         Bfn.  Coefficient  Atom+Function  
  ----- ------------  ---------------      ----- ------------  ---------------
    50      1.176290  1 Br px               144     -1.176290  2 Br px         
    51      0.425273  1 Br py               145     -0.425273  2 Br py         
    47     -0.363342  1 Br px               141      0.363342  2 Br px         

 Vector   44  Occ=0.000000D+00  E= 1.607132D-01  Symmetry=a2u
              MO Center= -4.4D-16,  1.5D-16,  6.7D-16, r^2= 2.2D+01
   Bfn.  Coefficient  Atom+Function         Bfn.  Coefficient  Atom+Function  
  ----- ------------  ---------------      ----- ------------  ---------------
    52      3.448813  1 Br pz               146      3.448813  2 Br pz         
    16     -2.830326  1 Br s                110      2.830326  2 Br s          
    15     -2.133177  1 Br s                109      2.133177  2 Br s          
    49     -0.296225  1 Br pz               143     -0.296225  2 Br pz         
    85     -0.216017  1 Br d  0             179      0.216017  2 Br d  0       

 Vector   45  Occ=0.000000D+00  E= 1.706689D-01  Symmetry=a1g
              MO Center= -7.4D-16, -7.7D-15,  1.6D-14, r^2= 1.4D+01
   Bfn.  Coefficient  Atom+Function         Bfn.  Coefficient  Atom+Function  
  ----- ------------  ---------------      ----- ------------  ---------------
    15      2.130118  1 Br s                109      2.130118  2 Br s          
    16     -1.291419  1 Br s                110     -1.291419  2 Br s          
    14     -0.920949  1 Br s                108     -0.920949  2 Br s          
    49      0.179464  1 Br pz               143     -0.179464  2 Br pz         
    52     -0.164151  1 Br pz               146      0.164151  2 Br pz         

 Vector   46  Occ=0.000000D+00  E= 1.951874D-01  Symmetry=a2u
              MO Center= -2.3D-15,  6.6D-16,  3.2D-14, r^2= 1.5D+01
   Bfn.  Coefficient  Atom+Function         Bfn.  Coefficient  Atom+Function  
  ----- ------------  ---------------      ----- ------------  ---------------
    15      4.310622  1 Br s                109     -4.310622  2 Br s          
    16     -1.624754  1 Br s                110      1.624754  2 Br s          
    52     -1.239041  1 Br pz               146     -1.239041  2 Br pz         
    14     -0.968295  1 Br s                108      0.968295  2 Br s          
    49     -0.254265  1 Br pz               143     -0.254265  2 Br pz         

 Vector   47  Occ=0.000000D+00  E= 2.759770D-01  Symmetry=eu
              MO Center=  1.0D-14,  2.9D-14,  1.8D-12, r^2= 5.4D+00
   Bfn.  Coefficient  Atom+Function         Bfn.  Coefficient  Atom+Function  
  ----- ------------  ---------------      ----- ------------  ---------------
    86      0.571946  1 Br d  1             180     -0.571946  2 Br d  1       

 Vector   48  Occ=0.000000D+00  E= 2.759770D-01  Symmetry=eu
              MO Center= -4.1D-14, -3.7D-14, -3.9D-13, r^2= 5.4D+00
   Bfn.  Coefficient  Atom+Function         Bfn.  Coefficient  Atom+Function  
  ----- ------------  ---------------      ----- ------------  ---------------
    84      0.571946  1 Br d -1             178     -0.571946  2 Br d -1       

 Vector   49  Occ=0.000000D+00  E= 2.935932D-01  Symmetry=b1g
              MO Center=  1.3D-14,  1.9D-14, -2.2D-16, r^2= 5.7D+00
   Bfn.  Coefficient  Atom+Function         Bfn.  Coefficient  Atom+Function  
  ----- ------------  ---------------      ----- ------------  ---------------
    87      0.662999  1 Br d  2             181      0.662999  2 Br d  2       

 Vector   50  Occ=0.000000D+00  E= 2.935932D-01  Symmetry=b2g
              MO Center=  4.0D-14, -2.9D-14,  8.9D-16, r^2= 5.7D+00
   Bfn.  Coefficient  Atom+Function         Bfn.  Coefficient  Atom+Function  
  ----- ------------  ---------------      ----- ------------  ---------------
    83      0.662999  1 Br d -2             177      0.662999  2 Br d -2       

 Vector   51  Occ=0.000000D+00  E= 3.514105D-01  Symmetry=b2u
              MO Center=  1.9D-16,  5.7D-16,  5.6D-16, r^2= 6.2D+00
   Bfn.  Coefficient  Atom+Function         Bfn.  Coefficient  Atom+Function  
  ----- ------------  ---------------      ----- ------------  ---------------
    87      0.736003  1 Br d  2             181     -0.736003  2 Br d  2       

 Vector   52  Occ=0.000000D+00  E= 3.514105D-01  Symmetry=b1u
              MO Center= -4.0D-17,  2.3D-16, -1.0D-15, r^2= 6.2D+00
   Bfn.  Coefficient  Atom+Function         Bfn.  Coefficient  Atom+Function  
  ----- ------------  ---------------      ----- ------------  ---------------
    83      0.736003  1 Br d -2             177     -0.736003  2 Br d -2       

 Vector   53  Occ=0.000000D+00  E= 3.751944D-01  Symmetry=a1g
              MO Center= -9.2D-14,  9.6D-15,  1.4D-11, r^2= 7.1D+00
   Bfn.  Coefficient  Atom+Function         Bfn.  Coefficient  Atom+Function  
  ----- ------------  ---------------      ----- ------------  ---------------
    85      0.675859  1 Br d  0             179      0.675859  2 Br d  0       
    52     -0.514985  1 Br pz               146      0.514985  2 Br pz         
    49      0.446969  1 Br pz               143     -0.446969  2 Br pz         
    15     -0.189640  1 Br s                109     -0.189640  2 Br s          
    14     -0.177454  1 Br s                108     -0.177454  2 Br s          

 Vector   54  Occ=0.000000D+00  E= 4.401937D-01  Symmetry=eg
              MO Center= -5.3D-14,  1.3D-13, -1.0D-12, r^2= 7.7D+00
   Bfn.  Coefficient  Atom+Function         Bfn.  Coefficient  Atom+Function  
  ----- ------------  ---------------      ----- ------------  ---------------
    84      0.900365  1 Br d -1             178      0.900365  2 Br d -1       
    51     -0.459920  1 Br py               145      0.459920  2 Br py         
    86      0.404932  1 Br d  1             180      0.404932  2 Br d  1       
    50      0.206845  1 Br px               144     -0.206845  2 Br px         

 Vector   55  Occ=0.000000D+00  E= 4.401937D-01  Symmetry=eg
              MO Center= -1.5D-13, -6.6D-14, -1.4D-12, r^2= 7.7D+00
   Bfn.  Coefficient  Atom+Function         Bfn.  Coefficient  Atom+Function  
  ----- ------------  ---------------      ----- ------------  ---------------
    86      0.900365  1 Br d  1             180      0.900365  2 Br d  1       
    50      0.459920  1 Br px               144     -0.459920  2 Br px         
    84     -0.404932  1 Br d -1             178     -0.404932  2 Br d -1       
    51      0.206845  1 Br py               145     -0.206845  2 Br py         

 Vector   56  Occ=0.000000D+00  E= 4.648496D-01  Symmetry=a2u
              MO Center=  1.3D-13, -7.3D-14, -1.3D-11, r^2= 1.0D+01
   Bfn.  Coefficient  Atom+Function         Bfn.  Coefficient  Atom+Function  
  ----- ------------  ---------------      ----- ------------  ---------------
    15      3.710615  1 Br s                109     -3.710615  2 Br s          
    52     -2.470511  1 Br pz               146     -2.470511  2 Br pz         
    85      1.386652  1 Br d  0             179     -1.386652  2 Br d  0       
    16      0.529419  1 Br s                110     -0.529419  2 Br s          
    49     -0.490248  1 Br pz               143     -0.490248  2 Br pz         

 Vector   57  Occ=0.000000D+00  E= 7.686225D-01  Symmetry=eu
              MO Center=  5.6D-16,  2.9D-14,  3.7D-13, r^2= 6.1D+00
   Bfn.  Coefficient  Atom+Function         Bfn.  Coefficient  Atom+Function  
  ----- ------------  ---------------      ----- ------------  ---------------
    48      1.160059  1 Br py               142      1.160059  2 Br py         
    45     -1.032856  1 Br py               139     -1.032856  2 Br py         
    51     -0.372754  1 Br py               145     -0.372754  2 Br py         


 center of mass
 --------------
 x =   0.00000000 y =   0.00000000 z =   0.00000000

 moments of inertia (a.u.)
 ------------------
        1284.241324874075           0.000000000000           0.000000000000
           0.000000000000        1284.241324874075           0.000000000000
           0.000000000000           0.000000000000           0.000000000000

  Mulliken analysis of the total density
  --------------------------------------

    Atom       Charge   Shell Charges
 -----------   ------   -------------------------------------------------------
    1 Br  35    35.00   0.00  0.00  0.01  0.05  0.20  0.56  0.80  0.34  0.94  1.04  0.89  1.13  1.18  0.84  0.01 -0.00  0.00  0.02  0.21  1.16  2.61  1.84  1.49  3.31  1.40
  2.48  2.38  0.06  0.04  0.65  3.01  4.54  1.73  0.05  0.01  0.00
    2 Br  35    35.00   0.00  0.00  0.01  0.05  0.20  0.56  0.80  0.34  0.94  1.04  0.89  1.13  1.18  0.84  0.01 -0.00  0.00  0.02  0.21  1.16  2.61  1.84  1.49  3.31  1.40
  2.48  2.38  0.06  0.04  0.65  3.01  4.54  1.73  0.05  0.01  0.00

       Multipole analysis of the density wrt the origin
       ------------------------------------------------

     L   x y z        total         open         nuclear
     -   - - -        -----         ----         -------
     0   0 0 0     -0.000000      0.000000     70.000000

     1   1 0 0     -0.000000      0.000000      0.000000
     1   0 1 0      0.000000      0.000000      0.000000
     1   0 0 1      0.000000      0.000000      0.000000

     2   2 0 0    -28.149674      0.000000      0.000000
     2   1 1 0      0.000000      0.000000      0.000000
     2   1 0 1      0.000000      0.000000      0.000000
     2   0 2 0    -28.149674      0.000000      0.000000
     2   0 1 1     -0.000000      0.000000      0.000000
     2   0 0 2    -22.422063      0.000000    562.442629


 Task  times  cpu:       18.2s     wall:       18.2s


                                NWChem Input Module
                                -------------------


 Summary of allocated global arrays
-----------------------------------
  No active global arrays



                         GA Statistics for process    0
                         ------------------------------

       create   destroy   get      put      acc     scatter   gather  read&inc
calls: 4527     4527     2.28e+07 2.26e+07 4.93e+04    0        0     5940     
number of processes/call 1.00e+00 1.00e+00 1.06e+00 0.00e+00 0.00e+00
bytes total:             1.43e+09 6.12e+08 4.96e+08 0.00e+00 0.00e+00 4.75e+04
bytes remote:            7.06e+08 8.22e+07 2.05e+08 0.00e+00 0.00e+00 0.00e+00
Max memory consumed for GA by this process: 1808456 bytes

MA_summarize_allocated_blocks: starting scan ...
MA_summarize_allocated_blocks: scan completed: 0 heap blocks, 0 stack blocks
MA usage statistics:

	allocation statistics:
					      heap	     stack
					      ----	     -----
	current number of blocks	         0	         0
	maximum number of blocks	        31	        29
	current total bytes		         0	         0
	maximum total bytes		     90208	  43053192
	maximum total K-bytes		        91	     43054
	maximum total M-bytes		         1	        44


                                     CITATION
                                     --------
                Please cite the following reference when publishing
                           results obtained with NWChem:

                 M. Valiev, E.J. Bylaska, N. Govind, K. Kowalski,
              T.P. Straatsma, H.J.J. van Dam, D. Wang, J. Nieplocha,
                        E. Apra, T.L. Windus, W.A. de Jong
                 "NWChem: a comprehensive and scalable open-source
                  solution for large scale molecular simulations"
                      Comput. Phys. Commun. 181, 1477 (2010)
                           doi:10.1016/j.cpc.2010.04.018

                                      AUTHORS
                                      -------
          E. Apra, E. J. Bylaska, W. A. de Jong, N. Govind, K. Kowalski,
       T. P. Straatsma, M. Valiev, H. J. J. van Dam, D. Wang, T. L. Windus,
        J. Hammond, J. Autschbach, K. Bhaskaran-Nair, J. Brabec, K. Lopata,
    S. A. Fischer, S. Krishnamoorthy, M. Jacquelin, W. Ma, M. Klemm, O. Villa,
      Y. Chen, V. Anisimov, F. Aquino, S. Hirata, M. T. Hackler, V. Konjkov,
            D. Mejia-Rodriguez, T. Risthaus, M. Malagoli, A. Marenich,
   A. Otero-de-la-Roza, J. Mullin, P. Nichols, R. Peverati, J. Pittner, Y. Zhao,
        P.-D. Fan, A. Fonari, M. J. Williamson, R. J. Harrison, J. R. Rehr,
      M. Dupuis, D. Silverstein, D. M. A. Smith, J. Nieplocha, V. Tipparaju,
    M. Krishnan, B. E. Van Kuiken, A. Vazquez-Mayagoitia, L. Jensen, M. Swart,
      Q. Wu, T. Van Voorhis, A. A. Auer, M. Nooijen, L. D. Crosby, E. Brown,
      G. Cisneros, G. I. Fann, H. Fruchtl, J. Garza, K. Hirao, R. A. Kendall,
      J. A. Nichols, K. Tsemekhman, K. Wolinski, J. Anchell, D. E. Bernholdt,
      P. Borowski, T. Clark, D. Clerc, H. Dachsel, M. J. O. Deegan, K. Dyall,
    D. Elwood, E. Glendening, M. Gutowski, A. C. Hess, J. Jaffe, B. G. Johnson,
     J. Ju, R. Kobayashi, R. Kutteh, Z. Lin, R. Littlefield, X. Long, B. Meng,
      T. Nakajima, S. Niu, L. Pollack, M. Rosing, K. Glaesemann, G. Sandrone,
      M. Stave, H. Taylor, G. Thomas, J. H. van Lenthe, A. T. Wong, Z. Zhang.

 Total times  cpu:      100.1s     wall:      100.2s
