 argument  1 = /home/list1234/source/nwchem-6.8.1-release/QA/tests/bsse_tce_mult/bsse_tce_mult.nw



============================== echo of input deck ==============================
echo
start methane-plus-h-dat

geometry units angstrom
  symmetry c1
  C    8.77882    4.09466    8.18421
  H    9.37839    4.74587    7.64094
  H    8.17915    3.55170    7.53275
  H    9.37839    3.44344    8.72748
  H    8.478984    4.366134    8.509940
  H    7.920094    4.872164    9.117099
end

charge 0

basis
  H library cc-pvdz
  C library cc-pvdz
  bqH library H cc-pvdz
  bqC library C cc-pvdz
end

BSSE
  MON first 1 2 3 4 5
  MON second 6
      mult 2
END

scf
  doublet; rohf
end

TCE
  scf
  ccsd
END

task tce energy
================================================================================


                                         
                                         


              Northwest Computational Chemistry Package (NWChem) 6.8
              ------------------------------------------------------


                    Environmental Molecular Sciences Laboratory
                       Pacific Northwest National Laboratory
                                Richland, WA 99352

                              Copyright (c) 1994-2018
                       Pacific Northwest National Laboratory
                            Battelle Memorial Institute

             NWChem is an open-source computational chemistry package
                        distributed under the terms of the
                      Educational Community License (ECL) 2.0
             A copy of the license is included with this distribution
                              in the LICENSE.TXT file

                                  ACKNOWLEDGMENT
                                  --------------

            This software and its documentation were developed at the
            EMSL at Pacific Northwest National Laboratory, a multiprogram
            national laboratory, operated for the U.S. Department of Energy
            by Battelle under Contract Number DE-AC05-76RL01830. Support
            for this work was provided by the Department of Energy Office
            of Biological and Environmental Research, Office of Basic
            Energy Sciences, and the Office of Advanced Scientific Computing.


           Job information
           ---------------

    hostname        = list1234-B360M-H
    program         = /home/list1234/source/nwchem-6.8.1-release/bin/LINUX64/nwchem
    date            = Sun Jun 30 05:46:21 2019

    compiled        = Sun_Jun_30_05:21:11_2019
    source          = /home/list1234/source/nwchem-6.8.1-release
    nwchem branch   = Development
    nwchem revision = N/A
    ga revision     = 5.6.5
    use scalapack   = T
    input           = /home/list1234/source/nwchem-6.8.1-release/QA/tests/bsse_tce_mult/bsse_tce_mult.nw
    prefix          = methane-plus-h-dat.
    data base       = ./methane-plus-h-dat.db
    status          = startup
    nproc           =        4
    time left       =     -1s



           Memory information
           ------------------

    heap     =   86247164 doubles =    658.0 Mbytes
    stack    =   86247169 doubles =    658.0 Mbytes
    global   =  172494336 doubles =   1316.0 Mbytes (distinct from heap & stack)
    total    =  344988669 doubles =   2632.1 Mbytes
    verify   = yes
    hardfail = no 


           Directory information
           ---------------------

  0 permanent = .
  0 scratch   = .




                                NWChem Input Module
                                -------------------



 Scaling coordinates for geometry "geometry" by  1.889725989
 (inverse scale =  0.529177249)

 Turning off AUTOSYM since
 SYMMETRY directive was detected!


          ------
          auto-z
          ------
  autoz: The atoms group into disjoint clusters
 cluster   1:    1    2    3    4    5
 cluster   2:    6
 Connecting clusters   1   2 via atoms    5    6 r = 0.97
  autoz: regenerating connections with new bonds
  Looking for out-of-plane bends
  no constraints, skipping    0.0000000000000000     
  no constraints, skipping    0.0000000000000000     


                             Geometry "geometry" -> ""
                             -------------------------

 Output coordinates in angstroms (scale by  1.889725989 to convert to a.u.)

  No.       Tag          Charge          X              Y              Z
 ---- ---------------- ---------- -------------- -------------- --------------
    1 C                    6.0000     0.05082655    -0.04600073    -0.05519627
    2 H                    1.0000     0.65039655     0.60520927    -0.59846627
    3 H                    1.0000    -0.54884345    -0.58896073    -0.70665627
    4 H                    1.0000     0.65039655    -0.69722073     0.48807373
    5 H                    1.0000    -0.24900945     0.22547327     0.27053373
    6 H                    1.0000    -0.80789945     0.73150327     0.87769273

      Atomic Mass 
      ----------- 

      C                 12.000000
      H                  1.007825


 Effective nuclear repulsion energy (a.u.)      20.8806087871

            Nuclear Dipole moment (a.u.) 
            ----------------------------
        X                 Y               Z
 ---------------- ---------------- ----------------
     0.0000000000    -0.0000000000     0.0000000000



                                Z-matrix (autoz)
                                -------- 

 Units are Angstrom for bonds and degrees for angles

      Type          Name      I     J     K     L     M      Value
      ----------- --------  ----- ----- ----- ----- ----- ----------
    1 Stretch                  1     2                       1.03861
    2 Stretch                  1     3                       1.03866
    3 Stretch                  1     4                       1.03861
    4 Stretch                  1     5                       0.51933
    5 Stretch                  5     6                       0.96802
    6 Bend                     2     1     3               109.44989
    7 Bend                     2     1     4               109.48079
    8 Bend                     2     1     5               109.48854
    9 Bend                     3     1     4               109.48751
   10 Bend                     3     1     5               109.47079
   11 Bend                     4     1     5               109.44980
   12 Bend                     6     1     2               109.48837
   13 Bend                     6     1     3               109.47093
   14 Bend                     6     1     4               109.44983
   15 Torsion                  1     2     5     6         179.99987
   16 Torsion                  1     3     5     6         179.99976
   17 Torsion                  1     4     5     6        -179.99963


            XYZ format geometry
            -------------------
     6
 geometry
 C                     0.05082655    -0.04600073    -0.05519627
 H                     0.65039655     0.60520927    -0.59846627
 H                    -0.54884345    -0.58896073    -0.70665627
 H                     0.65039655    -0.69722073     0.48807373
 H                    -0.24900945     0.22547327     0.27053373
 H                    -0.80789945     0.73150327     0.87769273

 ==============================================================================
                                internuclear distances
 ------------------------------------------------------------------------------
       center one      |      center two      | atomic units |  angstroms
 ------------------------------------------------------------------------------
    2 H                |   1 C                |     1.96268  |     1.03861
    3 H                |   1 C                |     1.96278  |     1.03866
    4 H                |   1 C                |     1.96269  |     1.03861
    5 H                |   1 C                |     0.98138  |     0.51933
 ------------------------------------------------------------------------------
                         number of included internuclear distances:          4
 ==============================================================================



 ==============================================================================
                                 internuclear angles
 ------------------------------------------------------------------------------
        center 1       |       center 2       |       center 3       |  degrees
 ------------------------------------------------------------------------------
    2 H                |   1 C                |   3 H                |   109.45
    2 H                |   1 C                |   4 H                |   109.48
    2 H                |   1 C                |   5 H                |   109.49
    3 H                |   1 C                |   4 H                |   109.49
    3 H                |   1 C                |   5 H                |   109.47
    4 H                |   1 C                |   5 H                |   109.45
 ------------------------------------------------------------------------------
                            number of included internuclear angles:          6
 ==============================================================================



                      Basis "ao basis" -> "" (cartesian)
                      -----
  H (Hydrogen)
  ------------
            Exponent  Coefficients 
       -------------- ---------------------------------------------------------
  1 S  1.30100000E+01  0.019685
  1 S  1.96200000E+00  0.137977
  1 S  4.44600000E-01  0.478148

  2 S  1.22000000E-01  1.000000

  3 P  7.27000000E-01  1.000000

  C (Carbon)
  ----------
            Exponent  Coefficients 
       -------------- ---------------------------------------------------------
  1 S  6.66500000E+03  0.000692
  1 S  1.00000000E+03  0.005329
  1 S  2.28000000E+02  0.027077
  1 S  6.47100000E+01  0.101718
  1 S  2.10600000E+01  0.274740
  1 S  7.49500000E+00  0.448564
  1 S  2.79700000E+00  0.285074
  1 S  5.21500000E-01  0.015204

  2 S  6.66500000E+03 -0.000146
  2 S  1.00000000E+03 -0.001154
  2 S  2.28000000E+02 -0.005725
  2 S  6.47100000E+01 -0.023312
  2 S  2.10600000E+01 -0.063955
  2 S  7.49500000E+00 -0.149981
  2 S  2.79700000E+00 -0.127262
  2 S  5.21500000E-01  0.544529

  3 S  1.59600000E-01  1.000000

  4 P  9.43900000E+00  0.038109
  4 P  2.00200000E+00  0.209480
  4 P  5.45600000E-01  0.508557

  5 P  1.51700000E-01  1.000000

  6 D  5.50000000E-01  1.000000

  bqH
  ---
            Exponent  Coefficients 
       -------------- ---------------------------------------------------------
  1 S  1.30100000E+01  0.019685
  1 S  1.96200000E+00  0.137977
  1 S  4.44600000E-01  0.478148

  2 S  1.22000000E-01  1.000000

  3 P  7.27000000E-01  1.000000

  bqC
  ---
            Exponent  Coefficients 
       -------------- ---------------------------------------------------------
  1 S  6.66500000E+03  0.000692
  1 S  1.00000000E+03  0.005329
  1 S  2.28000000E+02  0.027077
  1 S  6.47100000E+01  0.101718
  1 S  2.10600000E+01  0.274740
  1 S  7.49500000E+00  0.448564
  1 S  2.79700000E+00  0.285074
  1 S  5.21500000E-01  0.015204

  2 S  6.66500000E+03 -0.000146
  2 S  1.00000000E+03 -0.001154
  2 S  2.28000000E+02 -0.005725
  2 S  6.47100000E+01 -0.023312
  2 S  2.10600000E+01 -0.063955
  2 S  7.49500000E+00 -0.149981
  2 S  2.79700000E+00 -0.127262
  2 S  5.21500000E-01  0.544529

  3 S  1.59600000E-01  1.000000

  4 P  9.43900000E+00  0.038109
  4 P  2.00200000E+00  0.209480
  4 P  5.45600000E-01  0.508557

  5 P  1.51700000E-01  1.000000

  6 D  5.50000000E-01  1.000000



 Summary of "ao basis" -> "" (cartesian)
 ------------------------------------------------------------------------------
       Tag                 Description            Shells   Functions and Types
 ---------------- ------------------------------  ------  ---------------------
 H                          cc-pvdz                  3        5   2s1p
 C                          cc-pvdz                  6       15   3s2p1d
 bqH                        cc-pvdz                  3        5   2s1p
 bqC                        cc-pvdz                  6       15   3s2p1d




                     Input BSSE Module - Counter Poise Approach
                   --------------------------------------------


    supermolecule geometry name = geometry                                          
             number of monomers =    2
             total multiplicity =    2 to    2
                   total charge =    0

        atoms for each monomer  

              monomer     first      :   1  2  3  4  5
              monomer     second     :   6


                              BSSE Energy Correction
                              ----------------------


                                 NWChem SCF Module
                                 -----------------



  ao basis        = "ao basis"
  functions       =    40
  atoms           =     6
  closed shells   =     5
  open shells     =     1
  charge          =   0.00
  wavefunction    = ROHF
  input vectors   = atomic
  output vectors  = ./methane-plus-h-dat.movecs
  use symmetry    = F
  symmetry adapt  = F


 Summary of "ao basis" -> "ao basis" (cartesian)
 ------------------------------------------------------------------------------
       Tag                 Description            Shells   Functions and Types
 ---------------- ------------------------------  ------  ---------------------
 H                          cc-pvdz                  3        5   2s1p
 C                          cc-pvdz                  6       15   3s2p1d
 bqH                        cc-pvdz                  3        5   2s1p
 bqC                        cc-pvdz                  6       15   3s2p1d



 Forming initial guess at       0.0s


      Superposition of Atomic Density Guess
      -------------------------------------

 Sum of atomic energies:         -40.16254112

      Non-variational initial energy
      ------------------------------

 Total energy =     -40.904082
 1-e energy   =     -90.513777
 2-e energy   =      28.729086
 HOMO         =      -0.117767
 LUMO         =       0.134458


 Starting SCF solution at       0.1s



 ----------------------------------------------
         Quadratically convergent ROHF

 Convergence threshold     :          1.000E-04
 Maximum no. of iterations :           30
 Final Fock-matrix accuracy:          1.000E-07
 ----------------------------------------------


              iter       energy          gnorm     gmax       time
             ----- ------------------- --------- --------- --------
                 1      -39.7104924680  7.97D-01  2.78D-01      0.2
                 2      -39.7561862934  2.56D-01  7.05D-02      0.2
                 3      -39.7640311705  1.53D-02  5.71D-03      0.3
                 4      -39.7641008154  7.83D-05  2.81D-05      0.5


       Final ROHF results 
       ------------------ 

         Total SCF energy =    -39.764100815364
      One-electron energy =    -92.365387703816
      Two-electron energy =     31.720678101343
 Nuclear repulsion energy =     20.880608787109

        Time for solution =      0.4s


             Final eigenvalues
             -----------------

              1      
    1  -11.2510
    2   -1.1340
    3   -0.7208
    4   -0.5885
    5   -0.5884
    6   -0.0768
    7    0.2061
    8    0.2607
    9    0.2607
   10    0.4184
   11    0.5631
   12    0.5632
   13    0.5683
   14    0.6420
   15    0.8661
   16    0.8661

                       ROHF Final Molecular Orbital Analysis
                       -------------------------------------

 Vector    2  Occ=2.000000D+00  E=-1.133955D+00
              MO Center= -1.3D-01,  1.2D-01,  1.4D-01, r^2= 6.5D-01
   Bfn.  Coefficient  Atom+Function         Bfn.  Coefficient  Atom+Function  
  ----- ------------  ---------------      ----- ------------  ---------------
    32      0.670837  5 H  s                 31      0.467224  5 H  s          
     3     -0.400690  1 C  s                  2      0.291641  1 C  s          
    16      0.157695  2 H  s                 21      0.157691  3 H  s          
    26      0.157715  4 H  s          

 Vector    3  Occ=2.000000D+00  E=-7.207519D-01
              MO Center=  1.5D-01, -1.3D-01, -1.6D-01, r^2= 9.7D-01
   Bfn.  Coefficient  Atom+Function         Bfn.  Coefficient  Atom+Function  
  ----- ------------  ---------------      ----- ------------  ---------------
     3      0.519292  1 C  s                 32     -0.479288  5 H  s          
    31     -0.385948  5 H  s                  6     -0.286458  1 C  pz         
     4      0.263578  1 C  px                 5     -0.238530  1 C  py         
    16      0.178284  2 H  s                 21      0.178127  3 H  s          
    26      0.177957  4 H  s                  2      0.171470  1 C  s          

 Vector    4  Occ=2.000000D+00  E=-5.884526D-01
              MO Center=  2.2D-01, -2.4D-01,  2.5D-02, r^2= 1.1D+00
   Bfn.  Coefficient  Atom+Function         Bfn.  Coefficient  Atom+Function  
  ----- ------------  ---------------      ----- ------------  ---------------
    26      0.363264  4 H  s                  6      0.353689  1 C  pz         
     5     -0.207491  1 C  py                 4      0.196667  1 C  px         
    21     -0.192264  3 H  s                 16     -0.170793  2 H  s          

 Vector    5  Occ=2.000000D+00  E=-5.883524D-01
              MO Center=  5.7D-02, -5.8D-03, -3.3D-01, r^2= 1.1D+00
   Bfn.  Coefficient  Atom+Function         Bfn.  Coefficient  Atom+Function  
  ----- ------------  ---------------      ----- ------------  ---------------
     5      0.327607  1 C  py                16      0.320685  2 H  s          
     4      0.314979  1 C  px                21     -0.308368  3 H  s          

 Vector    6  Occ=1.000000D+00  E=-7.677166D-02
              MO Center= -8.8D-01,  8.0D-01,  9.5D-01, r^2= 1.1D+00
   Bfn.  Coefficient  Atom+Function         Bfn.  Coefficient  Atom+Function  
  ----- ------------  ---------------      ----- ------------  ---------------
    37      0.955856  6 H  s                 32     -0.710045  5 H  s          
    36      0.554024  6 H  s                 31     -0.215369  5 H  s          
     3      0.157418  1 C  s          

 Vector    7  Occ=0.000000D+00  E= 2.061072D-01
              MO Center=  3.6D-01, -3.2D-01, -3.9D-01, r^2= 4.5D+00
   Bfn.  Coefficient  Atom+Function         Bfn.  Coefficient  Atom+Function  
  ----- ------------  ---------------      ----- ------------  ---------------
     3      2.056647  1 C  s                 17     -1.295739  2 H  s          
    22     -1.295739  3 H  s                 27     -1.295477  4 H  s          
    32      0.971392  5 H  s                  9     -0.543025  1 C  pz         
     7      0.499685  1 C  px                 8     -0.452563  1 C  py         

 Vector    8  Occ=0.000000D+00  E= 2.607318D-01
              MO Center= -1.7D-01, -8.0D-01, -4.2D-01, r^2= 3.9D+00
   Bfn.  Coefficient  Atom+Function         Bfn.  Coefficient  Atom+Function  
  ----- ------------  ---------------      ----- ------------  ---------------
    22      2.194958  3 H  s                 27     -1.587749  4 H  s          
     7      1.110890  1 C  px                 9      0.828047  1 C  pz         
    17     -0.607471  2 H  s                  4      0.239318  1 C  px         
     8      0.233577  1 C  py                 6      0.178351  1 C  pz         

 Vector    9  Occ=0.000000D+00  E= 2.607347D-01
              MO Center=  8.5D-01,  1.9D-01, -3.1D-01, r^2= 3.9D+00
   Bfn.  Coefficient  Atom+Function         Bfn.  Coefficient  Atom+Function  
  ----- ------------  ---------------      ----- ------------  ---------------
    17      2.184062  2 H  s                 27     -1.618092  4 H  s          
     8     -1.174540  1 C  py                 9      0.716033  1 C  pz         
    22     -0.565746  3 H  s                  7     -0.286403  1 C  px         
     5     -0.253042  1 C  py                 6      0.154187  1 C  pz         

 Vector   10  Occ=0.000000D+00  E= 4.184048D-01
              MO Center= -5.6D-01,  5.1D-01,  6.1D-01, r^2= 4.3D+00
   Bfn.  Coefficient  Atom+Function         Bfn.  Coefficient  Atom+Function  
  ----- ------------  ---------------      ----- ------------  ---------------
    32     12.113156  5 H  s                  3     -6.441873  1 C  s          
    37     -3.668713  6 H  s                 17     -1.217048  2 H  s          
    22     -1.217475  3 H  s                 27     -1.218252  4 H  s          
     9     -1.063836  1 C  pz                 7      0.979402  1 C  px         
     8     -0.886835  1 C  py                31     -0.192679  5 H  s          

 Vector   11  Occ=0.000000D+00  E= 5.631267D-01
              MO Center=  2.8D-03, -7.7D-02,  1.7D-01, r^2= 2.3D+00
   Bfn.  Coefficient  Atom+Function         Bfn.  Coefficient  Atom+Function  
  ----- ------------  ---------------      ----- ------------  ---------------
     8      1.050836  1 C  py                 7      0.899451  1 C  px         
    16     -0.659450  2 H  s                 21      0.579092  3 H  s          
    12      0.218378  1 C  dxz               14      0.203781  1 C  dyz        
     5     -0.201876  1 C  py                 4     -0.174921  1 C  px         

 Vector   12  Occ=0.000000D+00  E= 5.632147D-01
              MO Center= -8.0D-02,  1.5D-01, -8.8D-02, r^2= 2.3D+00
   Bfn.  Coefficient  Atom+Function         Bfn.  Coefficient  Atom+Function  
  ----- ------------  ---------------      ----- ------------  ---------------
     9      1.057432  1 C  pz                26     -0.717901  4 H  s          
     7      0.692596  1 C  px                 8     -0.565483  1 C  py         
    21      0.426317  3 H  s                 16      0.283070  2 H  s          
    11      0.247059  1 C  dxy                6     -0.207271  1 C  pz         
    27     -0.172513  4 H  s          

 Vector   13  Occ=0.000000D+00  E= 5.683053D-01
              MO Center= -2.1D-01,  1.9D-01,  2.2D-01, r^2= 3.7D+00
   Bfn.  Coefficient  Atom+Function         Bfn.  Coefficient  Atom+Function  
  ----- ------------  ---------------      ----- ------------  ---------------
    32      7.714307  5 H  s                  3     -3.634687  1 C  s          
    37     -2.594462  6 H  s                  9     -1.600377  1 C  pz         
     7      1.456323  1 C  px                 8     -1.309524  1 C  py         
    17     -0.848042  2 H  s                 22     -0.846484  3 H  s          
    27     -0.843210  4 H  s                 36      0.712329  6 H  s          

 Vector   14  Occ=0.000000D+00  E= 6.420302D-01
              MO Center= -3.4D-01,  3.0D-01,  3.6D-01, r^2= 3.7D+00
   Bfn.  Coefficient  Atom+Function         Bfn.  Coefficient  Atom+Function  
  ----- ------------  ---------------      ----- ------------  ---------------
    32     10.003819  5 H  s                  3     -6.380796  1 C  s          
     9     -2.207299  1 C  pz                 7      2.031230  1 C  px         
     8     -1.839190  1 C  py                17     -1.191382  2 H  s          
    22     -1.191149  3 H  s                 27     -1.190990  4 H  s          
    36     -0.749092  6 H  s                 37     -0.734902  6 H  s          

 Vector   15  Occ=0.000000D+00  E= 8.660813D-01
              MO Center=  2.3D-02, -3.5D-02, -3.9D-01, r^2= 2.3D+00
   Bfn.  Coefficient  Atom+Function         Bfn.  Coefficient  Atom+Function  
  ----- ------------  ---------------      ----- ------------  ---------------
    22     -1.633577  3 H  s                 17      1.525185  2 H  s          
     7     -1.258909  1 C  px                 8     -1.164450  1 C  py         
     4      0.522993  1 C  px                 5      0.483774  1 C  py         
    14      0.414882  1 C  dyz               12      0.396018  1 C  dxz        
    21      0.321442  3 H  s                 16     -0.300106  2 H  s          

 Vector   16  Occ=0.000000D+00  E= 8.661388D-01
              MO Center=  3.0D-01, -2.6D-01,  4.4D-02, r^2= 2.3D+00
   Bfn.  Coefficient  Atom+Function         Bfn.  Coefficient  Atom+Function  
  ----- ------------  ---------------      ----- ------------  ---------------
    27      1.824206  4 H  s                  9     -1.330283  1 C  pz         
    17     -1.004447  2 H  s                  8      0.899039  1 C  py         
    22     -0.818257  3 H  s                  7     -0.631807  1 C  px         
     6      0.552550  1 C  pz                11      0.493501  1 C  dxy        
     5     -0.373439  1 C  py                26     -0.358900  4 H  s          


 center of mass
 --------------
 x =   0.03355689 y =  -0.03037077 z =  -0.03644188

 moments of inertia (a.u.)
 ------------------
          13.587320115234           1.463848124749           1.756396676983
           1.463848124749          13.880143080335          -1.589775153087
           1.756396676983          -1.589775153087          13.292682024656

  Mulliken analysis of the total density
  --------------------------------------

    Atom       Charge   Shell Charges
 -----------   ------   -------------------------------------------------------
    1 C    6     5.35   1.99  0.60 -0.25  2.46  0.52  0.02
    2 H    1     0.94   0.76  0.14  0.04
    3 H    1     0.94   0.76  0.14  0.04
    4 H    1     0.94   0.76  0.14  0.04
    5 H    1     1.72   1.08  0.63  0.00
    6 H    1     1.12   0.56  0.54  0.01

 Mulliken analysis of the open-shell density
 -------------------------------------------

    Atom       Charge   Shell Charges
 -----------   ------   -------------------------------------------------------
    1 C    6     0.07   0.00  0.01  0.02  0.04 -0.01 -0.00
    2 H    1     0.01  -0.00  0.01  0.00
    3 H    1     0.01  -0.00  0.01  0.00
    4 H    1     0.01  -0.00  0.01  0.00
    5 H    1    -0.26   0.01 -0.28  0.01
    6 H    1     1.16   0.44  0.71  0.01

       Multipole analysis of the density wrt the origin
       ------------------------------------------------

     L   x y z        total         open         nuclear
     -   - - -        -----         ----         -------
     0   0 0 0     -0.000000     -1.000000     11.000000

     1   1 0 0      0.349608      1.660445      0.000000
     1   0 1 0     -0.316507     -1.503403     -0.000000
     1   0 0 1     -0.379885     -1.803912      0.000000

     2   2 0 0     -7.403168     -4.049850      6.704558
     2   1 1 0      0.821804      2.674937     -1.420395
     2   1 0 1      0.986194      3.209584     -1.704258
     2   0 2 0     -7.239942     -3.517445      6.420421
     2   0 1 1     -0.893092     -2.906033      1.542585
     2   0 0 2     -7.565847     -4.582431      6.990550

                   NWChem Extensible Many-Electron Theory Module
                   ---------------------------------------------

              ======================================================
                   This portion of the program was automatically
                  generated by a Tensor Contraction Engine (TCE).
                  The development of this portion of the program
                 and TCE was supported by US Department of Energy,
                Office of Science, Office of Basic Energy Science.
                      TCE is a product of Battelle and PNNL.
              Please cite: S.Hirata, J.Phys.Chem.A 107, 9887 (2003).
              ======================================================

            General Information
            -------------------
      Number of processors :     4
         Wavefunction type : Restricted open-shell Hartree-Fock
          No. of electrons :    11
           Alpha electrons :     6
            Beta electrons :     5
           No. of orbitals :    80
            Alpha orbitals :    40
             Beta orbitals :    40
        Alpha frozen cores :     0
         Beta frozen cores :     0
     Alpha frozen virtuals :     0
      Beta frozen virtuals :     0
         Spin multiplicity : doublet 
    Number of AO functions :    40
       Number of AO shells :    21
        Use of symmetry is : off
      Symmetry adaption is : off
         Schwarz screening : 0.10D-09

          Correlation Information
          -----------------------
          Calculation type : Coupled-cluster singles & doubles                           
   Perturbative correction : none                                                        
            Max iterations :      100
        Residual threshold : 0.10D-06
     T(0) DIIS level shift : 0.00D+00
     L(0) DIIS level shift : 0.00D+00
     T(1) DIIS level shift : 0.00D+00
     L(1) DIIS level shift : 0.00D+00
     T(R) DIIS level shift : 0.00D+00
     T(I) DIIS level shift : 0.00D+00
   CC-T/L Amplitude update :  5-th order DIIS
                I/O scheme : Global Array Library
        L-threshold :  0.10D-06
        EOM-threshold :  0.10D-06
 no EOMCCSD initial starts read in
 TCE RESTART OPTIONS
 READ_INT:   F
 WRITE_INT:  F
 READ_TA:    F
 WRITE_TA:   F
 READ_XA:    F
 WRITE_XA:   F
 READ_IN3:   F
 WRITE_IN3:  F
 SLICE:      F
 D4D5:       F

            Memory Information
            ------------------
          Available GA space size is     689974144 doubles
          Available MA space size is     172491876 doubles

 Maximum block size        32 doubles

 tile_dim =     18

 Block   Spin    Irrep     Size     Offset   Alpha
 -------------------------------------------------
   1    alpha     a      6 doubles       0       1
   2    beta      a      5 doubles       6       2
   3    alpha     a     17 doubles      11       3
   4    alpha     a     17 doubles      28       4
   5    beta      a     17 doubles      45       5
   6    beta      a     18 doubles      62       6

 Global array virtual files algorithm will be used

 Parallel file system coherency ......... OK

 Fock matrix recomputed
 1-e file size   =             3200
 1-e file name   = ./methane-plus-h-dat.f1
 Cpu & wall time / sec            0.0            0.0

 tce_ao2e: fast2e=1
 half-transformed integrals in memory

 2-e (intermediate) file size =         6121600
 2-e (intermediate) file name = ./methane-plus-h-dat.v2i
 Cpu & wall time / sec            0.3            0.3

 tce_mo2e: fast2e=1
 2-e integrals stored in memory

 2-e file size   =          5037610
 2-e file name   = ./methane-plus-h-dat.v2
 Cpu & wall time / sec            0.1            0.1
 T1-number-of-tasks                    4

 t1 file size   =              379
 t1 file name   = ./methane-plus-h-dat.t1
 t1 file handle =       -998
 T2-number-of-boxes                   10

 t2 file size   =            89887
 t2 file name   = ./methane-plus-h-dat.t2
 t2 file handle =       -995

 CCSD iterations
 -----------------------------------------------------------------
 Iter          Residuum       Correlation     Cpu    Wall    V2*C2
 -----------------------------------------------------------------
    1   0.1136808718797  -0.1730445936707     0.0     0.0     0.0
    2   0.0291042734894  -0.1894044216772     0.0     0.0     0.0
    3   0.0099855552304  -0.1926354573267     0.0     0.0     0.0
    4   0.0038769069312  -0.1934829957830     0.0     0.0     0.0
    5   0.0016710333726  -0.1937449920679     0.0     0.0     0.0
 MICROCYCLE DIIS UPDATE:                    5                    5
    6   0.0004241193729  -0.1938909801191     0.0     0.0     0.0
    7   0.0001312402851  -0.1939032813186     0.0     0.0     0.0
    8   0.0000567812473  -0.1939018647168     0.0     0.0     0.0
    9   0.0000248109215  -0.1939022392618     0.0     0.0     0.0
   10   0.0000126057332  -0.1939023411681     0.0     0.0     0.0
 MICROCYCLE DIIS UPDATE:                   10                    5
   11   0.0000035683528  -0.1939023705765     0.0     0.0     0.0
   12   0.0000012186630  -0.1939026103757     0.0     0.0     0.0
   13   0.0000005735837  -0.1939026556032     0.0     0.0     0.0
   14   0.0000002623150  -0.1939026761418     0.0     0.0     0.0
   15   0.0000001621697  -0.1939026801706     0.0     0.0     0.0
 MICROCYCLE DIIS UPDATE:                   15                    5
   16   0.0000000514255  -0.1939026859634     0.0     0.0     0.0
 -----------------------------------------------------------------
 Iterations converged
 CCSD correlation energy / hartree =        -0.193902685963366
 CCSD total energy / hartree       =       -39.958003501326999

 Singles contributions

 Doubles contributions


                           Geometry "first" -> "      "
                           ----------------------------

 Output coordinates in angstroms (scale by  1.889725989 to convert to a.u.)

  No.       Tag          Charge          X              Y              Z
 ---- ---------------- ---------- -------------- -------------- --------------
    1 C                    6.0000     0.05082655    -0.04600073    -0.05519627
    2 H                    1.0000     0.65039655     0.60520927    -0.59846627
    3 H                    1.0000    -0.54884345    -0.58896073    -0.70665627
    4 H                    1.0000     0.65039655    -0.69722073     0.48807373
    5 H                    1.0000    -0.24900945     0.22547327     0.27053373

      Atomic Mass 
      ----------- 

      C                 12.000000
      H                  1.007825


 Effective nuclear repulsion energy (a.u.)       0.0000000000

            Nuclear Dipole moment (a.u.) 
            ----------------------------
        X                 Y               Z
 ---------------- ---------------- ----------------
     0.0000000000     0.0000000000     0.0000000000



                          Geometry "second" -> "       "
                          ------------------------------

 Output coordinates in angstroms (scale by  1.889725989 to convert to a.u.)

  No.       Tag          Charge          X              Y              Z
 ---- ---------------- ---------- -------------- -------------- --------------
    1 H                    1.0000    -0.80789945     0.73150327     0.87769273

      Atomic Mass 
      ----------- 

      H                  1.007825


 Effective nuclear repulsion energy (a.u.)       0.0000000000

            Nuclear Dipole moment (a.u.) 
            ----------------------------
        X                 Y               Z
 ---------------- ---------------- ----------------
     0.0000000000     0.0000000000     0.0000000000

                                 NWChem SCF Module
                                 -----------------



  ao basis        = "ao basis"
  functions       =    35
  atoms           =     5
  closed shells   =     5
  open shells     =     0
  charge          =   0.00
  wavefunction    = RHF 
  input vectors   = atomic
  output vectors  = ./first.bsse.movecs
  use symmetry    = F
  symmetry adapt  = F


 Summary of "ao basis" -> "ao basis" (cartesian)
 ------------------------------------------------------------------------------
       Tag                 Description            Shells   Functions and Types
 ---------------- ------------------------------  ------  ---------------------
 H                          cc-pvdz                  3        5   2s1p
 C                          cc-pvdz                  6       15   3s2p1d
 bqH                        cc-pvdz                  3        5   2s1p
 bqC                        cc-pvdz                  6       15   3s2p1d



 Forming initial guess at       1.6s


      Superposition of Atomic Density Guess
      -------------------------------------

 Sum of atomic energies:         -39.66326211

      Non-variational initial energy
      ------------------------------

 Total energy =     -40.239263
 1-e energy   =     -83.254878
 2-e energy   =      25.580116
 HOMO         =      -0.615448
 LUMO         =       0.109662


 Starting SCF solution at       1.7s



 ----------------------------------------------
         Quadratically convergent ROHF

 Convergence threshold     :          1.000E-04
 Maximum no. of iterations :           30
 Final Fock-matrix accuracy:          1.000E-07
 ----------------------------------------------


              iter       energy          gnorm     gmax       time
             ----- ------------------- --------- --------- --------
                 1      -39.3010665185  8.52D-01  3.14D-01      1.7
                 2      -39.3438519371  1.96D-01  7.67D-02      1.7
                 3      -39.3473299751  8.20D-03  3.75D-03      1.8
                 4      -39.3473373745  6.39D-05  2.22D-05      1.9


       Final RHF  results 
       ------------------ 

         Total SCF energy =    -39.347337374504
      One-electron energy =    -85.465901728141
      Two-electron energy =     28.683064890061
 Nuclear repulsion energy =     17.435499463576

        Time for solution =      0.3s


             Final eigenvalues
             -----------------

              1      
    1  -11.2181
    2   -1.0593
    3   -0.6571
    4   -0.5577
    5   -0.5576
    6    0.2006
    7    0.2790
    8    0.2791
    9    0.2938
   10    0.5759
   11    0.5966
   12    0.5967
   13    0.8952
   14    0.8953
   15    0.9508

                       ROHF Final Molecular Orbital Analysis
                       -------------------------------------

 Vector    2  Occ=2.000000D+00  E=-1.059330D+00
              MO Center= -7.0D-02,  6.4D-02,  7.6D-02, r^2= 7.0D-01
   Bfn.  Coefficient  Atom+Function         Bfn.  Coefficient  Atom+Function  
  ----- ------------  ---------------      ----- ------------  ---------------
    31      0.413826  5 H  s                  2      0.285052  1 C  s          
    32      0.215046  5 H  s                 16      0.172557  2 H  s          
    21      0.172550  3 H  s                 26      0.172573  4 H  s          

 Vector    3  Occ=2.000000D+00  E=-6.570819D-01
              MO Center=  1.3D-01, -1.2D-01, -1.5D-01, r^2= 9.1D-01
   Bfn.  Coefficient  Atom+Function         Bfn.  Coefficient  Atom+Function  
  ----- ------------  ---------------      ----- ------------  ---------------
    31      0.424061  5 H  s                  3     -0.348146  1 C  s          
     6      0.316547  1 C  pz                 4     -0.291222  1 C  px         
     5      0.263503  1 C  py                32      0.241147  5 H  s          
    16     -0.162962  2 H  s                 21     -0.162750  3 H  s          
    26     -0.162507  4 H  s          

 Vector    4  Occ=2.000000D+00  E=-5.577189D-01
              MO Center=  2.3D-01, -2.5D-01,  2.4D-02, r^2= 1.1D+00
   Bfn.  Coefficient  Atom+Function         Bfn.  Coefficient  Atom+Function  
  ----- ------------  ---------------      ----- ------------  ---------------
    26      0.366068  4 H  s                  6      0.349210  1 C  pz         
     5     -0.205234  1 C  py                 4      0.194037  1 C  px         
    21     -0.193459  3 H  s                 16     -0.172337  2 H  s          

 Vector    5  Occ=2.000000D+00  E=-5.576189D-01
              MO Center=  5.9D-02, -7.3D-03, -3.4D-01, r^2= 1.1D+00
   Bfn.  Coefficient  Atom+Function         Bfn.  Coefficient  Atom+Function  
  ----- ------------  ---------------      ----- ------------  ---------------
     5      0.323401  1 C  py                16      0.322983  2 H  s          
     4      0.311187  1 C  px                21     -0.310891  3 H  s          

 Vector    6  Occ=0.000000D+00  E= 2.006292D-01
              MO Center=  3.9D-02, -3.5D-02, -4.2D-02, r^2= 4.6D+00
   Bfn.  Coefficient  Atom+Function         Bfn.  Coefficient  Atom+Function  
  ----- ------------  ---------------      ----- ------------  ---------------
     3      3.309249  1 C  s                 32     -1.419949  5 H  s          
    17     -0.887241  2 H  s                 22     -0.887366  3 H  s          
    27     -0.887414  4 H  s          

 Vector    7  Occ=0.000000D+00  E= 2.790437D-01
              MO Center=  2.8D-01, -8.8D-01,  5.1D-02, r^2= 3.9D+00
   Bfn.  Coefficient  Atom+Function         Bfn.  Coefficient  Atom+Function  
  ----- ------------  ---------------      ----- ------------  ---------------
    27      2.171808  4 H  s                 22     -1.700197  3 H  s          
     9     -1.069750  1 C  pz                 7     -0.854807  1 C  px         
    17     -0.475161  2 H  s                  8      0.335643  1 C  py         
     6     -0.234135  1 C  pz                 4     -0.187268  1 C  px         

 Vector    8  Occ=0.000000D+00  E= 2.790512D-01
              MO Center=  4.0D-01,  2.7D-01, -7.9D-01, r^2= 3.9D+00
   Bfn.  Coefficient  Atom+Function         Bfn.  Coefficient  Atom+Function  
  ----- ------------  ---------------      ----- ------------  ---------------
    17      2.236538  2 H  s                 22     -1.526988  3 H  s          
     8     -1.152707  1 C  py                 7     -0.770496  1 C  px         
    27     -0.706330  4 H  s                  9      0.254214  1 C  pz         
     5     -0.252507  1 C  py                 4     -0.168673  1 C  px         

 Vector    9  Occ=0.000000D+00  E= 2.938404D-01
              MO Center= -5.1D-01,  4.6D-01,  5.6D-01, r^2= 3.8D+00
   Bfn.  Coefficient  Atom+Function         Bfn.  Coefficient  Atom+Function  
  ----- ------------  ---------------      ----- ------------  ---------------
    32      5.300797  5 H  s                  3     -2.317348  1 C  s          
    17     -1.144049  2 H  s                 22     -1.145991  3 H  s          
    27     -1.149442  4 H  s                  9     -1.069124  1 C  pz         
     7      0.985591  1 C  px                 8     -0.893583  1 C  py         
     6     -0.151428  1 C  pz         

 Vector   10  Occ=0.000000D+00  E= 5.759332D-01
              MO Center=  3.9D-01, -3.5D-01, -4.2D-01, r^2= 2.2D+00
   Bfn.  Coefficient  Atom+Function         Bfn.  Coefficient  Atom+Function  
  ----- ------------  ---------------      ----- ------------  ---------------
    32      3.935159  5 H  s                  3     -2.427608  1 C  s          
     9     -1.683076  1 C  pz                 7      1.553167  1 C  px         
     8     -1.408561  1 C  py                31      0.657427  5 H  s          
    17     -0.561718  2 H  s                 22     -0.561483  3 H  s          
    27     -0.561644  4 H  s                 26     -0.263946  4 H  s          

 Vector   11  Occ=0.000000D+00  E= 5.965691D-01
              MO Center=  3.7D-02, -1.1D-01,  1.7D-01, r^2= 2.3D+00
   Bfn.  Coefficient  Atom+Function         Bfn.  Coefficient  Atom+Function  
  ----- ------------  ---------------      ----- ------------  ---------------
     8      1.078910  1 C  py                 7      0.963677  1 C  px         
    16     -0.668697  2 H  s                 21      0.597372  3 H  s          
    12      0.208375  1 C  dxz               17     -0.199340  2 H  s          
     5     -0.198187  1 C  py                14      0.196492  1 C  dyz        
     4     -0.176714  1 C  px                22      0.176414  3 H  s          

 Vector   12  Occ=0.000000D+00  E= 5.966646D-01
              MO Center= -6.9D-02,  1.4D-01, -1.3D-01, r^2= 2.3D+00
   Bfn.  Coefficient  Atom+Function         Bfn.  Coefficient  Atom+Function  
  ----- ------------  ---------------      ----- ------------  ---------------
     9      1.133475  1 C  pz                26     -0.730181  4 H  s          
     7      0.681443  1 C  px                 8     -0.589203  1 C  py         
    21      0.427517  3 H  s                 16      0.305117  2 H  s          
    11      0.238721  1 C  dxy               27     -0.216056  4 H  s          
     6     -0.207450  1 C  pz         

 Vector   13  Occ=0.000000D+00  E= 8.952436D-01
              MO Center=  1.9D-02, -3.7D-02, -3.9D-01, r^2= 2.3D+00
   Bfn.  Coefficient  Atom+Function         Bfn.  Coefficient  Atom+Function  
  ----- ------------  ---------------      ----- ------------  ---------------
    22     -1.610960  3 H  s                 17      1.490174  2 H  s          
     7     -1.240777  1 C  px                 8     -1.135688  1 C  py         
     4      0.529040  1 C  px                 5      0.484284  1 C  py         
    14      0.412778  1 C  dyz               12      0.392113  1 C  dxz        
    21      0.325709  3 H  s                 16     -0.301217  2 H  s          

 Vector   14  Occ=0.000000D+00  E= 8.953012D-01
              MO Center=  3.0D-01, -2.5D-01,  4.5D-02, r^2= 2.3D+00
   Bfn.  Coefficient  Atom+Function         Bfn.  Coefficient  Atom+Function  
  ----- ------------  ---------------      ----- ------------  ---------------
    27      1.790778  4 H  s                  9     -1.304317  1 C  pz         
    17     -0.998868  2 H  s                  8      0.891548  1 C  py         
    22     -0.790829  3 H  s                  7     -0.609954  1 C  px         
     6      0.556029  1 C  pz                11      0.490914  1 C  dxy        
     5     -0.380129  1 C  py                26     -0.362055  4 H  s          

 Vector   15  Occ=0.000000D+00  E= 9.508029D-01
              MO Center=  3.1D-01, -2.8D-01, -3.3D-01, r^2= 2.3D+00
   Bfn.  Coefficient  Atom+Function         Bfn.  Coefficient  Atom+Function  
  ----- ------------  ---------------      ----- ------------  ---------------
     3      2.051036  1 C  s                 32      1.249049  5 H  s          
    17     -1.068523  2 H  s                 22     -1.067396  3 H  s          
    27     -1.067398  4 H  s                  9     -0.758768  1 C  pz         
     7      0.698519  1 C  px                 2     -0.630490  1 C  s          
     8     -0.631748  1 C  py                16      0.356233  2 H  s          


 center of mass
 --------------
 x =   0.13164466 y =  -0.11918240 z =  -0.14300245

 moments of inertia (a.u.)
 ------------------
           8.371819391675          -0.897258829012          -1.076575382523
          -0.897258829012           8.194741625354           0.975283351008
          -1.076575382523           0.975283351008           8.547146134390

  Mulliken analysis of the total density
  --------------------------------------

    Atom       Charge   Shell Charges
 -----------   ------   -------------------------------------------------------
    1 C    6     5.74   1.99  0.55  0.05  2.47  0.65  0.02
    2 H    1     0.98   0.77  0.18  0.04
    3 H    1     0.98   0.77  0.18  0.04
    4 H    1     0.98   0.77  0.18  0.04
    5 H    1     1.32   1.04  0.30 -0.01

       Multipole analysis of the density wrt the origin
       ------------------------------------------------

     L   x y z        total         open         nuclear
     -   - - -        -----         ----         -------
     0   0 0 0     -0.000000      0.000000     10.000000

     1   1 0 0      0.008255      0.000000      1.526709
     1   0 1 0     -0.007453      0.000000     -1.382341
     1   0 0 1     -0.009011      0.000000     -1.658599

     2   2 0 0     -5.676794      0.000000      4.373719
     2   1 1 0      0.072372      0.000000      0.690037
     2   1 0 1      0.086909      0.000000      0.827939
     2   0 2 0     -5.662780      0.000000      4.509556
     2   0 1 1     -0.078899      0.000000     -0.750163
     2   0 0 2     -5.690243      0.000000      4.239600

                   NWChem Extensible Many-Electron Theory Module
                   ---------------------------------------------

              ======================================================
                   This portion of the program was automatically
                  generated by a Tensor Contraction Engine (TCE).
                  The development of this portion of the program
                 and TCE was supported by US Department of Energy,
                Office of Science, Office of Basic Energy Science.
                      TCE is a product of Battelle and PNNL.
              Please cite: S.Hirata, J.Phys.Chem.A 107, 9887 (2003).
              ======================================================

            General Information
            -------------------
      Number of processors :     4
         Wavefunction type : Restricted Hartree-Fock
          No. of electrons :    10
           Alpha electrons :     5
            Beta electrons :     5
           No. of orbitals :    70
            Alpha orbitals :    35
             Beta orbitals :    35
        Alpha frozen cores :     0
         Beta frozen cores :     0
     Alpha frozen virtuals :     0
      Beta frozen virtuals :     0
         Spin multiplicity : singlet 
    Number of AO functions :    35
       Number of AO shells :    18
        Use of symmetry is : off
      Symmetry adaption is : off
         Schwarz screening : 0.10D-09

          Correlation Information
          -----------------------
          Calculation type : Coupled-cluster singles & doubles                           
   Perturbative correction : none                                                        
            Max iterations :      100
        Residual threshold : 0.10D-06
     T(0) DIIS level shift : 0.00D+00
     L(0) DIIS level shift : 0.00D+00
     T(1) DIIS level shift : 0.00D+00
     L(1) DIIS level shift : 0.00D+00
     T(R) DIIS level shift : 0.00D+00
     T(I) DIIS level shift : 0.00D+00
   CC-T/L Amplitude update :  5-th order DIIS
                I/O scheme : Global Array Library
        L-threshold :  0.10D-06
        EOM-threshold :  0.10D-06
 no EOMCCSD initial starts read in
 TCE RESTART OPTIONS
 READ_INT:   F
 WRITE_INT:  F
 READ_TA:    F
 WRITE_TA:   F
 READ_XA:    F
 WRITE_XA:   F
 READ_IN3:   F
 WRITE_IN3:  F
 SLICE:      F
 D4D5:       F

            Memory Information
            ------------------
          Available GA space size is     689976119 doubles
          Available MA space size is     172492188 doubles

 Maximum block size        32 doubles

 tile_dim =     30

 Block   Spin    Irrep     Size     Offset   Alpha
 -------------------------------------------------
   1    alpha     a      5 doubles       0       1
   2    beta      a      5 doubles       5       1
   3    alpha     a     30 doubles      10       3
   4    beta      a     30 doubles      40       3

 Global array virtual files algorithm will be used

 Parallel file system coherency ......... OK

 Fock matrix recomputed
 1-e file size   =             1225
 1-e file name   = ./methane-plus-h-dat.f1
 Cpu & wall time / sec            0.0            0.0

 tce_ao2e: fast2e=1
 half-transformed integrals in memory

 2-e (intermediate) file size =         4134375
 2-e (intermediate) file name = ./methane-plus-h-dat.v2i
 Cpu & wall time / sec            0.2            0.2

 tce_mo2e: fast2e=1
 2-e integrals stored in memory

 2-e file size   =          2656250
 2-e file name   = ./methane-plus-h-dat.v2
 Cpu & wall time / sec            0.0            0.1
 T1-number-of-tasks                    1

 t1 file size   =              150
 t1 file name   = ./methane-plus-h-dat.t1
 t1 file handle =       -999
 T2-number-of-boxes                    2

 t2 file size   =            45000
 t2 file name   = ./methane-plus-h-dat.t2
 t2 file handle =       -996

 CCSD iterations
 -----------------------------------------------------------------
 Iter          Residuum       Correlation     Cpu    Wall    V2*C2
 -----------------------------------------------------------------
    1   0.1106645826388  -0.1618202057045     0.0     0.0     0.0
    2   0.0284352373476  -0.1784330952057     0.0     0.0     0.0
    3   0.0096120141724  -0.1815636766083     0.0     0.0     0.0
    4   0.0036977690048  -0.1823841049333     0.0     0.0     0.0
    5   0.0015270438051  -0.1826431733770     0.0     0.0     0.0
 MICROCYCLE DIIS UPDATE:                    5                    5
    6   0.0001498961023  -0.1827985109478     0.0     0.0     0.0
    7   0.0000490838938  -0.1827916925082     0.0     0.0     0.0
    8   0.0000201070366  -0.1827914183578     0.0     0.0     0.0
    9   0.0000087215823  -0.1827912556861     0.0     0.0     0.0
   10   0.0000038849021  -0.1827912272928     0.0     0.0     0.0
 MICROCYCLE DIIS UPDATE:                   10                    5
   11   0.0000003782364  -0.1827912076397     0.0     0.0     0.0
   12   0.0000001112744  -0.1827912418055     0.0     0.0     0.0
   13   0.0000000441303  -0.1827912478830     0.0     0.0     0.0
 -----------------------------------------------------------------
 Iterations converged
 CCSD correlation energy / hartree =        -0.182791247883031
 CCSD total energy / hartree       =       -39.530128622387124

 Singles contributions

 Doubles contributions
                                 NWChem SCF Module
                                 -----------------



  ao basis        = "ao basis"
  functions       =    40
  atoms           =     6
  closed shells   =     5
  open shells     =     0
  charge          =   0.00
  wavefunction    = RHF 
  input vectors   = atomic
  output vectors  = ./firstg.bsse.movecs
  use symmetry    = F
  symmetry adapt  = F


 Summary of "ao basis" -> "ao basis" (cartesian)
 ------------------------------------------------------------------------------
       Tag                 Description            Shells   Functions and Types
 ---------------- ------------------------------  ------  ---------------------
 H                          cc-pvdz                  3        5   2s1p
 C                          cc-pvdz                  6       15   3s2p1d
 bqH                        cc-pvdz                  3        5   2s1p
 bqC                        cc-pvdz                  6       15   3s2p1d



 Forming initial guess at       2.6s


      Superposition of Atomic Density Guess
      -------------------------------------

 Sum of atomic energies:         -39.66326211

      Non-variational initial energy
      ------------------------------

 Total energy =     -40.239263
 1-e energy   =     -83.254878
 2-e energy   =      25.580116
 HOMO         =      -0.615466
 LUMO         =       0.105171


 Starting SCF solution at       2.6s



 ----------------------------------------------
         Quadratically convergent ROHF

 Convergence threshold     :          1.000E-04
 Maximum no. of iterations :           30
 Final Fock-matrix accuracy:          1.000E-07
 ----------------------------------------------


              iter       energy          gnorm     gmax       time
             ----- ------------------- --------- --------- --------
                 1      -39.3035455536  8.54D-01  3.15D-01      2.6
                 2      -39.3463676653  1.97D-01  6.19D-02      2.7
                 3      -39.3498508357  8.35D-03  3.22D-03      2.8
                 4      -39.3498584298  6.62D-05  2.17D-05      2.9


       Final RHF  results 
       ------------------ 

         Total SCF energy =    -39.349858429804
      One-electron energy =    -85.467555222524
      Two-electron energy =     28.682197329145
 Nuclear repulsion energy =     17.435499463576

        Time for solution =      0.4s


             Final eigenvalues
             -----------------

              1      
    1  -11.2193
    2   -1.0597
    3   -0.6574
    4   -0.5577
    5   -0.5576
    6    0.1867
    7    0.2661
    8    0.2790
    9    0.2790
   10    0.4361
   11    0.5951
   12    0.5952
   13    0.6213
   14    0.8948
   15    0.8949

                       ROHF Final Molecular Orbital Analysis
                       -------------------------------------

 Vector    2  Occ=2.000000D+00  E=-1.059685D+00
              MO Center= -7.0D-02,  6.4D-02,  7.6D-02, r^2= 7.0D-01
   Bfn.  Coefficient  Atom+Function         Bfn.  Coefficient  Atom+Function  
  ----- ------------  ---------------      ----- ------------  ---------------
    32      0.644224  5 H  s                 31      0.427358  5 H  s          
     3     -0.351419  1 C  s                  2      0.308741  1 C  s          
    16      0.174445  2 H  s                 21      0.174437  3 H  s          
    26      0.174461  4 H  s          

 Vector    3  Occ=2.000000D+00  E=-6.573502D-01
              MO Center=  1.4D-01, -1.2D-01, -1.5D-01, r^2= 9.1D-01
   Bfn.  Coefficient  Atom+Function         Bfn.  Coefficient  Atom+Function  
  ----- ------------  ---------------      ----- ------------  ---------------
    32     -0.569743  5 H  s                  3      0.555792  1 C  s          
    31     -0.433392  5 H  s                  6     -0.316007  1 C  pz         
     4      0.290725  1 C  px                 5     -0.263053  1 C  py         
    16      0.161942  2 H  s                 21      0.161730  3 H  s          
    26      0.161487  4 H  s          

 Vector    4  Occ=2.000000D+00  E=-5.576851D-01
              MO Center=  2.3D-01, -2.5D-01,  2.4D-02, r^2= 1.1D+00
   Bfn.  Coefficient  Atom+Function         Bfn.  Coefficient  Atom+Function  
  ----- ------------  ---------------      ----- ------------  ---------------
    26      0.366379  4 H  s                  6      0.349525  1 C  pz         
     5     -0.205423  1 C  py                 4      0.194207  1 C  px         
    21     -0.193620  3 H  s                 16     -0.172490  2 H  s          

 Vector    5  Occ=2.000000D+00  E=-5.575852D-01
              MO Center=  5.9D-02, -7.2D-03, -3.4D-01, r^2= 1.1D+00
   Bfn.  Coefficient  Atom+Function         Bfn.  Coefficient  Atom+Function  
  ----- ------------  ---------------      ----- ------------  ---------------
     5      0.323689  1 C  py                16      0.323255  2 H  s          
     4      0.311470  1 C  px                21     -0.311157  3 H  s          

 Vector    6  Occ=0.000000D+00  E= 1.867356D-01
              MO Center= -2.2D-01,  2.0D-01,  2.4D-01, r^2= 5.0D+00
   Bfn.  Coefficient  Atom+Function         Bfn.  Coefficient  Atom+Function  
  ----- ------------  ---------------      ----- ------------  ---------------
     3      1.473449  1 C  s                 32      1.458913  5 H  s          
    37     -1.153602  6 bq s                 17     -1.014224  2 H  s          
    22     -1.014382  3 H  s                 27     -1.014540  4 H  s          
     9     -0.349127  1 C  pz                 7      0.321388  1 C  px         
     8     -0.291188  1 C  py         

 Vector    7  Occ=0.000000D+00  E= 2.661395D-01
              MO Center= -5.4D-01,  4.9D-01,  5.8D-01, r^2= 4.5D+00
   Bfn.  Coefficient  Atom+Function         Bfn.  Coefficient  Atom+Function  
  ----- ------------  ---------------      ----- ------------  ---------------
     3      1.519362  1 C  s                 37      1.524988  6 bq s          
    17     -0.809655  2 H  s                 22     -0.808050  3 H  s          
    27     -0.805041  4 H  s                  9     -0.428837  1 C  pz         
     7      0.393391  1 C  px                32     -0.388562  5 H  s          
     8     -0.355331  1 C  py         

 Vector    8  Occ=0.000000D+00  E= 2.789679D-01
              MO Center=  2.9D-01, -8.8D-01,  5.7D-02, r^2= 3.9D+00
   Bfn.  Coefficient  Atom+Function         Bfn.  Coefficient  Atom+Function  
  ----- ------------  ---------------      ----- ------------  ---------------
    27      2.182004  4 H  s                 22     -1.690595  3 H  s          
     9     -1.073426  1 C  pz                 7     -0.853446  1 C  px         
    17     -0.489460  2 H  s                  8      0.345789  1 C  py         
     6     -0.232653  1 C  pz                 4     -0.185081  1 C  px         

 Vector    9  Occ=0.000000D+00  E= 2.789755D-01
              MO Center=  4.0D-01,  2.6D-01, -8.0D-01, r^2= 3.9D+00
   Bfn.  Coefficient  Atom+Function         Bfn.  Coefficient  Atom+Function  
  ----- ------------  ---------------      ----- ------------  ---------------
    17      2.235417  2 H  s                 22     -1.542591  3 H  s          
     8     -1.154901  1 C  py                 7     -0.777756  1 C  px         
    27     -0.693994  4 H  s                  5     -0.250454  1 C  py         
     9      0.246533  1 C  pz                 4     -0.168607  1 C  px         

 Vector   10  Occ=0.000000D+00  E= 4.361343D-01
              MO Center= -5.3D-01,  4.8D-01,  5.7D-01, r^2= 4.3D+00
   Bfn.  Coefficient  Atom+Function         Bfn.  Coefficient  Atom+Function  
  ----- ------------  ---------------      ----- ------------  ---------------
    32     12.803799  5 H  s                  3     -6.915368  1 C  s          
    37     -3.641704  6 bq s                 17     -1.309124  2 H  s          
    22     -1.309532  3 H  s                 27     -1.310309  4 H  s          
     9     -1.231805  1 C  pz                 7      1.134044  1 C  px         
     8     -1.026870  1 C  py                31     -0.163824  5 H  s          

 Vector   11  Occ=0.000000D+00  E= 5.951004D-01
              MO Center=  2.5D-02, -9.6D-02,  1.7D-01, r^2= 2.3D+00
   Bfn.  Coefficient  Atom+Function         Bfn.  Coefficient  Atom+Function  
  ----- ------------  ---------------      ----- ------------  ---------------
     8      1.068982  1 C  py                 7      0.942790  1 C  px         
    16     -0.664119  2 H  s                 21      0.591589  3 H  s          
    12      0.217093  1 C  dxz               14      0.204931  1 C  dyz        
     5     -0.192243  1 C  py                17     -0.185475  2 H  s          
     4     -0.169984  1 C  px                22      0.166966  3 H  s          

 Vector   12  Occ=0.000000D+00  E= 5.951955D-01
              MO Center= -7.4D-02,  1.4D-01, -1.2D-01, r^2= 2.3D+00
   Bfn.  Coefficient  Atom+Function         Bfn.  Coefficient  Atom+Function  
  ----- ------------  ---------------      ----- ------------  ---------------
     9      1.104589  1 C  pz                26     -0.725789  4 H  s          
     7      0.686375  1 C  px                 8     -0.586395  1 C  py         
    21      0.424970  3 H  s                 16      0.298506  2 H  s          
    11      0.248199  1 C  dxy               27     -0.208089  4 H  s          
     6     -0.199525  1 C  pz         

 Vector   13  Occ=0.000000D+00  E= 6.213157D-01
              MO Center=  4.1D-01, -3.7D-01, -4.5D-01, r^2= 2.7D+00
   Bfn.  Coefficient  Atom+Function         Bfn.  Coefficient  Atom+Function  
  ----- ------------  ---------------      ----- ------------  ---------------
    32     11.609563  5 H  s                  3     -6.325998  1 C  s          
     9     -2.554610  1 C  pz                 7      2.347424  1 C  px         
    37     -2.311417  6 bq s                  8     -2.123870  1 C  py         
    17     -1.365576  2 H  s                 22     -1.364854  3 H  s          
    27     -1.363608  4 H  s                 31      0.604900  5 H  s          

 Vector   14  Occ=0.000000D+00  E= 8.948379D-01
              MO Center=  2.1D-02, -4.0D-02, -3.9D-01, r^2= 2.3D+00
   Bfn.  Coefficient  Atom+Function         Bfn.  Coefficient  Atom+Function  
  ----- ------------  ---------------      ----- ------------  ---------------
    22     -1.618775  3 H  s                 17      1.493152  2 H  s          
     7     -1.253709  1 C  px                 8     -1.144233  1 C  py         
     4      0.533475  1 C  px                 5      0.486964  1 C  py         
    14      0.418199  1 C  dyz               12      0.395241  1 C  dxz        
    21      0.319867  3 H  s                 16     -0.294999  2 H  s          

 Vector   15  Occ=0.000000D+00  E= 8.948944D-01
              MO Center=  3.0D-01, -2.5D-01,  4.2D-02, r^2= 2.3D+00
   Bfn.  Coefficient  Atom+Function         Bfn.  Coefficient  Atom+Function  
  ----- ------------  ---------------      ----- ------------  ---------------
    27      1.797184  4 H  s                  9     -1.315926  1 C  pz         
    17     -1.005804  2 H  s                  8      0.902598  1 C  py         
    22     -0.789800  3 H  s                  7     -0.612833  1 C  px         
     6      0.559857  1 C  pz                11      0.495413  1 C  dxy        
     5     -0.384069  1 C  py                26     -0.355079  4 H  s          


 center of mass
 --------------
 x =   0.13164466 y =  -0.11918240 z =  -0.14300245

 moments of inertia (a.u.)
 ------------------
           8.371819391675          -0.897258829012          -1.076575382523
          -0.897258829012           8.194741625354           0.975283351008
          -1.076575382523           0.975283351008           8.547146134390

  Mulliken analysis of the total density
  --------------------------------------

    Atom       Charge   Shell Charges
 -----------   ------   -------------------------------------------------------
    1 C    6     5.33   1.99  0.59 -0.27  2.47  0.53  0.02
    2 H    1     0.95   0.77  0.15  0.04
    3 H    1     0.95   0.77  0.15  0.04
    4 H    1     0.95   0.77  0.15  0.04
    5 H    1     1.97   1.07  0.91 -0.02
    6 X    0    -0.16   0.00 -0.15 -0.01

       Multipole analysis of the density wrt the origin
       ------------------------------------------------

     L   x y z        total         open         nuclear
     -   - - -        -----         ----         -------
     0   0 0 0      0.000000      0.000000     10.000000

     1   1 0 0      0.006052      0.000000      1.526709
     1   0 1 0     -0.005462      0.000000     -1.382341
     1   0 0 1     -0.006612      0.000000     -1.658599

     2   2 0 0     -5.678214      0.000000      4.373719
     2   1 1 0      0.058124      0.000000      0.690037
     2   1 0 1      0.069814      0.000000      0.827939
     2   0 2 0     -5.667041      0.000000      4.509556
     2   0 1 1     -0.063422      0.000000     -0.750163
     2   0 0 2     -5.688817      0.000000      4.239600

                   NWChem Extensible Many-Electron Theory Module
                   ---------------------------------------------

              ======================================================
                   This portion of the program was automatically
                  generated by a Tensor Contraction Engine (TCE).
                  The development of this portion of the program
                 and TCE was supported by US Department of Energy,
                Office of Science, Office of Basic Energy Science.
                      TCE is a product of Battelle and PNNL.
              Please cite: S.Hirata, J.Phys.Chem.A 107, 9887 (2003).
              ======================================================

            General Information
            -------------------
      Number of processors :     4
         Wavefunction type : Restricted Hartree-Fock
          No. of electrons :    10
           Alpha electrons :     5
            Beta electrons :     5
           No. of orbitals :    80
            Alpha orbitals :    40
             Beta orbitals :    40
        Alpha frozen cores :     0
         Beta frozen cores :     0
     Alpha frozen virtuals :     0
      Beta frozen virtuals :     0
         Spin multiplicity : singlet 
    Number of AO functions :    40
       Number of AO shells :    21
        Use of symmetry is : off
      Symmetry adaption is : off
         Schwarz screening : 0.10D-09

          Correlation Information
          -----------------------
          Calculation type : Coupled-cluster singles & doubles                           
   Perturbative correction : none                                                        
            Max iterations :      100
        Residual threshold : 0.10D-06
     T(0) DIIS level shift : 0.00D+00
     L(0) DIIS level shift : 0.00D+00
     T(1) DIIS level shift : 0.00D+00
     L(1) DIIS level shift : 0.00D+00
     T(R) DIIS level shift : 0.00D+00
     T(I) DIIS level shift : 0.00D+00
   CC-T/L Amplitude update :  5-th order DIIS
                I/O scheme : Global Array Library
        L-threshold :  0.10D-06
        EOM-threshold :  0.10D-06
 no EOMCCSD initial starts read in
 TCE RESTART OPTIONS
 READ_INT:   F
 WRITE_INT:  F
 READ_TA:    F
 WRITE_TA:   F
 READ_XA:    F
 WRITE_XA:   F
 READ_IN3:   F
 WRITE_IN3:  F
 SLICE:      F
 D4D5:       F

            Memory Information
            ------------------
          Available GA space size is     689975744 doubles
          Available MA space size is     172492044 doubles

 Maximum block size        32 doubles

 tile_dim =     18

 Block   Spin    Irrep     Size     Offset   Alpha
 -------------------------------------------------
   1    alpha     a      5 doubles       0       1
   2    beta      a      5 doubles       5       1
   3    alpha     a     17 doubles      10       3
   4    alpha     a     18 doubles      27       4
   5    beta      a     17 doubles      45       3
   6    beta      a     18 doubles      62       4

 Global array virtual files algorithm will be used

 Parallel file system coherency ......... OK

 Fock matrix recomputed
 1-e file size   =             1600
 1-e file name   = ./methane-plus-h-dat.f1
 Cpu & wall time / sec            0.0            0.0

 tce_ao2e: fast2e=1
 half-transformed integrals in memory

 2-e (intermediate) file size =         6140800
 2-e (intermediate) file name = ./methane-plus-h-dat.v2i
 Cpu & wall time / sec            0.3            0.3

 tce_mo2e: fast2e=1
 2-e integrals stored in memory

 2-e file size   =          3812161
 2-e file name   = ./methane-plus-h-dat.v2
 Cpu & wall time / sec            0.1            0.1
 T1-number-of-tasks                    2

 t1 file size   =              175
 t1 file name   = ./methane-plus-h-dat.t1
 t1 file handle =       -999
 T2-number-of-boxes                    7

 t2 file size   =            53600
 t2 file name   = ./methane-plus-h-dat.t2
 t2 file handle =       -996

 CCSD iterations
 -----------------------------------------------------------------
 Iter          Residuum       Correlation     Cpu    Wall    V2*C2
 -----------------------------------------------------------------
    1   0.1113983537789  -0.1633621338981     0.0     0.0     0.0
    2   0.0284560132304  -0.1800062732192     0.0     0.0     0.0
    3   0.0096006192321  -0.1831427888085     0.0     0.0     0.0
    4   0.0036912519264  -0.1839613184518     0.0     0.0     0.0
    5   0.0015239873709  -0.1842196397563     0.0     0.0     0.0
 MICROCYCLE DIIS UPDATE:                    5                    5
    6   0.0001624812360  -0.1843740231899     0.0     0.0     0.0
    7   0.0000533810089  -0.1843674808984     0.0     0.0     0.0
    8   0.0000215562314  -0.1843672750450     0.0     0.0     0.0
    9   0.0000093193777  -0.1843671378764     0.0     0.0     0.0
   10   0.0000041515301  -0.1843671217332     0.0     0.0     0.0
 MICROCYCLE DIIS UPDATE:                   10                    5
   11   0.0000005748939  -0.1843671099501     0.0     0.0     0.0
   12   0.0000001783660  -0.1843671420850     0.0     0.0     0.0
   13   0.0000000692312  -0.1843671510485     0.0     0.0     0.0
 -----------------------------------------------------------------
 Iterations converged
 CCSD correlation energy / hartree =        -0.184367151048538
 CCSD total energy / hartree       =       -39.534225580852102

 Singles contributions

 Doubles contributions
                                 NWChem SCF Module
                                 -----------------



  ao basis        = "ao basis"
  functions       =     5
  atoms           =     1
  closed shells   =     0
  open shells     =     1
  charge          =   0.00
  wavefunction    = ROHF
  input vectors   = atomic
  output vectors  = ./second.bsse.movecs
  use symmetry    = F
  symmetry adapt  = F


 Summary of "ao basis" -> "ao basis" (cartesian)
 ------------------------------------------------------------------------------
       Tag                 Description            Shells   Functions and Types
 ---------------- ------------------------------  ------  ---------------------
 H                          cc-pvdz                  3        5   2s1p
 C                          cc-pvdz                  6       15   3s2p1d
 bqH                        cc-pvdz                  3        5   2s1p
 bqC                        cc-pvdz                  6       15   3s2p1d



 Forming initial guess at       3.8s


      Superposition of Atomic Density Guess
      -------------------------------------

 Sum of atomic energies:          -0.49927900

      Non-variational initial energy
      ------------------------------

 Total energy =      -0.499278
 1-e energy   =      -0.499278
 2-e energy   =       0.000000
 HOMO         =      -0.499278
 LUMO         =       0.181933


 Starting SCF solution at       3.9s



 ----------------------------------------------
         Quadratically convergent ROHF

 Convergence threshold     :          1.000E-04
 Maximum no. of iterations :           30
 Final Fock-matrix accuracy:          1.000E-07
 ----------------------------------------------


              iter       energy          gnorm     gmax       time
             ----- ------------------- --------- --------- --------
                 1       -0.4992784034  8.18D-16  7.41D-16      3.8


       Final ROHF results 
       ------------------ 

         Total SCF energy =     -0.499278403420
      One-electron energy =     -0.499278403420
      Two-electron energy =      0.000000000000
 Nuclear repulsion energy =      0.000000000000

        Time for solution =      0.0s


             Final eigenvalues
             -----------------

              1      
    1   -0.1866
    2    0.6365
    3    1.5083
    4    1.5083
    5    1.5083

                       ROHF Final Molecular Orbital Analysis
                       -------------------------------------

 Vector    1  Occ=1.000000D+00  E=-1.866468D-01
              MO Center= -8.1D-01,  7.3D-01,  8.8D-01, r^2= 8.3D-01
   Bfn.  Coefficient  Atom+Function         Bfn.  Coefficient  Atom+Function  
  ----- ------------  ---------------      ----- ------------  ---------------
     1      0.587634  1 H  s                  2      0.501239  1 H  s          

 Vector    2  Occ=0.000000D+00  E= 6.365495D-01
              MO Center= -8.1D-01,  7.3D-01,  8.8D-01, r^2= 1.9D+00
   Bfn.  Coefficient  Atom+Function         Bfn.  Coefficient  Atom+Function  
  ----- ------------  ---------------      ----- ------------  ---------------
     2     -1.277544  1 H  s                  1      1.240179  1 H  s          

 Vector    3  Occ=0.000000D+00  E= 1.508331D+00
              MO Center= -8.1D-01,  7.3D-01,  8.8D-01, r^2= 4.8D-01
   Bfn.  Coefficient  Atom+Function         Bfn.  Coefficient  Atom+Function  
  ----- ------------  ---------------      ----- ------------  ---------------
     3      0.643588  1 H  px                 5      0.609840  1 H  pz         
     4     -0.462482  1 H  py         

 Vector    4  Occ=0.000000D+00  E= 1.508331D+00
              MO Center= -8.1D-01,  7.3D-01,  8.8D-01, r^2= 4.8D-01
   Bfn.  Coefficient  Atom+Function         Bfn.  Coefficient  Atom+Function  
  ----- ------------  ---------------      ----- ------------  ---------------
     3      0.738083  1 H  px                 5     -0.654436  1 H  pz         
     4      0.164158  1 H  py         

 Vector    5  Occ=0.000000D+00  E= 1.508331D+00
              MO Center= -8.1D-01,  7.3D-01,  8.8D-01, r^2= 4.8D-01
   Bfn.  Coefficient  Atom+Function         Bfn.  Coefficient  Atom+Function  
  ----- ------------  ---------------      ----- ------------  ---------------
     4      0.871300  1 H  py                 5      0.447000  1 H  pz         
     3      0.202554  1 H  px         


 center of mass
 --------------
 x =  -1.52670860 y =   1.38234075 z =   1.65859876

 moments of inertia (a.u.)
 ------------------
           0.000000000000           0.000000000000           0.000000000000
           0.000000000000           0.000000000000           0.000000000000
           0.000000000000           0.000000000000           0.000000000000

  Mulliken analysis of the total density
  --------------------------------------

    Atom       Charge   Shell Charges
 -----------   ------   -------------------------------------------------------
    1 H    1     1.00   0.55  0.45  0.00

 Mulliken analysis of the open-shell density
 -------------------------------------------

    Atom       Charge   Shell Charges
 -----------   ------   -------------------------------------------------------
    1 H    1     1.00   0.55  0.45  0.00

       Multipole analysis of the density wrt the origin
       ------------------------------------------------

     L   x y z        total         open         nuclear
     -   - - -        -----         ----         -------
     0   0 0 0     -0.000000     -1.000000      1.000000

     1   1 0 0      0.000000      1.526709     -1.526709
     1   0 1 0     -0.000000     -1.382341      1.382341
     1   0 0 1     -0.000000     -1.658599      1.658599

     2   2 0 0     -0.990852     -3.321692      2.330839
     2   1 1 0      0.000000      2.110431     -2.110431
     2   1 0 1      0.000000      2.532197     -2.532197
     2   0 2 0     -0.990852     -2.901718      1.910866
     2   0 1 1     -0.000000     -2.292749      2.292749
     2   0 0 2     -0.990852     -3.741802      2.750950

                   NWChem Extensible Many-Electron Theory Module
                   ---------------------------------------------

              ======================================================
                   This portion of the program was automatically
                  generated by a Tensor Contraction Engine (TCE).
                  The development of this portion of the program
                 and TCE was supported by US Department of Energy,
                Office of Science, Office of Basic Energy Science.
                      TCE is a product of Battelle and PNNL.
              Please cite: S.Hirata, J.Phys.Chem.A 107, 9887 (2003).
              ======================================================

            General Information
            -------------------
      Number of processors :     4
         Wavefunction type : Restricted open-shell Hartree-Fock
          No. of electrons :     1
           Alpha electrons :     1
            Beta electrons :     0
           No. of orbitals :    10
            Alpha orbitals :     5
             Beta orbitals :     5
        Alpha frozen cores :     0
         Beta frozen cores :     0
     Alpha frozen virtuals :     0
      Beta frozen virtuals :     0
         Spin multiplicity : doublet 
    Number of AO functions :     5
       Number of AO shells :     3
        Use of symmetry is : off
      Symmetry adaption is : off
         Schwarz screening : 0.10D-09

          Correlation Information
          -----------------------
          Calculation type : Coupled-cluster singles & doubles                           
   Perturbative correction : none                                                        
            Max iterations :      100
        Residual threshold : 0.10D-06
     T(0) DIIS level shift : 0.00D+00
     L(0) DIIS level shift : 0.00D+00
     T(1) DIIS level shift : 0.00D+00
     L(1) DIIS level shift : 0.00D+00
     T(R) DIIS level shift : 0.00D+00
     T(I) DIIS level shift : 0.00D+00
   CC-T/L Amplitude update :  5-th order DIIS
                I/O scheme : Global Array Library
        L-threshold :  0.10D-06
        EOM-threshold :  0.10D-06
 no EOMCCSD initial starts read in
 TCE RESTART OPTIONS
 READ_INT:   F
 WRITE_INT:  F
 READ_TA:    F
 WRITE_TA:   F
 READ_XA:    F
 WRITE_XA:   F
 READ_IN3:   F
 WRITE_IN3:  F
 SLICE:      F
 D4D5:       F

            Memory Information
            ------------------
          Available GA space size is     689977294 doubles
          Available MA space size is     172493548 doubles

 Maximum block size        32 doubles

 tile_dim =      5

 Block   Spin    Irrep     Size     Offset   Alpha
 -------------------------------------------------
[...]

 2-e file size   =             1691
 2-e file name   = ./methane-plus-h-dat.v2
 Cpu & wall time / sec            0.0            0.0
 T1-number-of-tasks                    1

 t1 file size   =                4
 t1 file name   = ./methane-plus-h-dat.t1
 t1 file handle =       -998
 T2-number-of-boxes                    1

 t2 file size   =               16
 t2 file name   = ./methane-plus-h-dat.t2
 t2 file handle =       -995

 CCSD iterations
 -----------------------------------------------------------------
 Iter          Residuum       Correlation     Cpu    Wall    V2*C2
 -----------------------------------------------------------------
    1   0.0000000000000   0.0000000000000     0.0     0.0     0.0
 -----------------------------------------------------------------
 Iterations converged
 CCSD correlation energy / hartree =         0.000000000000000
 CCSD total energy / hartree       =        -0.499278403419571

 Singles contributions

 Doubles contributions
                                 NWChem SCF Module
                                 -----------------



  ao basis        = "ao basis"
  functions       =    40
  atoms           =     6
  closed shells   =     0
  open shells     =     1
  charge          =   0.00
  wavefunction    = ROHF
  input vectors   = atomic
  output vectors  = ./secondg.bsse.movecs
  use symmetry    = F
  symmetry adapt  = F


 Summary of "ao basis" -> "ao basis" (cartesian)
 ------------------------------------------------------------------------------
       Tag                 Description            Shells   Functions and Types
 ---------------- ------------------------------  ------  ---------------------
 H                          cc-pvdz                  3        5   2s1p
 C                          cc-pvdz                  6       15   3s2p1d
 bqH                        cc-pvdz                  3        5   2s1p
 bqC                        cc-pvdz                  6       15   3s2p1d



 Forming initial guess at       3.9s


      Superposition of Atomic Density Guess
      -------------------------------------

 Sum of atomic energies:          -0.49927900

      Non-variational initial energy
      ------------------------------

 Total energy =      -0.499278
 1-e energy   =      -0.499278
 2-e energy   =       0.000000
 HOMO         =      -0.499307
 LUMO         =      -0.096660


 Starting SCF solution at       3.9s



 ----------------------------------------------
         Quadratically convergent ROHF

 Convergence threshold     :          1.000E-04
 Maximum no. of iterations :           30
 Final Fock-matrix accuracy:          1.000E-07
 ----------------------------------------------


              iter       energy          gnorm     gmax       time
             ----- ------------------- --------- --------- --------
                 1       -0.4993071469  1.53D-14  9.79D-15      3.8


       Final ROHF results 
       ------------------ 

         Total SCF energy =     -0.499307146950
      One-electron energy =     -0.499307146950
      Two-electron energy =     -0.000000000000
 Nuclear repulsion energy =      0.000000000000

        Time for solution =      0.0s


             Final eigenvalues
             -----------------

              1      
    1   -0.1870
    2    0.1434
    3    0.2444
    4    0.2444
    5    0.3368
    6    0.4752
    7    0.4942
    8    0.4943
    9    0.5938
   10    0.7378
   11    1.3699

                       ROHF Final Molecular Orbital Analysis
                       -------------------------------------

 Vector    1  Occ=1.000000D+00  E=-1.869847D-01
              MO Center= -8.1D-01,  7.3D-01,  8.8D-01, r^2= 8.4D-01
   Bfn.  Coefficient  Atom+Function         Bfn.  Coefficient  Atom+Function  
  ----- ------------  ---------------      ----- ------------  ---------------
    36      0.588700  6 H  s                 37      0.510690  6 H  s          

 Vector    2  Occ=0.000000D+00  E= 1.434372D-01
              MO Center=  3.4D-01, -3.1D-01, -3.7D-01, r^2= 3.6D+00
   Bfn.  Coefficient  Atom+Function         Bfn.  Coefficient  Atom+Function  
  ----- ------------  ---------------      ----- ------------  ---------------
     3      1.249922  1 bq s                 17     -0.796796  2 bq s          
    22     -0.796640  3 bq s                 27     -0.796430  4 bq s          
    37      0.340833  6 H  s                 32     -0.166110  5 bq s          

 Vector    3  Occ=0.000000D+00  E= 2.443758D-01
              MO Center=  4.8D-01, -7.1D-01,  1.5D-01, r^2= 3.8D+00
   Bfn.  Coefficient  Atom+Function         Bfn.  Coefficient  Atom+Function  
  ----- ------------  ---------------      ----- ------------  ---------------
    27      1.699480  4 bq s                 22     -1.011703  3 bq s          
    17     -0.687575  2 bq s                  9     -0.341636  1 bq pz         
     7     -0.211741  1 bq px                 8      0.175425  1 bq py         

 Vector    4  Occ=0.000000D+00  E= 2.444081D-01
              MO Center=  1.6D-01,  1.2D-01, -8.4D-01, r^2= 3.8D+00
   Bfn.  Coefficient  Atom+Function         Bfn.  Coefficient  Atom+Function  
  ----- ------------  ---------------      ----- ------------  ---------------
    17      1.565185  2 bq s                 22     -1.378146  3 bq s          
     8     -0.329692  1 bq py                 7     -0.288368  1 bq px         
    27     -0.187281  4 bq s          

 Vector    5  Occ=0.000000D+00  E= 3.367797D-01
              MO Center= -6.6D-01,  5.9D-01,  7.1D-01, r^2= 4.5D+00
   Bfn.  Coefficient  Atom+Function         Bfn.  Coefficient  Atom+Function  
  ----- ------------  ---------------      ----- ------------  ---------------
    32      8.666944  5 bq s                 37     -3.346713  6 H  s          
     3     -2.996267  1 bq s                 17     -1.255128  2 bq s          
    22     -1.254870  3 bq s                 27     -1.255070  4 bq s          
     9     -0.804036  1 bq pz                 7      0.740052  1 bq px         
     8     -0.669959  1 bq py         

 Vector    6  Occ=0.000000D+00  E= 4.751746D-01
              MO Center=  1.4D-01, -1.3D-01, -1.5D-01, r^2= 3.3D+00
   Bfn.  Coefficient  Atom+Function         Bfn.  Coefficient  Atom+Function  
  ----- ------------  ---------------      ----- ------------  ---------------
     3      5.047876  1 bq s                 32     -3.410409  5 bq s          
    37      1.267775  6 H  s                 27     -0.716944  4 bq s          
    17     -0.711524  2 bq s                 22     -0.713752  3 bq s          
     9     -0.430434  1 bq pz                 7      0.398715  1 bq px         
     8     -0.363501  1 bq py                15     -0.180046  1 bq dzz        

 Vector    7  Occ=0.000000D+00  E= 4.942060D-01
              MO Center=  2.3D-02, -2.3D-02, -1.3D-02, r^2= 3.4D+00
   Bfn.  Coefficient  Atom+Function         Bfn.  Coefficient  Atom+Function  
  ----- ------------  ---------------      ----- ------------  ---------------
    17      1.885200  2 bq s                  8     -1.717624  1 bq py         
    22     -1.725005  3 bq s                  7     -1.568543  1 bq px         
    27     -0.157961  4 bq s          

 Vector    8  Occ=0.000000D+00  E= 4.942655D-01
              MO Center=  1.6D-02, -1.1D-02, -3.0D-02, r^2= 3.4D+00
   Bfn.  Coefficient  Atom+Function         Bfn.  Coefficient  Atom+Function  
  ----- ------------  ---------------      ----- ------------  ---------------
    27      2.083491  4 bq s                  9     -1.813280  1 bq pz         
    22     -1.180819  3 bq s                  7     -1.071227  1 bq px         
     8      0.989152  1 bq py                17     -0.906054  2 bq s          

 Vector    9  Occ=0.000000D+00  E= 5.938322D-01
              MO Center= -4.0D-01,  3.6D-01,  4.4D-01, r^2= 4.1D+00
   Bfn.  Coefficient  Atom+Function         Bfn.  Coefficient  Atom+Function  
  ----- ------------  ---------------      ----- ------------  ---------------
    32     12.876242  5 bq s                  3     -7.487393  1 bq s          
     9     -2.325827  1 bq pz                 7      2.141212  1 bq px         
     8     -1.939427  1 bq py                37     -1.671656  6 H  s          
    17     -1.642057  2 bq s                 22     -1.642709  3 bq s          
    27     -1.643418  4 bq s                 36     -0.686804  6 H  s          

 Vector   10  Occ=0.000000D+00  E= 7.377732D-01
              MO Center= -3.1D-01,  2.8D-01,  3.4D-01, r^2= 3.1D+00
   Bfn.  Coefficient  Atom+Function         Bfn.  Coefficient  Atom+Function  
  ----- ------------  ---------------      ----- ------------  ---------------
    32      9.922873  5 bq s                  3     -6.079568  1 bq s          
    37     -2.899960  6 H  s                  9     -1.843760  1 bq pz         
     7      1.696736  1 bq px                 8     -1.535938  1 bq py         
    17     -0.896630  2 bq s                 22     -0.896120  3 bq s          
    27     -0.895532  4 bq s                 36      0.872553  6 H  s          

 Vector   11  Occ=0.000000D+00  E= 1.369903D+00
              MO Center=  1.1D-01, -2.2D-01,  2.4D-01, r^2= 2.0D+00
   Bfn.  Coefficient  Atom+Function         Bfn.  Coefficient  Atom+Function  
  ----- ------------  ---------------      ----- ------------  ---------------
    27      0.755065  4 bq s                 11      0.638468  1 bq dxy        
    26     -0.590048  4 bq s                 22     -0.434964  3 bq s          
    40      0.358165  6 H  pz                21      0.340004  3 bq s          
    17     -0.320109  2 bq s                 15      0.316910  1 bq dzz        
    14      0.276026  1 bq dyz               16      0.250160  2 bq s          


 center of mass
 --------------
 x =  -1.52670860 y =   1.38234075 z =   1.65859876

 moments of inertia (a.u.)
 ------------------
           0.000000000000           0.000000000000           0.000000000000
           0.000000000000           0.000000000000           0.000000000000
           0.000000000000           0.000000000000           0.000000000000

  Mulliken analysis of the total density
  --------------------------------------

    Atom       Charge   Shell Charges
 -----------   ------   -------------------------------------------------------
    1 X    0     0.01   0.00 -0.00  0.00  0.00  0.01  0.00
    2 X    0     0.00  -0.00  0.00 -0.00
    3 X    0     0.00  -0.00  0.00 -0.00
    4 X    0     0.00  -0.00  0.00 -0.00
    5 X    0    -0.03  -0.00 -0.03 -0.00
    6 H    1     1.01   0.55  0.46 -0.00

 Mulliken analysis of the open-shell density
 -------------------------------------------

    Atom       Charge   Shell Charges
 -----------   ------   -------------------------------------------------------
    1 X    0     0.01   0.00 -0.00  0.00  0.00  0.01  0.00
    2 X    0     0.00  -0.00  0.00 -0.00
    3 X    0     0.00  -0.00  0.00 -0.00
    4 X    0     0.00  -0.00  0.00 -0.00
    5 X    0    -0.03  -0.00 -0.03 -0.00
    6 H    1     1.01   0.55  0.46 -0.00

       Multipole analysis of the density wrt the origin
       ------------------------------------------------

     L   x y z        total         open         nuclear
     -   - - -        -----         ----         -------
     0   0 0 0     -0.000000     -1.000000      1.000000

     1   1 0 0      0.000208      1.526917     -1.526709
     1   0 1 0     -0.000187     -1.382528      1.382341
     1   0 0 1     -0.000228     -1.658826      1.658599

     2   2 0 0     -0.996622     -3.327461      2.330839
     2   1 1 0      0.001880      2.112312     -2.110431
     2   1 0 1      0.002258      2.534455     -2.532197
     2   0 2 0     -0.996244     -2.907110      1.910866
     2   0 1 1     -0.002043     -2.294791      2.292749
     2   0 0 2     -0.997002     -3.747952      2.750950

                   NWChem Extensible Many-Electron Theory Module
                   ---------------------------------------------

              ======================================================
                   This portion of the program was automatically
                  generated by a Tensor Contraction Engine (TCE).
                  The development of this portion of the program
                 and TCE was supported by US Department of Energy,
                Office of Science, Office of Basic Energy Science.
                      TCE is a product of Battelle and PNNL.
              Please cite: S.Hirata, J.Phys.Chem.A 107, 9887 (2003).
              ======================================================

            General Information
            -------------------
      Number of processors :     4
         Wavefunction type : Restricted open-shell Hartree-Fock
          No. of electrons :     1
           Alpha electrons :     1
            Beta electrons :     0
           No. of orbitals :    80
            Alpha orbitals :    40
             Beta orbitals :    40
        Alpha frozen cores :     0
         Beta frozen cores :     0
     Alpha frozen virtuals :     0
      Beta frozen virtuals :     0
         Spin multiplicity : doublet 
    Number of AO functions :    40
       Number of AO shells :    21
        Use of symmetry is : off
      Symmetry adaption is : off
         Schwarz screening : 0.10D-09

          Correlation Information
          -----------------------
          Calculation type : Coupled-cluster singles & doubles                           
   Perturbative correction : none                                                        
            Max iterations :      100
        Residual threshold : 0.10D-06
     T(0) DIIS level shift : 0.00D+00
     L(0) DIIS level shift : 0.00D+00
     T(1) DIIS level shift : 0.00D+00
     L(1) DIIS level shift : 0.00D+00
     T(R) DIIS level shift : 0.00D+00
     T(I) DIIS level shift : 0.00D+00
   CC-T/L Amplitude update :  5-th order DIIS
                I/O scheme : Global Array Library
        L-threshold :  0.10D-06
        EOM-threshold :  0.10D-06
 no EOMCCSD initial starts read in
 TCE RESTART OPTIONS
 READ_INT:   F
 WRITE_INT:  F
 READ_TA:    F
 WRITE_TA:   F
 READ_XA:    F
 WRITE_XA:   F
 READ_IN3:   F
 WRITE_IN3:  F
 SLICE:      F
 D4D5:       F

            Memory Information
            ------------------
          Available GA space size is     689974144 doubles
          Available MA space size is     172491876 doubles

 Maximum block size        32 doubles

 tile_dim =     20

 Block   Spin    Irrep     Size     Offset   Alpha
 -------------------------------------------------
   1    alpha     a      1 doubles       0       1
   2    alpha     a     19 doubles       1       2
   3    alpha     a     20 doubles      20       3
   4    beta      a     20 doubles      40       4
   5    beta      a     20 doubles      60       5

 Global array virtual files algorithm will be used

 Parallel file system coherency ......... OK

 Fock matrix recomputed
 1-e file size   =             3200
 1-e file name   = ./methane-plus-h-dat.f1
 Cpu & wall time / sec            0.0            0.0

 tce_ao2e: fast2e=1
 half-transformed integrals in memory

 2-e (intermediate) file size =         6369600
 2-e (intermediate) file name = ./methane-plus-h-dat.v2i
 Cpu & wall time / sec            0.3            0.3

 tce_mo2e: fast2e=1
 2-e integrals stored in memory

 2-e file size   =          5394761
 2-e file name   = ./methane-plus-h-dat.v2
 Cpu & wall time / sec            0.1            0.1
 T1-number-of-tasks                    2

 t1 file size   =               39
 t1 file name   = ./methane-plus-h-dat.t1
 t1 file handle =       -998
 T2-number-of-boxes                    3

 t2 file size   =             1141
 t2 file name   = ./methane-plus-h-dat.t2
 t2 file handle =       -995

 CCSD iterations
 -----------------------------------------------------------------
 Iter          Residuum       Correlation     Cpu    Wall    V2*C2
 -----------------------------------------------------------------
    1   0.0000000000000  -0.0000000000000     0.0     0.0     0.0
 -----------------------------------------------------------------
 Iterations converged
 CCSD correlation energy / hartree =        -0.000000000000000
 CCSD total energy / hartree       =        -0.499307146949577

 Singles contributions

 Doubles contributions

             BSSE error =       0.004125701995
  Supermolecular energy =     -39.958003501327
       Corrected energy =     -39.953877799332


 Task  times  cpu:        4.2s     wall:        4.4s


                                NWChem Input Module
                                -------------------


 Summary of allocated global arrays
-----------------------------------
  No active global arrays



                         GA Statistics for process    0
                         ------------------------------

       create   destroy   get      put      acc     scatter   gather  read&inc
calls: 5544     5544     4.63e+04 8735     9561        0        0     1.20e+04 
number of processes/call 1.24e+00 1.24e+00 1.57e+00 0.00e+00 0.00e+00
bytes total:             1.67e+09 1.58e+08 2.20e+08 0.00e+00 0.00e+00 9.59e+04
bytes remote:            7.23e+08 1.04e+08 1.15e+08 0.00e+00 0.00e+00 0.00e+00
Max memory consumed for GA by this process: 23541536 bytes

MA_summarize_allocated_blocks: starting scan ...
MA_summarize_allocated_blocks: scan completed: 0 heap blocks, 0 stack blocks
MA usage statistics:

	allocation statistics:
					      heap	     stack
					      ----	     -----
	current number of blocks	         0	         0
	maximum number of blocks	        16	        30
	current total bytes		         0	         0
	maximum total bytes		     80136	  22510056
	maximum total K-bytes		        81	     22511
	maximum total M-bytes		         1	        23


                                     CITATION
                                     --------
                Please cite the following reference when publishing
                           results obtained with NWChem:

                 M. Valiev, E.J. Bylaska, N. Govind, K. Kowalski,
              T.P. Straatsma, H.J.J. van Dam, D. Wang, J. Nieplocha,
                        E. Apra, T.L. Windus, W.A. de Jong
                 "NWChem: a comprehensive and scalable open-source
                  solution for large scale molecular simulations"
                      Comput. Phys. Commun. 181, 1477 (2010)
                           doi:10.1016/j.cpc.2010.04.018

                                      AUTHORS
                                      -------
          E. Apra, E. J. Bylaska, W. A. de Jong, N. Govind, K. Kowalski,
       T. P. Straatsma, M. Valiev, H. J. J. van Dam, D. Wang, T. L. Windus,
        J. Hammond, J. Autschbach, K. Bhaskaran-Nair, J. Brabec, K. Lopata,
    S. A. Fischer, S. Krishnamoorthy, M. Jacquelin, W. Ma, M. Klemm, O. Villa,
      Y. Chen, V. Anisimov, F. Aquino, S. Hirata, M. T. Hackler, V. Konjkov,
            D. Mejia-Rodriguez, T. Risthaus, M. Malagoli, A. Marenich,
   A. Otero-de-la-Roza, J. Mullin, P. Nichols, R. Peverati, J. Pittner, Y. Zhao,
        P.-D. Fan, A. Fonari, M. J. Williamson, R. J. Harrison, J. R. Rehr,
      M. Dupuis, D. Silverstein, D. M. A. Smith, J. Nieplocha, V. Tipparaju,
    M. Krishnan, B. E. Van Kuiken, A. Vazquez-Mayagoitia, L. Jensen, M. Swart,
      Q. Wu, T. Van Voorhis, A. A. Auer, M. Nooijen, L. D. Crosby, E. Brown,
      G. Cisneros, G. I. Fann, H. Fruchtl, J. Garza, K. Hirao, R. A. Kendall,
      J. A. Nichols, K. Tsemekhman, K. Wolinski, J. Anchell, D. E. Bernholdt,
      P. Borowski, T. Clark, D. Clerc, H. Dachsel, M. J. O. Deegan, K. Dyall,
    D. Elwood, E. Glendening, M. Gutowski, A. C. Hess, J. Jaffe, B. G. Johnson,
     J. Ju, R. Kobayashi, R. Kutteh, Z. Lin, R. Littlefield, X. Long, B. Meng,
      T. Nakajima, S. Niu, L. Pollack, M. Rosing, K. Glaesemann, G. Sandrone,
      M. Stave, H. Taylor, G. Thomas, J. H. van Lenthe, A. T. Wong, Z. Zhang.

 Total times  cpu:        4.2s     wall:        4.4s
