 argument  1 = /home/list1234/source/nwchem-6.8.1-release/QA/tests/cdft_jarv1/cdft_jarv1.nw
                                         
                                         


              Northwest Computational Chemistry Package (NWChem) 6.8
              ------------------------------------------------------


                    Environmental Molecular Sciences Laboratory
                       Pacific Northwest National Laboratory
                                Richland, WA 99352

                              Copyright (c) 1994-2018
                       Pacific Northwest National Laboratory
                            Battelle Memorial Institute

             NWChem is an open-source computational chemistry package
                        distributed under the terms of the
                      Educational Community License (ECL) 2.0
             A copy of the license is included with this distribution
                              in the LICENSE.TXT file

                                  ACKNOWLEDGMENT
                                  --------------

            This software and its documentation were developed at the
            EMSL at Pacific Northwest National Laboratory, a multiprogram
            national laboratory, operated for the U.S. Department of Energy
            by Battelle under Contract Number DE-AC05-76RL01830. Support
            for this work was provided by the Department of Energy Office
            of Biological and Environmental Research, Office of Basic
            Energy Sciences, and the Office of Advanced Scientific Computing.


           Job information
           ---------------

    hostname        = list1234-B360M-H
    program         = /home/list1234/source/nwchem-6.8.1-release/bin/LINUX64/nwchem
    date            = Sun Jun 30 07:38:40 2019

    compiled        = Sun_Jun_30_05:21:11_2019
    source          = /home/list1234/source/nwchem-6.8.1-release
    nwchem branch   = Development
    nwchem revision = N/A
    ga revision     = 5.6.5
    use scalapack   = T
    input           = /home/list1234/source/nwchem-6.8.1-release/QA/tests/cdft_jarv1/cdft_jarv1.nw
    prefix          = cdft456.
    data base       = ./cdft456.db
    status          = startup
    nproc           =        4
    time left       =     -1s



           Memory information
           ------------------

    heap     =   86247164 doubles =    658.0 Mbytes
    stack    =   86247169 doubles =    658.0 Mbytes
    global   =  172494336 doubles =   1316.0 Mbytes (distinct from heap & stack)
    total    =  344988669 doubles =   2632.1 Mbytes
    verify   = yes
    hardfail = no 


           Directory information
           ---------------------

  0 permanent = .
  0 scratch   = .




                                NWChem Input Module
                                -------------------


                   C2F4 C2H4 with displacement: 04.00 Angstroms
                   --------------------------------------------

 Scaling coordinates for geometry "molA" by  1.889725989
 (inverse scale =  0.529177249)



                               Geometry "molA" -> ""
                               ---------------------

 Output coordinates in angstroms (scale by  1.889725989 to convert to a.u.)

  No.       Tag          Charge          X              Y              Z
 ---- ---------------- ---------- -------------- -------------- --------------
    1 C                    6.0000     0.00000000     0.00000000     0.66349300
    2 C                    6.0000     0.00000000     0.00000000    -0.66349300
    3 H                    1.0000     0.00000000     0.92250300     1.23644600
    4 H                    1.0000     0.00000000    -0.92250300     1.23644600
    5 H                    1.0000     0.00000000    -0.92250300    -1.23644600
    6 H                    1.0000     0.00000000     0.92250300    -1.23644600

      Atomic Mass 
      ----------- 

      C                 12.000000
      H                  1.007825


 Effective nuclear repulsion energy (a.u.)      33.4090553162

            Nuclear Dipole moment (a.u.) 
            ----------------------------
        X                 Y               Z
 ---------------- ---------------- ----------------
     0.0000000000     0.0000000000     0.0000000000


            XYZ format geometry
            -------------------
     6
 molA
 C                     0.00000000     0.00000000     0.66349300
 C                     0.00000000     0.00000000    -0.66349300
 H                     0.00000000     0.92250300     1.23644600
 H                     0.00000000    -0.92250300     1.23644600
 H                     0.00000000    -0.92250300    -1.23644600
 H                     0.00000000     0.92250300    -1.23644600

 ==============================================================================
                                internuclear distances
 ------------------------------------------------------------------------------
       center one      |      center two      | atomic units |  angstroms
 ------------------------------------------------------------------------------
    2 C                |   1 C                |     2.50764  |     1.32699
    3 H                |   1 C                |     2.05215  |     1.08595
    4 H                |   1 C                |     2.05215  |     1.08595
    5 H                |   2 C                |     2.05215  |     1.08595
    6 H                |   2 C                |     2.05215  |     1.08595
 ------------------------------------------------------------------------------
                         number of included internuclear distances:          5
 ==============================================================================



 ==============================================================================
                                 internuclear angles
 ------------------------------------------------------------------------------
        center 1       |       center 2       |       center 3       |  degrees
 ------------------------------------------------------------------------------
    2 C                |   1 C                |   3 H                |   121.84
    2 C                |   1 C                |   4 H                |   121.84
    3 H                |   1 C                |   4 H                |   116.31
    1 C                |   2 C                |   5 H                |   121.84
    1 C                |   2 C                |   6 H                |   121.84
    5 H                |   2 C                |   6 H                |   116.31
 ------------------------------------------------------------------------------
                            number of included internuclear angles:          6
 ==============================================================================




 Scaling coordinates for geometry "molB" by  1.889725989
 (inverse scale =  0.529177249)

 D2H symmetry detected

          ------
          auto-z
          ------
  no constraints, skipping    0.0000000000000000     
  no constraints, skipping    0.0000000000000000     


                             Geometry "molB" -> "    "
                             -------------------------

 Output coordinates in angstroms (scale by  1.889725989 to convert to a.u.)

  No.       Tag          Charge          X              Y              Z
 ---- ---------------- ---------- -------------- -------------- --------------
    1 C                    6.0000     0.00000000     0.66090500     0.00000000
    2 C                    6.0000     0.00000000    -0.66090500     0.00000000
    3 F                    9.0000     1.10386600     1.38673200     0.00000000
    4 F                    9.0000    -1.10386600     1.38673200     0.00000000
    5 F                    9.0000    -1.10386600    -1.38673200     0.00000000
    6 F                    9.0000     1.10386600    -1.38673200     0.00000000

      Atomic Mass 
      ----------- 

      C                 12.000000
      F                 18.998400


 Effective nuclear repulsion energy (a.u.)     243.9912930599

            Nuclear Dipole moment (a.u.) 
            ----------------------------
        X                 Y               Z
 ---------------- ---------------- ----------------
     0.0000000000     0.0000000000     0.0000000000

      Symmetry information
      --------------------

 Group name             D2h       
 Group number             26
 Group order               8
 No. of unique centers     2

      Symmetry unique atoms

     1    3



                                Z-matrix (autoz)
                                -------- 

 Units are Angstrom for bonds and degrees for angles

      Type          Name      I     J     K     L     M      Value
      ----------- --------  ----- ----- ----- ----- ----- ----------
    1 Stretch                  1     2                       1.32181
    2 Stretch                  1     3                       1.32112
    3 Stretch                  1     4                       1.32112
    4 Stretch                  2     5                       1.32112
    5 Stretch                  2     6                       1.32112
    6 Bend                     1     2     5               123.32619
    7 Bend                     1     2     6               123.32619
    8 Bend                     2     1     3               123.32619
    9 Bend                     2     1     4               123.32619
   10 Bend                     3     1     4               113.34762
   11 Bend                     5     2     6               113.34762
   12 Torsion                  3     1     2     5         180.00000
   13 Torsion                  3     1     2     6           0.00000
   14 Torsion                  4     1     2     5          -0.00000
   15 Torsion                  4     1     2     6         180.00000


            XYZ format geometry
            -------------------
     6
 molB
 C                     0.00000000     0.66090500     0.00000000
 C                     0.00000000    -0.66090500     0.00000000
 F                     1.10386600     1.38673200     0.00000000
 F                    -1.10386600     1.38673200     0.00000000
 F                    -1.10386600    -1.38673200     0.00000000
 F                     1.10386600    -1.38673200     0.00000000

 ==============================================================================
                                internuclear distances
 ------------------------------------------------------------------------------
       center one      |      center two      | atomic units |  angstroms
 ------------------------------------------------------------------------------
    2 C                |   1 C                |     2.49786  |     1.32181
    3 F                |   1 C                |     2.49655  |     1.32112
    4 F                |   1 C                |     2.49655  |     1.32112
    5 F                |   2 C                |     2.49655  |     1.32112
    6 F                |   2 C                |     2.49655  |     1.32112
 ------------------------------------------------------------------------------
                         number of included internuclear distances:          5
 ==============================================================================



 ==============================================================================
                                 internuclear angles
 ------------------------------------------------------------------------------
        center 1       |       center 2       |       center 3       |  degrees
 ------------------------------------------------------------------------------
    2 C                |   1 C                |   3 F                |   123.33
    2 C                |   1 C                |   4 F                |   123.33
    3 F                |   1 C                |   4 F                |   113.35
    1 C                |   2 C                |   5 F                |   123.33
    1 C                |   2 C                |   6 F                |   123.33
    5 F                |   2 C                |   6 F                |   113.35
 ------------------------------------------------------------------------------
                            number of included internuclear angles:          6
 ==============================================================================




 Scaling coordinates for geometry "molAB" by  1.889725989
 (inverse scale =  0.529177249)



                            Geometry "molAB" -> "    "
                            --------------------------

 Output coordinates in angstroms (scale by  1.889725989 to convert to a.u.)

  No.       Tag          Charge          X              Y              Z
 ---- ---------------- ---------- -------------- -------------- --------------
    1 C                    6.0000    -3.00000000     0.00000000     0.66349300
    2 C                    6.0000    -3.00000000     0.00000000    -0.66349300
    3 H                    1.0000    -3.00000000     0.92250300     1.23644600
    4 H                    1.0000    -3.00000000    -0.92250300     1.23644600
    5 H                    1.0000    -3.00000000    -0.92250300    -1.23644600
    6 H                    1.0000    -3.00000000     0.92250300    -1.23644600
    7 C                    6.0000     1.00000000     0.00000000     0.66090500
    8 C                    6.0000     1.00000000     0.00000000    -0.66090500
    9 F                    9.0000     1.00000000     1.10386600     1.38673200
   10 F                    9.0000     1.00000000    -1.10386600     1.38673200
   11 F                    9.0000     1.00000000    -1.10386600    -1.38673200
   12 F                    9.0000     1.00000000     1.10386600    -1.38673200

      Atomic Mass 
      ----------- 

      C                 12.000000
      H                  1.007825
      F                 18.998400


 Effective nuclear repulsion energy (a.u.)     370.3203156624

            Nuclear Dipole moment (a.u.) 
            ----------------------------
        X                 Y               Z
 ---------------- ---------------- ----------------
     0.0000000000     0.0000000000     0.0000000000


            XYZ format geometry
            -------------------
    12
 molAB
 C                    -3.00000000     0.00000000     0.66349300
 C                    -3.00000000     0.00000000    -0.66349300
 H                    -3.00000000     0.92250300     1.23644600
 H                    -3.00000000    -0.92250300     1.23644600
 H                    -3.00000000    -0.92250300    -1.23644600
 H                    -3.00000000     0.92250300    -1.23644600
 C                     1.00000000     0.00000000     0.66090500
 C                     1.00000000     0.00000000    -0.66090500
 F                     1.00000000     1.10386600     1.38673200
 F                     1.00000000    -1.10386600     1.38673200
 F                     1.00000000    -1.10386600    -1.38673200
 F                     1.00000000     1.10386600    -1.38673200

 ==============================================================================
                                internuclear distances
 ------------------------------------------------------------------------------
       center one      |      center two      | atomic units |  angstroms
 ------------------------------------------------------------------------------
    2 C                |   1 C                |     2.50764  |     1.32699
    3 H                |   1 C                |     2.05215  |     1.08595
    4 H                |   1 C                |     2.05215  |     1.08595
    5 H                |   2 C                |     2.05215  |     1.08595
    6 H                |   2 C                |     2.05215  |     1.08595
    8 C                |   7 C                |     2.49786  |     1.32181
    9 F                |   7 C                |     2.49655  |     1.32112
   10 F                |   7 C                |     2.49655  |     1.32112
   11 F                |   8 C                |     2.49655  |     1.32112
   12 F                |   8 C                |     2.49655  |     1.32112
 ------------------------------------------------------------------------------
                         number of included internuclear distances:         10
 ==============================================================================



 ==============================================================================
                                 internuclear angles
 ------------------------------------------------------------------------------
        center 1       |       center 2       |       center 3       |  degrees
 ------------------------------------------------------------------------------
    2 C                |   1 C                |   3 H                |   121.84
    2 C                |   1 C                |   4 H                |   121.84
    3 H                |   1 C                |   4 H                |   116.31
    1 C                |   2 C                |   5 H                |   121.84
    1 C                |   2 C                |   6 H                |   121.84
    5 H                |   2 C                |   6 H                |   116.31
    8 C                |   7 C                |   9 F                |   123.33
    8 C                |   7 C                |  10 F                |   123.33
    9 F                |   7 C                |  10 F                |   113.35
    7 C                |   8 C                |  11 F                |   123.33
    7 C                |   8 C                |  12 F                |   123.33
   11 F                |   8 C                |  12 F                |   113.35
 ------------------------------------------------------------------------------
                            number of included internuclear angles:         12
 ==============================================================================





 Summary of "ao basis" -> "" (cartesian)
 ------------------------------------------------------------------------------
       Tag                 Description            Shells   Functions and Types
 ---------------- ------------------------------  ------  ---------------------
 *                          6-31++G*                  on all atoms 



                                 NWChem DFT Module
                                 -----------------


                   C2F4 C2H4 with displacement: 04.00 Angstroms


                      Basis "ao basis" -> "ao basis" (cartesian)
                      -----
  C (Carbon)
  ----------
            Exponent  Coefficients 
       -------------- ---------------------------------------------------------
  1 S  3.04752490E+03  0.001835
  1 S  4.57369510E+02  0.014037
  1 S  1.03948690E+02  0.068843
  1 S  2.92101550E+01  0.232184
  1 S  9.28666300E+00  0.467941
  1 S  3.16392700E+00  0.362312

  2 S  7.86827240E+00 -0.119332
  2 S  1.88128850E+00 -0.160854
  2 S  5.44249300E-01  1.143456

  3 P  7.86827240E+00  0.068999
  3 P  1.88128850E+00  0.316424
  3 P  5.44249300E-01  0.744308

  4 S  1.68714400E-01  1.000000

  5 P  1.68714400E-01  1.000000

  6 S  4.38000000E-02  1.000000

  7 P  4.38000000E-02  1.000000

  8 D  8.00000000E-01  1.000000

  H (Hydrogen)
  ------------
            Exponent  Coefficients 
       -------------- ---------------------------------------------------------
  1 S  1.87311370E+01  0.033495
  1 S  2.82539370E+00  0.234727
  1 S  6.40121700E-01  0.813757

  2 S  1.61277800E-01  1.000000

  3 S  3.60000000E-02  1.000000



 Summary of "ao basis" -> "ao basis" (cartesian)
 ------------------------------------------------------------------------------
       Tag                 Description            Shells   Functions and Types
 ---------------- ------------------------------  ------  ---------------------
 C                          6-31++G*                 8       19   4s3p1d
 H                          6-31++G*                 3        3   3s




 Summary of "ao basis" -> "ao basis" (cartesian)
 ------------------------------------------------------------------------------
       Tag                 Description            Shells   Functions and Types
 ---------------- ------------------------------  ------  ---------------------
 C                          6-31++G*                 8       19   4s3p1d
 H                          6-31++G*                 3        3   3s


  Caching 1-el integrals 

            General Information
            -------------------
          SCF calculation type: DFT
          Wavefunction type:  spin polarized.
          No. of atoms     :     6
          No. of electrons :    16
           Alpha electrons :     8
            Beta electrons :     8
          Charge           :     0
          Spin multiplicity:     1
          Use of symmetry is: off; symmetry adaption is: off
          Maximum number of iterations:  30
          AO basis - number of functions:    50
                     number of shells:    28
          Convergence on energy requested:  1.00D-06
          Convergence on density requested:  1.00D-05
          Convergence on gradient requested:  5.00D-04

              XC Information
              --------------
                         B3LYP Method XC Potential
                     Hartree-Fock (Exact) Exchange  0.200          
                        Slater Exchange Functional  0.800 local    
                    Becke 1988 Exchange Functional  0.720 non-local
              Lee-Yang-Parr Correlation Functional  0.810          
                  VWN I RPA Correlation Functional  0.190 local    

             Grid Information
             ----------------
          Grid used for XC integration:  medium    
          Radial quadrature: Mura-Knowles        
          Angular quadrature: Lebedev. 
          Tag              B.-S. Rad. Rad. Pts. Rad. Cut. Ang. Pts.
          ---              ---------- --------- --------- ---------
          C                   0.70       49          12.0       434
          H                   0.35       45          13.0       434
          Grid pruning is: on 
          Number of quadrature shells:   278
          Spatial weights used:  Erf1

          Convergence Information
          -----------------------
          Convergence aids based upon iterative change in 
          total energy or number of iterations. 
          Levelshifting, if invoked, occurs when the 
          HOMO/LUMO gap drops below (HL_TOL):  1.00D-02
          DIIS, if invoked, will attempt to extrapolate 
          using up to (NFOCK): 10 stored Fock matrices.

                    Damping( 0%)  Levelshifting(0.5)       DIIS
                  --------------- ------------------- ---------------
          dE  on:    start            ASAP                start   
          dE off:    2 iters         30 iters            30 iters 


      Screening Tolerance Information
      -------------------------------
          Density screening/tol_rho:  1.00D-10
          AO Gaussian exp screening on grid/accAOfunc:  14
          CD Gaussian exp screening on grid/accCDfunc:  20
          XC Gaussian exp screening on grid/accXCfunc:  20
          Schwarz screening/accCoul:  1.00D-08


      Superposition of Atomic Density Guess
      -------------------------------------

 Sum of atomic energies:         -77.32218861

      Non-variational initial energy
      ------------------------------

 Total energy =     -78.468037
 1-e energy   =    -168.019568
 2-e energy   =      56.142476
 HOMO         =      -0.347627
 LUMO         =      -0.005667

   Time after variat. SCF:      0.1
   Time prior to 1st pass:      0.1

 Grid_pts file          = ./cdft456.gridpts.0
 Record size in doubles =  12289        No. of grid_pts per rec  =   3070
 Max. records in memory =     12        Max. recs in file   = 253312716


           Memory utilization after 1st SCF pass: 
           Heap Space remaining (MW):       51.67            51669092
          Stack Space remaining (MW):       86.25            86246540

   convergence    iter        energy       DeltaE   RMS-Dens  Diis-err    time
 ---------------- ----- ----------------- --------- --------- ---------  ------
 d= 0,ls=0.0,diis     1    -78.5726895487 -1.12D+02  4.18D-03  5.51D-02     0.3
                                                     4.18D-03  5.51D-02
 d= 0,ls=0.0,diis     2    -78.5923131356 -1.96D-02  1.10D-03  1.83D-03     0.4
                                                     1.10D-03  1.83D-03
 d= 0,ls=0.0,diis     3    -78.5927829978 -4.70D-04  4.34D-04  8.58D-04     0.6
                                                     4.34D-04  8.58D-04
 d= 0,ls=0.0,diis     4    -78.5932220646 -4.39D-04  7.61D-05  2.60D-05     0.7
                                                     7.61D-05  2.60D-05
 d= 0,ls=0.0,diis     5    -78.5932368044 -1.47D-05  7.67D-06  5.40D-08     0.8
                                                     7.67D-06  5.40D-08
 d= 0,ls=0.0,diis     6    -78.5932368355 -3.11D-08  5.89D-07  1.07D-10     1.0
                                                     5.89D-07  1.07D-10


         Total DFT energy =      -78.593236835491
      One electron energy =     -170.290410071199
           Coulomb energy =       70.567919734405
    Exchange-Corr. energy =      -12.279801814899
 Nuclear repulsion energy =       33.409055316202

 Numeric. integr. density =       16.000000247732

     Total iterative time =      0.9s



                    DFT Final Alpha Molecular Orbital Analysis
                    ------------------------------------------

 Vector    1  Occ=1.000000D+00  E=-1.019406D+01
              MO Center=  1.3D-16,  1.5D-14, -5.4D-07, r^2= 4.7D-01
   Bfn.  Coefficient  Atom+Function         Bfn.  Coefficient  Atom+Function  
  ----- ------------  ---------------      ----- ------------  ---------------
     1      0.701859  1 C  s                 20      0.701859  2 C  s          
     2      0.034816  1 C  s                 21      0.034816  2 C  s          

 Vector    2  Occ=1.000000D+00  E=-1.019313D+01
              MO Center=  1.4D-16, -1.5D-13,  5.4D-07, r^2= 4.7D-01
   Bfn.  Coefficient  Atom+Function         Bfn.  Coefficient  Atom+Function  
  ----- ------------  ---------------      ----- ------------  ---------------
     1      0.702148  1 C  s                 20     -0.702148  2 C  s          
     2      0.035377  1 C  s                 21     -0.035377  2 C  s          

 Vector    3  Occ=1.000000D+00  E=-7.665741D-01
              MO Center=  7.5D-14,  8.6D-11, -9.8D-10, r^2= 1.1D+00
   Bfn.  Coefficient  Atom+Function         Bfn.  Coefficient  Atom+Function  
  ----- ------------  ---------------      ----- ------------  ---------------
     2      0.311129  1 C  s                 21      0.311129  2 C  s          
     6      0.235306  1 C  s                 25      0.235306  2 C  s          
     1     -0.160830  1 C  s                 20     -0.160830  2 C  s          
     5     -0.103355  1 C  pz                24      0.103355  2 C  pz         
    39      0.083721  3 H  s                 42      0.083721  4 H  s          

 Vector    4  Occ=1.000000D+00  E=-5.860665D-01
              MO Center=  3.3D-14,  1.9D-11, -2.9D-10, r^2= 2.1D+00
   Bfn.  Coefficient  Atom+Function         Bfn.  Coefficient  Atom+Function  
  ----- ------------  ---------------      ----- ------------  ---------------
     2      0.247937  1 C  s                 21     -0.247937  2 C  s          
     6      0.244494  1 C  s                 25     -0.244494  2 C  s          
     5      0.172898  1 C  pz                24      0.172898  2 C  pz         
    39      0.146623  3 H  s                 42      0.146623  4 H  s          
    45     -0.146623  5 H  s                 48     -0.146623  6 H  s          

 Vector    5  Occ=1.000000D+00  E=-4.746346D-01
              MO Center=  7.4D-15, -9.7D-11, -2.2D-09, r^2= 1.9D+00
   Bfn.  Coefficient  Atom+Function         Bfn.  Coefficient  Atom+Function  
  ----- ------------  ---------------      ----- ------------  ---------------
     4      0.333588  1 C  py                23      0.333588  2 C  py         
    39      0.156492  3 H  s                 42     -0.156492  4 H  s          
    45     -0.156492  5 H  s                 48      0.156492  6 H  s          
     8      0.123059  1 C  py                27      0.123059  2 C  py         
    40      0.095178  3 H  s                 43     -0.095178  4 H  s          

 Vector    6  Occ=1.000000D+00  E=-4.269947D-01
              MO Center=  9.2D-15,  1.7D-11,  1.2D-09, r^2= 1.7D+00
   Bfn.  Coefficient  Atom+Function         Bfn.  Coefficient  Atom+Function  
  ----- ------------  ---------------      ----- ------------  ---------------
     5      0.416237  1 C  pz                24     -0.416237  2 C  pz         
     9      0.137123  1 C  pz                28     -0.137123  2 C  pz         
    39      0.126447  3 H  s                 42      0.126447  4 H  s          
    45      0.126447  5 H  s                 48      0.126447  6 H  s          
    40      0.096303  3 H  s                 43      0.096303  4 H  s          

 Vector    7  Occ=1.000000D+00  E=-3.613720D-01
              MO Center=  5.0D-15,  5.5D-12,  2.1D-09, r^2= 2.4D+00
   Bfn.  Coefficient  Atom+Function         Bfn.  Coefficient  Atom+Function  
  ----- ------------  ---------------      ----- ------------  ---------------
     4      0.310651  1 C  py                23     -0.310651  2 C  py         
    39      0.197878  3 H  s                 42     -0.197878  4 H  s          
    45      0.197878  5 H  s                 48     -0.197878  6 H  s          
    40      0.174319  3 H  s                 43     -0.174319  4 H  s          
    46      0.174319  5 H  s                 49     -0.174319  6 H  s          

 Vector    8  Occ=1.000000D+00  E=-2.785576D-01
              MO Center= -2.0D-14, -5.8D-13, -6.3D-10, r^2= 1.5D+00
   Bfn.  Coefficient  Atom+Function         Bfn.  Coefficient  Atom+Function  
  ----- ------------  ---------------      ----- ------------  ---------------
     3      0.402869  1 C  px                22      0.402869  2 C  px         
     7      0.251944  1 C  px                26      0.251944  2 C  px         
    11      0.053506  1 C  px                30      0.053506  2 C  px         
    16     -0.028957  1 C  dxz               35      0.028957  2 C  dxz        

 Vector    9  Occ=0.000000D+00  E=-6.488994D-03
              MO Center=  4.2D-14, -3.4D-13,  8.9D-10, r^2= 3.8D+00
   Bfn.  Coefficient  Atom+Function         Bfn.  Coefficient  Atom+Function  
  ----- ------------  ---------------      ----- ------------  ---------------
    11      0.780260  1 C  px                30     -0.780260  2 C  px         
     7      0.448433  1 C  px                26     -0.448433  2 C  px         
     3      0.371226  1 C  px                22     -0.371226  2 C  px         
    16      0.042795  1 C  dxz               35      0.042795  2 C  dxz        

 Vector   10  Occ=0.000000D+00  E= 3.643256D-04
              MO Center=  1.2D-13,  7.8D-08, -1.8D-08, r^2= 1.3D+01
   Bfn.  Coefficient  Atom+Function         Bfn.  Coefficient  Atom+Function  
  ----- ------------  ---------------      ----- ------------  ---------------
    10      1.461357  1 C  s                 29      1.461357  2 C  s          
    41     -0.998872  3 H  s                 44     -0.998872  4 H  s          
    47     -0.998872  5 H  s                 50     -0.998872  6 H  s          
    13      0.334446  1 C  pz                32     -0.334446  2 C  pz         
     6      0.257072  1 C  s                 25      0.257072  2 C  s          

 Vector   11  Occ=0.000000D+00  E= 1.858703D-02
              MO Center=  2.7D-13,  3.5D-08,  1.5D-08, r^2= 1.6D+01
   Bfn.  Coefficient  Atom+Function         Bfn.  Coefficient  Atom+Function  
  ----- ------------  ---------------      ----- ------------  ---------------
    10      3.768986  1 C  s                 29     -3.768986  2 C  s          
    41     -1.574838  3 H  s                 44     -1.574838  4 H  s          
    47      1.574838  5 H  s                 50      1.574839  6 H  s          
     6      0.410701  1 C  s                 25     -0.410701  2 C  s          
    13     -0.166865  1 C  pz                32     -0.166865  2 C  pz         

 Vector   12  Occ=0.000000D+00  E= 2.183303D-02
              MO Center=  6.2D-16, -6.7D-08, -4.5D-08, r^2= 1.5D+01
   Bfn.  Coefficient  Atom+Function         Bfn.  Coefficient  Atom+Function  
  ----- ------------  ---------------      ----- ------------  ---------------
    41      1.943108  3 H  s                 44     -1.943108  4 H  s          
    47     -1.943109  5 H  s                 50      1.943109  6 H  s          
    12     -0.722868  1 C  py                31     -0.722868  2 C  py         
    40      0.149146  3 H  s                 43     -0.149146  4 H  s          
    46     -0.149146  5 H  s                 49      0.149146  6 H  s          

 Vector   13  Occ=0.000000D+00  E= 5.561000D-02
              MO Center=  2.7D-16, -2.8D-09,  3.0D-08, r^2= 2.0D+01
   Bfn.  Coefficient  Atom+Function         Bfn.  Coefficient  Atom+Function  
  ----- ------------  ---------------      ----- ------------  ---------------
    41      5.101920  3 H  s                 44     -5.101920  4 H  s          
    47      5.101920  5 H  s                 50     -5.101920  6 H  s          
    12     -3.554548  1 C  py                31      3.554548  2 C  py         
     8     -0.243195  1 C  py                27      0.243195  2 C  py         
    40      0.230164  3 H  s                 43     -0.230164  4 H  s          

 Vector   14  Occ=0.000000D+00  E= 6.930768D-02
              MO Center=  4.7D-13, -6.4D-14, -2.0D-09, r^2= 9.4D+00
   Bfn.  Coefficient  Atom+Function         Bfn.  Coefficient  Atom+Function  
  ----- ------------  ---------------      ----- ------------  ---------------
    11      0.601858  1 C  px                30      0.601858  2 C  px         
     7     -0.233429  1 C  px                26     -0.233429  2 C  px         
     3     -0.157222  1 C  px                22     -0.157222  2 C  px         

 Vector   15  Occ=0.000000D+00  E= 8.311044D-02
              MO Center= -2.0D-14, -4.6D-09,  3.8D-09, r^2= 1.1D+01
   Bfn.  Coefficient  Atom+Function         Bfn.  Coefficient  Atom+Function  
  ----- ------------  ---------------      ----- ------------  ---------------
    13      1.801008  1 C  pz                32     -1.801008  2 C  pz         
    10      1.316610  1 C  s                 29      1.316610  2 C  s          
    41     -0.527523  3 H  s                 44     -0.527523  4 H  s          
    47     -0.527523  5 H  s                 50     -0.527523  6 H  s          
     6      0.307102  1 C  s                 25      0.307102  2 C  s          

 Vector   16  Occ=0.000000D+00  E= 1.288273D-01
              MO Center=  5.2D-12, -1.9D-08, -4.1D-08, r^2= 1.6D+01
   Bfn.  Coefficient  Atom+Function         Bfn.  Coefficient  Atom+Function  
  ----- ------------  ---------------      ----- ------------  ---------------
    10     28.724697  1 C  s                 29    -28.724697  2 C  s          
    13    -11.311449  1 C  pz                32    -11.311449  2 C  pz         
    41      3.659771  3 H  s                 44      3.659771  4 H  s          
    47     -3.659771  5 H  s                 50     -3.659771  6 H  s          
     6      0.236287  1 C  s                 25     -0.236287  2 C  s          

 Vector   17  Occ=0.000000D+00  E= 1.289415D-01
              MO Center= -5.2D-12, -1.7D-13,  1.7D-09, r^2= 1.0D+01
   Bfn.  Coefficient  Atom+Function         Bfn.  Coefficient  Atom+Function  
  ----- ------------  ---------------      ----- ------------  ---------------
    11      2.006089  1 C  px                30     -2.006089  2 C  px         
     7     -0.493825  1 C  px                26      0.493825  2 C  px         
     3     -0.269808  1 C  px                22      0.269808  2 C  px         

 Vector   18  Occ=0.000000D+00  E= 1.349121D-01
              MO Center= -6.1D-13,  3.9D-08,  2.9D-08, r^2= 1.2D+01
   Bfn.  Coefficient  Atom+Function         Bfn.  Coefficient  Atom+Function  
  ----- ------------  ---------------      ----- ------------  ---------------
    10      4.580449  1 C  s                 29      4.580450  2 C  s          
    41     -1.890061  3 H  s                 44     -1.890061  4 H  s          
    47     -1.890060  5 H  s                 50     -1.890061  6 H  s          
    13      0.851478  1 C  pz                32     -0.851478  2 C  pz         
    40     -0.460425  3 H  s                 43     -0.460425  4 H  s          

 Vector   19  Occ=0.000000D+00  E= 1.488441D-01
              MO Center=  1.1D-15, -8.5D-09, -2.7D-08, r^2= 1.4D+01
   Bfn.  Coefficient  Atom+Function         Bfn.  Coefficient  Atom+Function  
  ----- ------------  ---------------      ----- ------------  ---------------
    41      3.734995  3 H  s                 44     -3.734995  4 H  s          
    47     -3.734996  5 H  s                 50      3.734996  6 H  s          
    12     -2.510226  1 C  py                31     -2.510226  2 C  py         
     8      0.386623  1 C  py                27      0.386623  2 C  py         
     4      0.202473  1 C  py                23      0.202473  2 C  py         

 Vector   20  Occ=0.000000D+00  E= 1.638292D-01
              MO Center= -2.7D-13,  3.3D-08, -8.8D-09, r^2= 1.3D+01
   Bfn.  Coefficient  Atom+Function         Bfn.  Coefficient  Atom+Function  
  ----- ------------  ---------------      ----- ------------  ---------------
    10     27.297632  1 C  s                 29    -27.297632  2 C  s          
    13     -5.835298  1 C  pz                32     -5.835298  2 C  pz         
    41     -1.621264  3 H  s                 44     -1.621263  4 H  s          
    47      1.621263  5 H  s                 50      1.621264  6 H  s          
     6     -0.781799  1 C  s                 25      0.781799  2 C  s          

 Vector   21  Occ=0.000000D+00  E= 1.837931D-01
              MO Center=  1.0D-15, -4.4D-08,  5.0D-08, r^2= 1.6D+01
   Bfn.  Coefficient  Atom+Function         Bfn.  Coefficient  Atom+Function  
  ----- ------------  ---------------      ----- ------------  ---------------
    12      9.439456  1 C  py                31     -9.439456  2 C  py         
    41     -8.104857  3 H  s                 44      8.104858  4 H  s          
    47     -8.104857  5 H  s                 50      8.104858  6 H  s          
    40     -0.231369  3 H  s                 43      0.231366  4 H  s          
    46     -0.231369  5 H  s                 49      0.231366  6 H  s          

 Vector   22  Occ=0.000000D+00  E= 1.840727D-01
              MO Center=  2.3D-14, -5.8D-08,  1.9D-08, r^2= 6.1D+00
   Bfn.  Coefficient  Atom+Function         Bfn.  Coefficient  Atom+Function  
  ----- ------------  ---------------      ----- ------------  ---------------
     6      1.462262  1 C  s                 25      1.462262  2 C  s          
    40     -1.183589  3 H  s                 43     -1.183590  4 H  s          
    46     -1.183590  5 H  s                 49     -1.183590  6 H  s          
     9      0.660648  1 C  pz                28     -0.660648  2 C  pz         
    10     -0.520481  1 C  s                 29     -0.520481  2 C  s          

 Vector   23  Occ=0.000000D+00  E= 1.957228D-01
              MO Center=  2.1D-15,  2.2D-08, -1.1D-08, r^2= 5.0D+00
   Bfn.  Coefficient  Atom+Function         Bfn.  Coefficient  Atom+Function  
  ----- ------------  ---------------      ----- ------------  ---------------
    40     -1.204741  3 H  s                 43      1.204741  4 H  s          
    46      1.204741  5 H  s                 49     -1.204741  6 H  s          
    12      1.188822  1 C  py                31      1.188822  2 C  py         
    41     -1.112602  3 H  s                 44      1.112602  4 H  s          
    47      1.112602  5 H  s                 50     -1.112602  6 H  s          

 Vector   24  Occ=0.000000D+00  E= 2.498484D-01
              MO Center= -1.0D-13, -2.6D-09,  1.3D-09, r^2= 6.2D+00
   Bfn.  Coefficient  Atom+Function         Bfn.  Coefficient  Atom+Function  
  ----- ------------  ---------------      ----- ------------  ---------------
    10     20.448956  1 C  s                 29    -20.448956  2 C  s          
    13     -4.629837  1 C  pz                32     -4.629837  2 C  pz         
    40     -1.465781  3 H  s                 43     -1.465781  4 H  s          
    46      1.465781  5 H  s                 49      1.465781  6 H  s          
     6      1.140856  1 C  s                 25     -1.140856  2 C  s          

 Vector   25  Occ=0.000000D+00  E= 3.915127D-01
              MO Center= -8.9D-15,  6.5D-09, -3.5D-10, r^2= 4.6D+00
   Bfn.  Coefficient  Atom+Function         Bfn.  Coefficient  Atom+Function  
  ----- ------------  ---------------      ----- ------------  ---------------
    10     10.021366  1 C  s                 29    -10.021366  2 C  s          
    13     -4.574345  1 C  pz                32     -4.574345  2 C  pz         
     6     -3.657267  1 C  s                 25      3.657267  2 C  s          
     9      2.915163  1 C  pz                28      2.915163  2 C  pz         
    41      1.688819  3 H  s                 44      1.688819  4 H  s          

 Vector   26  Occ=0.000000D+00  E= 4.166930D-01
              MO Center=  3.3D-15, -4.8D-09,  1.1D-09, r^2= 8.2D+00
   Bfn.  Coefficient  Atom+Function         Bfn.  Coefficient  Atom+Function  
  ----- ------------  ---------------      ----- ------------  ---------------
    12      8.433188  1 C  py                31     -8.433188  2 C  py         
    41     -5.816249  3 H  s                 44      5.816250  4 H  s          
    47     -5.816249  5 H  s                 50      5.816249  6 H  s          
    40     -2.398493  3 H  s                 43      2.398493  4 H  s          
    46     -2.398493  5 H  s                 49      2.398493  6 H  s          

 Vector   27  Occ=0.000000D+00  E= 5.852712D-01
              MO Center=  2.1D-14, -2.4D-10, -2.9D-10, r^2= 4.2D+00
   Bfn.  Coefficient  Atom+Function         Bfn.  Coefficient  Atom+Function  
  ----- ------------  ---------------      ----- ------------  ---------------
     9      1.249309  1 C  pz                28     -1.249309  2 C  pz         
    13     -0.978338  1 C  pz                32      0.978338  2 C  pz         
    10     -0.710429  1 C  s                 29     -0.710429  2 C  s          
     5     -0.592820  1 C  pz                24      0.592820  2 C  pz         
     6      0.329226  1 C  s                 25      0.329226  2 C  s          

 Vector   28  Occ=0.000000D+00  E= 6.731525D-01
              MO Center=  9.5D-14,  7.4D-15, -4.5D-09, r^2= 3.3D+00
   Bfn.  Coefficient  Atom+Function         Bfn.  Coefficient  Atom+Function  
  ----- ------------  ---------------      ----- ------------  ---------------
     7      0.854024  1 C  px                26      0.854024  2 C  px         
     3     -0.753269  1 C  px                22     -0.753269  2 C  px         
    11     -0.321451  1 C  px                30     -0.321451  2 C  px         
    16      0.097167  1 C  dxz               35     -0.097167  2 C  dxz        

 Vector   29  Occ=0.000000D+00  E= 7.213384D-01
              MO Center=  8.3D-14, -6.3D-14,  4.5D-09, r^2= 3.6D+00
   Bfn.  Coefficient  Atom+Function         Bfn.  Coefficient  Atom+Function  
  ----- ------------  ---------------      ----- ------------  ---------------
     7      1.382757  1 C  px                26     -1.382757  2 C  px         
    11     -0.907401  1 C  px                30      0.907401  2 C  px         
     3     -0.788217  1 C  px                22      0.788217  2 C  px         

 Vector   30  Occ=0.000000D+00  E= 7.465684D-01
              MO Center=  1.1D-17,  7.2D-10,  2.0D-09, r^2= 4.0D+00
   Bfn.  Coefficient  Atom+Function         Bfn.  Coefficient  Atom+Function  
  ----- ------------  ---------------      ----- ------------  ---------------
    41      1.793631  3 H  s                 44     -1.793631  4 H  s          
    47     -1.793631  5 H  s                 50      1.793631  6 H  s          
    12     -1.487904  1 C  py                31     -1.487904  2 C  py         
     8      1.080240  1 C  py                27      1.080240  2 C  py         
     4     -0.656350  1 C  py                23     -0.656350  2 C  py         

 Vector   31  Occ=0.000000D+00  E= 8.247775D-01
              MO Center= -6.7D-15, -7.1D-10, -1.1D-10, r^2= 3.6D+00
   Bfn.  Coefficient  Atom+Function         Bfn.  Coefficient  Atom+Function  
  ----- ------------  ---------------      ----- ------------  ---------------
     9      2.113772  1 C  pz                28      2.113772  2 C  pz         
    41      1.419596  3 H  s                 44      1.419596  4 H  s          
    47     -1.419596  5 H  s                 50     -1.419596  6 H  s          
    13     -1.307736  1 C  pz                32     -1.307736  2 C  pz         
    10     -1.262872  1 C  s                 29      1.262872  2 C  s          

 Vector   32  Occ=0.000000D+00  E= 8.990756D-01
              MO Center=  1.3D-15,  5.7D-09, -2.9D-09, r^2= 3.9D+00
   Bfn.  Coefficient  Atom+Function         Bfn.  Coefficient  Atom+Function  
  ----- ------------  ---------------      ----- ------------  ---------------
    40      1.402421  3 H  s                 43     -1.402421  4 H  s          
    46     -1.402421  5 H  s                 49      1.402421  6 H  s          
     8     -0.942331  1 C  py                27     -0.942331  2 C  py         
    39     -0.495836  3 H  s                 42      0.495836  4 H  s          
    45      0.495836  5 H  s                 48     -0.495836  6 H  s          

 Vector   33  Occ=0.000000D+00  E= 9.275153D-01
              MO Center= -8.9D-14, -5.7D-09, -9.7D-10, r^2= 4.1D+00
   Bfn.  Coefficient  Atom+Function         Bfn.  Coefficient  Atom+Function  
  ----- ------------  ---------------      ----- ------------  ---------------
    10      2.403546  1 C  s                 29      2.403546  2 C  s          
     6     -1.212737  1 C  s                 25     -1.212737  2 C  s          
    41     -0.811279  3 H  s                 44     -0.811279  4 H  s          
    47     -0.811279  5 H  s                 50     -0.811279  6 H  s          
     2      0.717197  1 C  s                 21      0.717197  2 C  s          

 Vector   34  Occ=0.000000D+00  E= 9.624566D-01
              MO Center= -3.1D-16,  3.9D-10,  1.8D-09, r^2= 3.7D+00
   Bfn.  Coefficient  Atom+Function         Bfn.  Coefficient  Atom+Function  
  ----- ------------  ---------------      ----- ------------  ---------------
     8      4.038114  1 C  py                27     -4.038114  2 C  py         
    12      3.122950  1 C  py                31     -3.122950  2 C  py         
    40     -2.593034  3 H  s                 43      2.593034  4 H  s          
    46     -2.593034  5 H  s                 49      2.593034  6 H  s          
    41     -1.799151  3 H  s                 44      1.799151  4 H  s          

 Vector   35  Occ=0.000000D+00  E= 9.887728D-01
              MO Center= -5.2D-14, -4.2D-10, -1.0D-08, r^2= 3.9D+00
   Bfn.  Coefficient  Atom+Function         Bfn.  Coefficient  Atom+Function  
  ----- ------------  ---------------      ----- ------------  ---------------
     6      2.335591  1 C  s                 25      2.335591  2 C  s          
     2     -1.181422  1 C  s                 21     -1.181422  2 C  s          
    10     -1.095071  1 C  s                 29     -1.095071  2 C  s          
    40     -0.944438  3 H  s                 43     -0.944438  4 H  s          
    46     -0.944438  5 H  s                 49     -0.944438  6 H  s          

 Vector   36  Occ=0.000000D+00  E= 1.013042D+00
              MO Center= -1.2D-14, -2.4D-10,  1.2D-08, r^2= 3.9D+00
   Bfn.  Coefficient  Atom+Function         Bfn.  Coefficient  Atom+Function  
  ----- ------------  ---------------      ----- ------------  ---------------
    10      6.221982  1 C  s                 29     -6.221982  2 C  s          
     6      1.947980  1 C  s                 25     -1.947980  2 C  s          
    40     -1.435792  3 H  s                 43     -1.435792  4 H  s          
    46      1.435792  5 H  s                 49      1.435792  6 H  s          
    13     -1.163976  1 C  pz                32     -1.163976  2 C  pz         

 Vector   37  Occ=0.000000D+00  E= 1.170839D+00
              MO Center= -1.0D-13,  7.5D-12,  6.3D-10, r^2= 3.2D+00
   Bfn.  Coefficient  Atom+Function         Bfn.  Coefficient  Atom+Function  
  ----- ------------  ---------------      ----- ------------  ---------------
    10     12.670927  1 C  s                 29    -12.670927  2 C  s          
     6     -5.606535  1 C  s                 25      5.606535  2 C  s          
    13     -3.107756  1 C  pz                32     -3.107756  2 C  pz         
     9      2.047670  1 C  pz                28      2.047670  2 C  pz         
     2      1.483762  1 C  s                 21     -1.483762  2 C  s          

 Vector   38  Occ=0.000000D+00  E= 1.267146D+00
              MO Center=  1.0D-14,  6.2D-11,  3.2D-10, r^2= 3.7D+00
   Bfn.  Coefficient  Atom+Function         Bfn.  Coefficient  Atom+Function  
  ----- ------------  ---------------      ----- ------------  ---------------
    12      3.479943  1 C  py                31     -3.479943  2 C  py         
    41     -2.557004  3 H  s                 44      2.557004  4 H  s          
    47     -2.557004  5 H  s                 50      2.557004  6 H  s          
     8     -1.770611  1 C  py                27      1.770611  2 C  py         
    39      0.717981  3 H  s                 42     -0.717981  4 H  s          

 Vector   39  Occ=0.000000D+00  E= 1.452985D+00
              MO Center= -1.4D-14,  2.9D-13, -1.7D-10, r^2= 1.1D+00
   Bfn.  Coefficient  Atom+Function         Bfn.  Coefficient  Atom+Function  
  ----- ------------  ---------------      ----- ------------  ---------------
    16      1.073240  1 C  dxz               35     -1.073240  2 C  dxz        
     3      0.169099  1 C  px                22      0.169099  2 C  px         
     7     -0.028939  1 C  px                26     -0.028939  2 C  px         

 Vector   40  Occ=0.000000D+00  E= 1.533020D+00
              MO Center= -9.9D-15,  3.4D-13, -7.9D-10, r^2= 1.0D+00
   Bfn.  Coefficient  Atom+Function         Bfn.  Coefficient  Atom+Function  
  ----- ------------  ---------------      ----- ------------  ---------------
    15      1.178054  1 C  dxy               34      1.178054  2 C  dxy        

 Vector   41  Occ=0.000000D+00  E= 1.823606D+00
              MO Center= -2.0D-14,  4.3D-13,  7.9D-10, r^2= 1.1D+00
   Bfn.  Coefficient  Atom+Function         Bfn.  Coefficient  Atom+Function  
  ----- ------------  ---------------      ----- ------------  ---------------
    15      1.277467  1 C  dxy               34     -1.277467  2 C  dxy        

 Vector   42  Occ=0.000000D+00  E= 1.893584D+00
              MO Center= -1.3D-14,  1.5D-11, -4.7D-10, r^2= 1.4D+00
   Bfn.  Coefficient  Atom+Function         Bfn.  Coefficient  Atom+Function  
  ----- ------------  ---------------      ----- ------------  ---------------
     6      0.773955  1 C  s                 25      0.773955  2 C  s          
    14     -0.691918  1 C  dxx               33     -0.691918  2 C  dxx        
    17      0.533533  1 C  dyy               36      0.533533  2 C  dyy        
    10     -0.482649  1 C  s                 29     -0.482649  2 C  s          
    39     -0.393172  3 H  s                 42     -0.393172  4 H  s          

 Vector   43  Occ=0.000000D+00  E= 2.042602D+00
              MO Center= -2.7D-15, -1.1D-11, -9.7D-13, r^2= 1.8D+00
   Bfn.  Coefficient  Atom+Function         Bfn.  Coefficient  Atom+Function  
  ----- ------------  ---------------      ----- ------------  ---------------
    18      1.181929  1 C  dyz               37     -1.181929  2 C  dyz        
    39     -0.571999  3 H  s                 42      0.571999  4 H  s          
    45      0.571999  5 H  s                 48     -0.571999  6 H  s          
    41      0.539986  3 H  s                 44     -0.539986  4 H  s          
    47     -0.539986  5 H  s                 50      0.539986  6 H  s          

 Vector   44  Occ=0.000000D+00  E= 2.126256D+00
              MO Center= -5.4D-15, -1.6D-11, -2.6D-10, r^2= 1.5D+00
   Bfn.  Coefficient  Atom+Function         Bfn.  Coefficient  Atom+Function  
  ----- ------------  ---------------      ----- ------------  ---------------
    19      0.627403  1 C  dzz               38      0.627403  2 C  dzz        
     9     -0.558736  1 C  pz                28      0.558736  2 C  pz         
    17     -0.550096  1 C  dyy               36     -0.550096  2 C  dyy        
     2     -0.454223  1 C  s                 21     -0.454223  2 C  s          
     5      0.317028  1 C  pz                24     -0.317028  2 C  pz         

 Vector   45  Occ=0.000000D+00  E= 2.313881D+00
              MO Center= -1.0D-14,  9.3D-13,  5.8D-10, r^2= 1.5D+00
   Bfn.  Coefficient  Atom+Function         Bfn.  Coefficient  Atom+Function  
  ----- ------------  ---------------      ----- ------------  ---------------
    10      3.294176  1 C  s                 29     -3.294176  2 C  s          
     6     -1.428257  1 C  s                 25      1.428257  2 C  s          
    14      0.705136  1 C  dxx               33     -0.705136  2 C  dxx        
    17     -0.661832  1 C  dyy               36      0.661832  2 C  dyy        
    13     -0.509808  1 C  pz                32     -0.509808  2 C  pz         

 Vector   46  Occ=0.000000D+00  E= 2.388887D+00
              MO Center= -1.3D-14,  1.4D-13,  2.2D-10, r^2= 1.2D+00
   Bfn.  Coefficient  Atom+Function         Bfn.  Coefficient  Atom+Function  
  ----- ------------  ---------------      ----- ------------  ---------------
    16      1.580622  1 C  dxz               35      1.580622  2 C  dxz        
     7     -0.344022  1 C  px                26      0.344022  2 C  px         
    11      0.154880  1 C  px                30     -0.154880  2 C  px         
     3     -0.104645  1 C  px                22      0.104645  2 C  px         

 Vector   47  Occ=0.000000D+00  E= 2.715901D+00
              MO Center= -3.1D-16,  1.2D-11,  2.6D-10, r^2= 1.5D+00
   Bfn.  Coefficient  Atom+Function         Bfn.  Coefficient  Atom+Function  
  ----- ------------  ---------------      ----- ------------  ---------------
    18      1.684309  1 C  dyz               37      1.684309  2 C  dyz        
    12     -1.148334  1 C  py                31      1.148334  2 C  py         
    41      0.807504  3 H  s                 44     -0.807504  4 H  s          
    47      0.807504  5 H  s                 50     -0.807504  6 H  s          
    39     -0.493860  3 H  s                 42      0.493860  4 H  s          

 Vector   48  Occ=0.000000D+00  E= 2.736110D+00
              MO Center= -1.6D-15, -2.8D-11,  2.2D-10, r^2= 1.4D+00
   Bfn.  Coefficient  Atom+Function         Bfn.  Coefficient  Atom+Function  
  ----- ------------  ---------------      ----- ------------  ---------------
    10      2.893509  1 C  s                 29     -2.893509  2 C  s          
     6     -2.502193  1 C  s                 25      2.502193  2 C  s          
     9      1.515413  1 C  pz                28      1.515413  2 C  pz         
    13     -1.265146  1 C  pz                32     -1.265146  2 C  pz         
    19     -1.142760  1 C  dzz               38      1.142760  2 C  dzz        

 Vector   49  Occ=0.000000D+00  E= 4.174979D+00
              MO Center=  2.0D-16, -3.1D-11, -3.9D-09, r^2= 1.3D+00
   Bfn.  Coefficient  Atom+Function         Bfn.  Coefficient  Atom+Function  
  ----- ------------  ---------------      ----- ------------  ---------------
     2      2.137055  1 C  s                 21      2.137055  2 C  s          
    17     -1.331674  1 C  dyy               36     -1.331674  2 C  dyy        
    14     -1.310974  1 C  dxx               33     -1.310974  2 C  dxx        
    19     -1.256874  1 C  dzz               38     -1.256875  2 C  dzz        
     6      1.197265  1 C  s                 25      1.197265  2 C  s          

 Vector   50  Occ=0.000000D+00  E= 4.262456D+00
              MO Center= -7.4D-16, -1.3D-11,  3.9D-09, r^2= 1.4D+00
   Bfn.  Coefficient  Atom+Function         Bfn.  Coefficient  Atom+Function  
  ----- ------------  ---------------      ----- ------------  ---------------
    10      2.415945  1 C  s                 29     -2.415945  2 C  s          
     6     -2.052184  1 C  s                 25      2.052184  2 C  s          
     2     -1.978623  1 C  s                 21      1.978623  2 C  s          
    19      1.722456  1 C  dzz               38     -1.722456  2 C  dzz        
    17      1.279137  1 C  dyy               36     -1.279137  2 C  dyy        


                     DFT Final Beta Molecular Orbital Analysis
                     -----------------------------------------

 Vector    1  Occ=1.000000D+00  E=-1.019406D+01
              MO Center=  1.5D-16,  1.5D-14, -5.4D-07, r^2= 4.7D-01
   Bfn.  Coefficient  Atom+Function         Bfn.  Coefficient  Atom+Function  
  ----- ------------  ---------------      ----- ------------  ---------------
     1      0.701859  1 C  s                 20      0.701859  2 C  s          
     2      0.034816  1 C  s                 21      0.034816  2 C  s          

 Vector    2  Occ=1.000000D+00  E=-1.019313D+01
              MO Center=  1.8D-16, -1.5D-13,  5.4D-07, r^2= 4.7D-01
   Bfn.  Coefficient  Atom+Function         Bfn.  Coefficient  Atom+Function  
  ----- ------------  ---------------      ----- ------------  ---------------
     1      0.702148  1 C  s                 20     -0.702148  2 C  s          
     2      0.035377  1 C  s                 21     -0.035377  2 C  s          

 Vector    3  Occ=1.000000D+00  E=-7.665741D-01
              MO Center=  7.5D-14,  8.6D-11, -9.8D-10, r^2= 1.1D+00
   Bfn.  Coefficient  Atom+Function         Bfn.  Coefficient  Atom+Function  
  ----- ------------  ---------------      ----- ------------  ---------------
     2      0.311129  1 C  s                 21      0.311129  2 C  s          
     6      0.235306  1 C  s                 25      0.235306  2 C  s          
     1     -0.160830  1 C  s                 20     -0.160830  2 C  s          
     5     -0.103355  1 C  pz                24      0.103355  2 C  pz         
    39      0.083721  3 H  s                 42      0.083721  4 H  s          

 Vector    4  Occ=1.000000D+00  E=-5.860665D-01
              MO Center=  3.4D-14,  1.9D-11, -2.9D-10, r^2= 2.1D+00
   Bfn.  Coefficient  Atom+Function         Bfn.  Coefficient  Atom+Function  
  ----- ------------  ---------------      ----- ------------  ---------------
     2      0.247937  1 C  s                 21     -0.247937  2 C  s          
     6      0.244494  1 C  s                 25     -0.244494  2 C  s          
     5      0.172898  1 C  pz                24      0.172898  2 C  pz         
    39      0.146623  3 H  s                 42      0.146623  4 H  s          
    45     -0.146623  5 H  s                 48     -0.146623  6 H  s          

 Vector    5  Occ=1.000000D+00  E=-4.746346D-01
              MO Center=  7.3D-15, -9.7D-11, -2.2D-09, r^2= 1.9D+00
   Bfn.  Coefficient  Atom+Function         Bfn.  Coefficient  Atom+Function  
  ----- ------------  ---------------      ----- ------------  ---------------
     4      0.333588  1 C  py                23      0.333588  2 C  py         
    39      0.156492  3 H  s                 42     -0.156492  4 H  s          
    45     -0.156492  5 H  s                 48      0.156492  6 H  s          
     8      0.123059  1 C  py                27      0.123059  2 C  py         
    40      0.095178  3 H  s                 43     -0.095178  4 H  s          

 Vector    6  Occ=1.000000D+00  E=-4.269947D-01
              MO Center=  8.7D-15,  1.7D-11,  1.2D-09, r^2= 1.7D+00
   Bfn.  Coefficient  Atom+Function         Bfn.  Coefficient  Atom+Function  
  ----- ------------  ---------------      ----- ------------  ---------------
     5      0.416237  1 C  pz                24     -0.416237  2 C  pz         
     9      0.137123  1 C  pz                28     -0.137123  2 C  pz         
    39      0.126447  3 H  s                 42      0.126447  4 H  s          
    45      0.126447  5 H  s                 48      0.126447  6 H  s          
    40      0.096303  3 H  s                 43      0.096303  4 H  s          

 Vector    7  Occ=1.000000D+00  E=-3.613720D-01
              MO Center=  4.9D-15,  5.5D-12,  2.1D-09, r^2= 2.4D+00
   Bfn.  Coefficient  Atom+Function         Bfn.  Coefficient  Atom+Function  
  ----- ------------  ---------------      ----- ------------  ---------------
     4      0.310651  1 C  py                23     -0.310651  2 C  py         
    39      0.197878  3 H  s                 42     -0.197878  4 H  s          
    45      0.197878  5 H  s                 48     -0.197878  6 H  s          
    40      0.174319  3 H  s                 43     -0.174319  4 H  s          
    46      0.174319  5 H  s                 49     -0.174319  6 H  s          

 Vector    8  Occ=1.000000D+00  E=-2.785576D-01
              MO Center= -2.1D-14, -5.8D-13, -6.3D-10, r^2= 1.5D+00
   Bfn.  Coefficient  Atom+Function         Bfn.  Coefficient  Atom+Function  
  ----- ------------  ---------------      ----- ------------  ---------------
     3      0.402869  1 C  px                22      0.402869  2 C  px         
     7      0.251944  1 C  px                26      0.251944  2 C  px         
    11      0.053506  1 C  px                30      0.053506  2 C  px         
    16     -0.028957  1 C  dxz               35      0.028957  2 C  dxz        

 Vector    9  Occ=0.000000D+00  E=-6.488994D-03
              MO Center=  5.5D-14, -3.4D-13,  8.9D-10, r^2= 3.8D+00
   Bfn.  Coefficient  Atom+Function         Bfn.  Coefficient  Atom+Function  
  ----- ------------  ---------------      ----- ------------  ---------------
    11      0.780260  1 C  px                30     -0.780260  2 C  px         
     7      0.448433  1 C  px                26     -0.448433  2 C  px         
     3      0.371226  1 C  px                22     -0.371226  2 C  px         
    16      0.042795  1 C  dxz               35      0.042795  2 C  dxz        

 Vector   10  Occ=0.000000D+00  E= 3.643256D-04
              MO Center=  1.2D-13,  7.8D-08, -1.8D-08, r^2= 1.3D+01
   Bfn.  Coefficient  Atom+Function         Bfn.  Coefficient  Atom+Function  
  ----- ------------  ---------------      ----- ------------  ---------------
    10      1.461357  1 C  s                 29      1.461357  2 C  s          
    41     -0.998872  3 H  s                 44     -0.998872  4 H  s          
    47     -0.998872  5 H  s                 50     -0.998872  6 H  s          
    13      0.334446  1 C  pz                32     -0.334446  2 C  pz         
     6      0.257072  1 C  s                 25      0.257072  2 C  s          

 Vector   11  Occ=0.000000D+00  E= 1.858703D-02
              MO Center=  2.5D-13,  3.5D-08,  1.5D-08, r^2= 1.6D+01
   Bfn.  Coefficient  Atom+Function         Bfn.  Coefficient  Atom+Function  
  ----- ------------  ---------------      ----- ------------  ---------------
    10      3.768986  1 C  s                 29     -3.768986  2 C  s          
    41     -1.574838  3 H  s                 44     -1.574838  4 H  s          
    47      1.574838  5 H  s                 50      1.574839  6 H  s          
     6      0.410701  1 C  s                 25     -0.410701  2 C  s          
    13     -0.166865  1 C  pz                32     -0.166865  2 C  pz         

 Vector   12  Occ=0.000000D+00  E= 2.183303D-02
              MO Center=  6.2D-16, -6.7D-08, -4.5D-08, r^2= 1.5D+01
   Bfn.  Coefficient  Atom+Function         Bfn.  Coefficient  Atom+Function  
  ----- ------------  ---------------      ----- ------------  ---------------
    41      1.943108  3 H  s                 44     -1.943108  4 H  s          
    47     -1.943109  5 H  s                 50      1.943109  6 H  s          
    12     -0.722868  1 C  py                31     -0.722868  2 C  py         
    40      0.149146  3 H  s                 43     -0.149146  4 H  s          
    46     -0.149146  5 H  s                 49      0.149146  6 H  s          

 Vector   13  Occ=0.000000D+00  E= 5.561000D-02
              MO Center=  2.5D-16, -2.8D-09,  3.0D-08, r^2= 2.0D+01
   Bfn.  Coefficient  Atom+Function         Bfn.  Coefficient  Atom+Function  
  ----- ------------  ---------------      ----- ------------  ---------------
    41      5.101920  3 H  s                 44     -5.101920  4 H  s          
    47      5.101920  5 H  s                 50     -5.101920  6 H  s          
    12     -3.554548  1 C  py                31      3.554548  2 C  py         
     8     -0.243195  1 C  py                27      0.243195  2 C  py         
    40      0.230164  3 H  s                 43     -0.230164  4 H  s          

 Vector   14  Occ=0.000000D+00  E= 6.930768D-02
              MO Center=  4.8D-13, -6.4D-14, -2.0D-09, r^2= 9.4D+00
   Bfn.  Coefficient  Atom+Function         Bfn.  Coefficient  Atom+Function  
  ----- ------------  ---------------      ----- ------------  ---------------
    11      0.601858  1 C  px                30      0.601858  2 C  px         
     7     -0.233429  1 C  px                26     -0.233429  2 C  px         
     3     -0.157222  1 C  px                22     -0.157222  2 C  px         

 Vector   15  Occ=0.000000D+00  E= 8.311044D-02
              MO Center= -2.3D-14, -4.6D-09,  3.8D-09, r^2= 1.1D+01
   Bfn.  Coefficient  Atom+Function         Bfn.  Coefficient  Atom+Function  
  ----- ------------  ---------------      ----- ------------  ---------------
    13      1.801008  1 C  pz                32     -1.801008  2 C  pz         
    10      1.316610  1 C  s                 29      1.316610  2 C  s          
    41     -0.527523  3 H  s                 44     -0.527523  4 H  s          
    47     -0.527523  5 H  s                 50     -0.527523  6 H  s          
     6      0.307102  1 C  s                 25      0.307102  2 C  s          

 Vector   16  Occ=0.000000D+00  E= 1.288273D-01
              MO Center= -3.1D-12, -1.9D-08, -4.1D-08, r^2= 1.6D+01
   Bfn.  Coefficient  Atom+Function         Bfn.  Coefficient  Atom+Function  
  ----- ------------  ---------------      ----- ------------  ---------------
    10     28.724697  1 C  s                 29    -28.724697  2 C  s          
    13    -11.311449  1 C  pz                32    -11.311449  2 C  pz         
    41      3.659771  3 H  s                 44      3.659771  4 H  s          
    47     -3.659771  5 H  s                 50     -3.659771  6 H  s          
     6      0.236287  1 C  s                 25     -0.236287  2 C  s          

 Vector   17  Occ=0.000000D+00  E= 1.289415D-01
              MO Center=  3.1D-12, -1.7D-13,  1.7D-09, r^2= 1.0D+01
   Bfn.  Coefficient  Atom+Function         Bfn.  Coefficient  Atom+Function  
  ----- ------------  ---------------      ----- ------------  ---------------
    11      2.006089  1 C  px                30     -2.006089  2 C  px         
     7     -0.493825  1 C  px                26      0.493825  2 C  px         
     3     -0.269808  1 C  px                22      0.269808  2 C  px         

 Vector   18  Occ=0.000000D+00  E= 1.349121D-01
              MO Center= -6.1D-13,  3.9D-08,  2.9D-08, r^2= 1.2D+01
   Bfn.  Coefficient  Atom+Function         Bfn.  Coefficient  Atom+Function  
  ----- ------------  ---------------      ----- ------------  ---------------
    10      4.580449  1 C  s                 29      4.580450  2 C  s          
    41     -1.890061  3 H  s                 44     -1.890061  4 H  s          
    47     -1.890060  5 H  s                 50     -1.890061  6 H  s          
    13      0.851478  1 C  pz                32     -0.851478  2 C  pz         
    40     -0.460425  3 H  s                 43     -0.460425  4 H  s          

 Vector   19  Occ=0.000000D+00  E= 1.488441D-01
              MO Center=  1.1D-15, -8.5D-09, -2.7D-08, r^2= 1.4D+01
   Bfn.  Coefficient  Atom+Function         Bfn.  Coefficient  Atom+Function  
  ----- ------------  ---------------      ----- ------------  ---------------
    41      3.734995  3 H  s                 44     -3.734995  4 H  s          
    47     -3.734996  5 H  s                 50      3.734996  6 H  s          
    12     -2.510226  1 C  py                31     -2.510226  2 C  py         
     8      0.386623  1 C  py                27      0.386623  2 C  py         
     4      0.202473  1 C  py                23      0.202473  2 C  py         

 Vector   20  Occ=0.000000D+00  E= 1.638292D-01
              MO Center= -2.3D-13,  3.3D-08, -8.8D-09, r^2= 1.3D+01
   Bfn.  Coefficient  Atom+Function         Bfn.  Coefficient  Atom+Function  
  ----- ------------  ---------------      ----- ------------  ---------------
    10     27.297632  1 C  s                 29    -27.297632  2 C  s          
    13     -5.835298  1 C  pz                32     -5.835298  2 C  pz         
    41     -1.621264  3 H  s                 44     -1.621263  4 H  s          
    47      1.621263  5 H  s                 50      1.621264  6 H  s          
     6     -0.781799  1 C  s                 25      0.781799  2 C  s          

 Vector   21  Occ=0.000000D+00  E= 1.837931D-01
              MO Center=  9.3D-16, -4.4D-08,  5.0D-08, r^2= 1.6D+01
   Bfn.  Coefficient  Atom+Function         Bfn.  Coefficient  Atom+Function  
  ----- ------------  ---------------      ----- ------------  ---------------
    12      9.439456  1 C  py                31     -9.439456  2 C  py         
    41     -8.104857  3 H  s                 44      8.104858  4 H  s          
    47     -8.104857  5 H  s                 50      8.104858  6 H  s          
    40     -0.231369  3 H  s                 43      0.231366  4 H  s          
    46     -0.231369  5 H  s                 49      0.231366  6 H  s          

 Vector   22  Occ=0.000000D+00  E= 1.840727D-01
              MO Center=  2.6D-14, -5.8D-08,  1.9D-08, r^2= 6.1D+00
   Bfn.  Coefficient  Atom+Function         Bfn.  Coefficient  Atom+Function  
  ----- ------------  ---------------      ----- ------------  ---------------
     6      1.462262  1 C  s                 25      1.462262  2 C  s          
    40     -1.183589  3 H  s                 43     -1.183590  4 H  s          
    46     -1.183590  5 H  s                 49     -1.183590  6 H  s          
     9      0.660648  1 C  pz                28     -0.660648  2 C  pz         
    10     -0.520481  1 C  s                 29     -0.520481  2 C  s          

 Vector   23  Occ=0.000000D+00  E= 1.957228D-01
              MO Center=  2.1D-15,  2.2D-08, -1.1D-08, r^2= 5.0D+00
   Bfn.  Coefficient  Atom+Function         Bfn.  Coefficient  Atom+Function  
  ----- ------------  ---------------      ----- ------------  ---------------
    40     -1.204741  3 H  s                 43      1.204741  4 H  s          
    46      1.204741  5 H  s                 49     -1.204741  6 H  s          
    12      1.188822  1 C  py                31      1.188822  2 C  py         
    41     -1.112602  3 H  s                 44      1.112602  4 H  s          
    47      1.112602  5 H  s                 50     -1.112602  6 H  s          

 Vector   24  Occ=0.000000D+00  E= 2.498484D-01
              MO Center= -6.9D-14, -2.6D-09,  1.3D-09, r^2= 6.2D+00
   Bfn.  Coefficient  Atom+Function         Bfn.  Coefficient  Atom+Function  
  ----- ------------  ---------------      ----- ------------  ---------------
    10     20.448956  1 C  s                 29    -20.448956  2 C  s          
    13     -4.629837  1 C  pz                32     -4.629837  2 C  pz         
    40     -1.465781  3 H  s                 43     -1.465781  4 H  s          
    46      1.465781  5 H  s                 49      1.465781  6 H  s          
     6      1.140856  1 C  s                 25     -1.140856  2 C  s          

 Vector   25  Occ=0.000000D+00  E= 3.915127D-01
              MO Center= -1.1D-14,  6.5D-09, -3.5D-10, r^2= 4.6D+00
   Bfn.  Coefficient  Atom+Function         Bfn.  Coefficient  Atom+Function  
  ----- ------------  ---------------      ----- ------------  ---------------
    10     10.021366  1 C  s                 29    -10.021366  2 C  s          
    13     -4.574345  1 C  pz                32     -4.574345  2 C  pz         
     6     -3.657267  1 C  s                 25      3.657267  2 C  s          
     9      2.915163  1 C  pz                28      2.915163  2 C  pz         
    41      1.688819  3 H  s                 44      1.688819  4 H  s          

 Vector   26  Occ=0.000000D+00  E= 4.166930D-01
              MO Center=  3.6D-15, -4.8D-09,  1.1D-09, r^2= 8.2D+00
   Bfn.  Coefficient  Atom+Function         Bfn.  Coefficient  Atom+Function  
  ----- ------------  ---------------      ----- ------------  ---------------
    12      8.433188  1 C  py                31     -8.433188  2 C  py         
    41     -5.816249  3 H  s                 44      5.816250  4 H  s          
    47     -5.816249  5 H  s                 50      5.816249  6 H  s          
    40     -2.398493  3 H  s                 43      2.398493  4 H  s          
    46     -2.398493  5 H  s                 49      2.398493  6 H  s          

 Vector   27  Occ=0.000000D+00  E= 5.852712D-01
              MO Center=  2.1D-14, -2.4D-10, -2.9D-10, r^2= 4.2D+00
   Bfn.  Coefficient  Atom+Function         Bfn.  Coefficient  Atom+Function  
  ----- ------------  ---------------      ----- ------------  ---------------
     9      1.249309  1 C  pz                28     -1.249309  2 C  pz         
    13     -0.978338  1 C  pz                32      0.978338  2 C  pz         
    10     -0.710429  1 C  s                 29     -0.710429  2 C  s          
     5     -0.592820  1 C  pz                24      0.592820  2 C  pz         
     6      0.329226  1 C  s                 25      0.329226  2 C  s          

 Vector   28  Occ=0.000000D+00  E= 6.731525D-01
              MO Center=  9.9D-14,  7.4D-15, -4.5D-09, r^2= 3.3D+00
   Bfn.  Coefficient  Atom+Function         Bfn.  Coefficient  Atom+Function  
  ----- ------------  ---------------      ----- ------------  ---------------
     7      0.854024  1 C  px                26      0.854024  2 C  px         
     3     -0.753269  1 C  px                22     -0.753269  2 C  px         
    11     -0.321451  1 C  px                30     -0.321451  2 C  px         
    16      0.097167  1 C  dxz               35     -0.097167  2 C  dxz        

 Vector   29  Occ=0.000000D+00  E= 7.213384D-01
              MO Center=  7.0D-14, -6.3D-14,  4.5D-09, r^2= 3.6D+00
   Bfn.  Coefficient  Atom+Function         Bfn.  Coefficient  Atom+Function  
  ----- ------------  ---------------      ----- ------------  ---------------
     7      1.382757  1 C  px                26     -1.382757  2 C  px         
    11     -0.907401  1 C  px                30      0.907401  2 C  px         
     3     -0.788217  1 C  px                22      0.788217  2 C  px         

 Vector   30  Occ=0.000000D+00  E= 7.465684D-01
              MO Center= -1.1D-16,  7.2D-10,  2.0D-09, r^2= 4.0D+00
   Bfn.  Coefficient  Atom+Function         Bfn.  Coefficient  Atom+Function  
  ----- ------------  ---------------      ----- ------------  ---------------
    41      1.793631  3 H  s                 44     -1.793631  4 H  s          
    47     -1.793631  5 H  s                 50      1.793631  6 H  s          
    12     -1.487904  1 C  py                31     -1.487904  2 C  py         
     8      1.080240  1 C  py                27      1.080240  2 C  py         
     4     -0.656350  1 C  py                23     -0.656350  2 C  py         

 Vector   31  Occ=0.000000D+00  E= 8.247775D-01
              MO Center= -1.0D-14, -7.1D-10, -1.1D-10, r^2= 3.6D+00
   Bfn.  Coefficient  Atom+Function         Bfn.  Coefficient  Atom+Function  
  ----- ------------  ---------------      ----- ------------  ---------------
     9      2.113772  1 C  pz                28      2.113772  2 C  pz         
    41      1.419596  3 H  s                 44      1.419596  4 H  s          
    47     -1.419596  5 H  s                 50     -1.419596  6 H  s          
    13     -1.307736  1 C  pz                32     -1.307736  2 C  pz         
    10     -1.262872  1 C  s                 29      1.262872  2 C  s          

 Vector   32  Occ=0.000000D+00  E= 8.990756D-01
              MO Center=  1.2D-15,  5.7D-09, -2.9D-09, r^2= 3.9D+00
   Bfn.  Coefficient  Atom+Function         Bfn.  Coefficient  Atom+Function  
  ----- ------------  ---------------      ----- ------------  ---------------
    40      1.402421  3 H  s                 43     -1.402421  4 H  s          
    46     -1.402421  5 H  s                 49      1.402421  6 H  s          
     8     -0.942331  1 C  py                27     -0.942331  2 C  py         
    39     -0.495836  3 H  s                 42      0.495836  4 H  s          
    45      0.495836  5 H  s                 48     -0.495836  6 H  s          

 Vector   33  Occ=0.000000D+00  E= 9.275153D-01
              MO Center= -9.3D-14, -5.7D-09, -9.7D-10, r^2= 4.1D+00
   Bfn.  Coefficient  Atom+Function         Bfn.  Coefficient  Atom+Function  
  ----- ------------  ---------------      ----- ------------  ---------------
    10      2.403546  1 C  s                 29      2.403546  2 C  s          
     6     -1.212737  1 C  s                 25     -1.212737  2 C  s          
    41     -0.811279  3 H  s                 44     -0.811279  4 H  s          
    47     -0.811279  5 H  s                 50     -0.811279  6 H  s          
     2      0.717197  1 C  s                 21      0.717197  2 C  s          

 Vector   34  Occ=0.000000D+00  E= 9.624566D-01
              MO Center= -2.9D-16,  3.9D-10,  1.8D-09, r^2= 3.7D+00
   Bfn.  Coefficient  Atom+Function         Bfn.  Coefficient  Atom+Function  
  ----- ------------  ---------------      ----- ------------  ---------------
     8      4.038114  1 C  py                27     -4.038114  2 C  py         
    12      3.122950  1 C  py                31     -3.122950  2 C  py         
    40     -2.593034  3 H  s                 43      2.593034  4 H  s          
    46     -2.593034  5 H  s                 49      2.593034  6 H  s          
    41     -1.799151  3 H  s                 44      1.799151  4 H  s          

 Vector   35  Occ=0.000000D+00  E= 9.887728D-01
              MO Center= -5.2D-14, -4.2D-10, -1.0D-08, r^2= 3.9D+00
   Bfn.  Coefficient  Atom+Function         Bfn.  Coefficient  Atom+Function  
  ----- ------------  ---------------      ----- ------------  ---------------
     6      2.335591  1 C  s                 25      2.335591  2 C  s          
     2     -1.181422  1 C  s                 21     -1.181422  2 C  s          
    10     -1.095071  1 C  s                 29     -1.095071  2 C  s          
    40     -0.944438  3 H  s                 43     -0.944438  4 H  s          
    46     -0.944438  5 H  s                 49     -0.944438  6 H  s          

 Vector   36  Occ=0.000000D+00  E= 1.013042D+00
[...]

 Vector  155  Occ=0.000000D+00  E= 3.065955D+00
              MO Center=  1.0D+00,  3.2D-06, -2.8D-06, r^2= 2.8D+00
   Bfn.  Coefficient  Atom+Function         Bfn.  Coefficient  Atom+Function  
  ----- ------------  ---------------      ----- ------------  ---------------
    56      3.118181   7 C  s                75     -3.118187   8 C  s         
    60     -2.542257   7 C  s                79      2.542259   8 C  s         
    59      1.632789   7 C  pz               78      1.632792   8 C  pz        
    94     -1.583310   9 F  s               113     -1.583295  10 F  s         
   132      1.583301  11 F  s               151      1.583313  12 F  s         

 Vector  156  Occ=0.000000D+00  E= 3.225881D+00
              MO Center=  1.0D+00, -9.7D-06, -1.2D-06, r^2= 2.6D+00
   Bfn.  Coefficient  Atom+Function         Bfn.  Coefficient  Atom+Function  
  ----- ------------  ---------------      ----- ------------  ---------------
    58      3.286922   7 C  py               77     -3.286923   8 C  py        
    68      2.122836   7 C  dyz              87      2.122837   8 C  dyz       
    98     -1.602770   9 F  s               117      1.602783  10 F  s         
   136     -1.602784  11 F  s               155      1.602771  12 F  s         
    94     -1.244074   9 F  s               113      1.244103  10 F  s         

 Vector  157  Occ=0.000000D+00  E= 4.110713D+00
              MO Center=  9.2D-01, -1.3D-08, -8.7D-07, r^2= 1.7D+00
   Bfn.  Coefficient  Atom+Function         Bfn.  Coefficient  Atom+Function  
  ----- ------------  ---------------      ----- ------------  ---------------
    52      1.846445   7 C  s                71      1.846446   8 C  s         
    67     -1.563394   7 C  dyy              86     -1.563396   8 C  dyy       
    69     -1.364313   7 C  dzz              88     -1.364316   8 C  dzz       
    56      1.330958   7 C  s                75      1.330961   8 C  s         
    64     -1.265348   7 C  dxx              83     -1.265349   8 C  dxx       

 Vector  158  Occ=0.000000D+00  E= 4.225821D+00
              MO Center= -2.9D+00, -6.6D-08, -5.1D-07, r^2= 1.7D+00
   Bfn.  Coefficient  Atom+Function         Bfn.  Coefficient  Atom+Function  
  ----- ------------  ---------------      ----- ------------  ---------------
     2      2.091364   1 C  s                21      2.091365   2 C  s         
    17     -1.320297   1 C  dyy              36     -1.320298   2 C  dyy       
    14     -1.298900   1 C  dxx              33     -1.298901   2 C  dxx       
    19     -1.241980   1 C  dzz              38     -1.241981   2 C  dzz       
     6      1.227940   1 C  s                25      1.227942   2 C  s         

 Vector  159  Occ=0.000000D+00  E= 4.324845D+00
              MO Center= -3.0D+00, -3.7D-08,  4.9D-07, r^2= 1.6D+00
   Bfn.  Coefficient  Atom+Function         Bfn.  Coefficient  Atom+Function  
  ----- ------------  ---------------      ----- ------------  ---------------
     6      2.242983   1 C  s                25     -2.242983   2 C  s         
    60     -2.145240   7 C  s                79      2.145240   8 C  s         
     2      1.946890   1 C  s                21     -1.946888   2 C  s         
    19     -1.713489   1 C  dzz              38      1.713488   2 C  dzz       
    17     -1.280924   1 C  dyy              36      1.280923   2 C  dyy       

 Vector  160  Occ=0.000000D+00  E= 4.534086D+00
              MO Center=  9.7D-01,  9.2D-08,  1.0D-06, r^2= 2.3D+00
   Bfn.  Coefficient  Atom+Function         Bfn.  Coefficient  Atom+Function  
  ----- ------------  ---------------      ----- ------------  ---------------
    60      7.949983   7 C  s                79     -7.949981   8 C  s         
    56     -2.030553   7 C  s                75      2.030551   8 C  s         
    69      1.896296   7 C  dzz              88     -1.896294   8 C  dzz       
    10     -1.734059   1 C  s                29      1.734059   2 C  s         
    67      1.667715   7 C  dyy              86     -1.667713   8 C  dyy       

 Vector  161  Occ=0.000000D+00  E= 5.261945D+00
              MO Center=  1.0D+00,  3.4D-05,  1.1D-06, r^2= 5.5D+00
   Bfn.  Coefficient  Atom+Function         Bfn.  Coefficient  Atom+Function  
  ----- ------------  ---------------      ----- ------------  ---------------
    94      6.819698   9 F  s               113     -6.819444  10 F  s         
   132     -6.819433  11 F  s               151      6.819690  12 F  s         
   102     -1.938846   9 F  dxx             121      1.938781  10 F  dxx       
   140      1.938779  11 F  dxx             159     -1.938844  12 F  dxx       
    90     -1.863976   9 F  s               109      1.863908  10 F  s         

 Vector  162  Occ=0.000000D+00  E= 5.451189D+00
              MO Center=  8.3D-01, -3.5D-05,  3.7D-06, r^2= 6.2D+00
   Bfn.  Coefficient  Atom+Function         Bfn.  Coefficient  Atom+Function  
  ----- ------------  ---------------      ----- ------------  ---------------
    94      7.668661   9 F  s               113      7.668886  10 F  s         
   132      7.668861  11 F  s               151      7.668638  12 F  s         
    98     -2.761105   9 F  s               117     -2.761159  10 F  s         
   136     -2.761150  11 F  s               155     -2.761096  12 F  s         
    60      2.741094   7 C  s                79      2.740997   8 C  s         

 Vector  163  Occ=0.000000D+00  E= 5.833242D+00
              MO Center=  9.5D-01,  6.4D-06, -4.0D-06, r^2= 5.7D+00
   Bfn.  Coefficient  Atom+Function         Bfn.  Coefficient  Atom+Function  
  ----- ------------  ---------------      ----- ------------  ---------------
    60     31.044321   7 C  s                79    -31.044330   8 C  s         
    94      7.786573   9 F  s               113      7.786495  10 F  s         
   132     -7.786520  11 F  s               151     -7.786596  12 F  s         
    63     -6.710929   7 C  pz               82     -6.710930   8 C  pz        
    10     -5.016714   1 C  s                29      5.016717   2 C  s         

 Vector  164  Occ=0.000000D+00  E= 6.583989D+00
              MO Center=  1.0D+00, -7.6D-06, -1.2D-06, r^2= 5.7D+00
   Bfn.  Coefficient  Atom+Function         Bfn.  Coefficient  Atom+Function  
  ----- ------------  ---------------      ----- ------------  ---------------
    94      9.735273   9 F  s               113     -9.735331  10 F  s         
   132      9.735338  11 F  s               151     -9.735279  12 F  s         
    58     -6.151206   7 C  py               77      6.151206   8 C  py        
    90     -2.557908   9 F  s               109      2.557923  10 F  s         
   128     -2.557925  11 F  s               147      2.557909  12 F  s         


     ---------------------------------------------
      Total Density - Mulliken Population Analysis
     ---------------------------------------------

    Atom       Charge   Shell Charges
 -----------   ------   -------------------------------------------------------
    1 C    6     5.90   1.99  0.76  1.98  0.64  0.72 -0.10 -0.11  0.02
    2 C    6     5.90   1.99  0.76  1.98  0.64  0.72 -0.10 -0.11  0.02
    3 H    1     0.69   0.51  0.19 -0.01
    4 H    1     0.69   0.51  0.19 -0.01
    5 H    1     0.69   0.51  0.19 -0.01
    6 H    1     0.69   0.51  0.19 -0.01
    7 C    6     6.74   1.99  0.68  1.97  0.39  0.34  1.26  0.03  0.07
    8 C    6     6.74   1.99  0.68  1.97  0.39  0.34  1.26  0.03  0.07
    9 F    9     9.00   1.99  0.97  3.31  0.94  1.85 -0.25  0.12  0.08
   10 F    9     9.00   1.99  0.97  3.31  0.94  1.85 -0.25  0.12  0.08
   11 F    9     9.00   1.99  0.97  3.31  0.94  1.85 -0.25  0.12  0.08
   12 F    9     9.00   1.99  0.97  3.31  0.94  1.85 -0.25  0.12  0.08

     --------------------------------------------
      Spin Density - Mulliken Population Analysis
     --------------------------------------------

    Atom       Charge   Shell Charges
 -----------   ------   -------------------------------------------------------
    1 C    6     0.74  -0.00  0.01  0.32  0.03  0.18  0.08  0.11  0.00
    2 C    6     0.74  -0.00  0.01  0.32  0.03  0.18  0.08  0.11  0.00
    3 H    1    -0.01  -0.01 -0.03  0.02
    4 H    1    -0.01  -0.01 -0.03  0.02
    5 H    1    -0.01  -0.01 -0.03  0.02
    6 H    1    -0.01  -0.01 -0.03  0.02
    7 C    6    -1.28   0.00  0.00 -0.02 -0.07 -0.01 -1.19  0.01 -0.00
    8 C    6    -1.27   0.00  0.00 -0.02 -0.07 -0.01 -1.18  0.01 -0.00
    9 F    9     0.28  -0.00 -0.01 -0.00  0.00  0.00  0.28  0.00  0.00
   10 F    9     0.28  -0.00 -0.01 -0.00  0.00  0.00  0.28  0.00  0.00
   11 F    9     0.28  -0.00 -0.01 -0.00  0.00  0.00  0.28  0.00  0.00
   12 F    9     0.28  -0.00 -0.01 -0.00  0.00  0.00  0.28  0.00  0.00

     -------------------------------------------
      Total Density - Lowdin Population Analysis
     -------------------------------------------

    Atom       Charge   Shell Charges
 -----------   ------   -------------------------------------------------------
    1 C    6     6.01   1.98  0.39  1.76  0.30  0.95  0.06  0.10  0.49
    2 C    6     6.01   1.98  0.39  1.76  0.30  0.95  0.06  0.10  0.49
    3 H    1     0.74   0.46  0.25  0.03
    4 H    1     0.74   0.46  0.25  0.03
    5 H    1     0.74   0.46  0.25  0.03
    6 H    1     0.74   0.46  0.25  0.03
    7 C    6     6.04   1.97  0.32  1.72  0.18  0.78  0.39  0.14  0.54
    8 C    6     6.04   1.97  0.32  1.72  0.18  0.78  0.39  0.14  0.54
    9 F    9     9.23   1.98  0.86  3.15  0.46  1.86  0.13  0.34  0.46
   10 F    9     9.23   1.98  0.86  3.15  0.46  1.86  0.13  0.34  0.46
   11 F    9     9.23   1.98  0.86  3.15  0.46  1.86  0.13  0.34  0.46
   12 F    9     9.23   1.98  0.86  3.15  0.46  1.86  0.13  0.34  0.46

     ------------------------------------------
      Spin Density - Lowdin Population Analysis
     ------------------------------------------

    Atom       Charge   Shell Charges
 -----------   ------   -------------------------------------------------------
    1 C    6     0.52   0.00  0.01  0.29  0.00  0.19 -0.00  0.02  0.01
    2 C    6     0.52   0.00  0.01  0.29  0.00  0.19 -0.00  0.02  0.01
    3 H    1    -0.01  -0.01 -0.00 -0.00
    4 H    1    -0.01  -0.01 -0.00 -0.00
    5 H    1    -0.01  -0.01 -0.00 -0.00
    6 H    1    -0.01  -0.01 -0.00 -0.00
    7 C    6    -0.41  -0.00 -0.00 -0.02 -0.00 -0.00 -0.34 -0.04 -0.01
    8 C    6    -0.41  -0.00 -0.00 -0.02 -0.00 -0.00 -0.34 -0.04 -0.01
    9 F    9    -0.04  -0.00 -0.01 -0.00 -0.00  0.00 -0.02 -0.01 -0.00
   10 F    9    -0.04  -0.00 -0.01 -0.00 -0.00  0.00 -0.02 -0.01 -0.00
   11 F    9    -0.04  -0.00 -0.01 -0.00 -0.00  0.00 -0.02 -0.01 -0.00
   12 F    9    -0.04  -0.00 -0.01 -0.00 -0.00  0.00 -0.02 -0.01 -0.00

   alpha - beta orbital overlaps 
   ----------------------------- 


   alpha      1      2      3      4      5      6      7      8      9     10
    beta      1      2      3      4      7      8      5      6      9     10
 overlap   1.000  0.904  0.905  0.998  1.000  1.000  1.000  1.000  1.000  1.000


   alpha     11     12     13     14     15     16     17     18     19     20
    beta     11     12     20     13     27     14     29     30     15     16
 overlap   1.000  1.000  0.998  1.000  0.999  1.000  1.000  0.998  1.000  1.000


   alpha     21     22     23     24     25     26     27     28     29     30
    beta     17     18     31     19     42     21     22     23     24     25
 overlap   1.000  0.997  1.000  1.000  0.801  1.000  1.000  1.000  1.000  1.000


   alpha     31     32     33     34     35     36     37     38     39     40
    beta     26     28     54     60     62     63     32     66     33     34
 overlap   1.000  0.999  0.703  0.940  0.971  0.963  0.782  0.749  0.914  0.971


   alpha     41     42     43     44     45     46     47     48     49     50
    beta     68     67     35     36     38     73     70     37     71     72
 overlap   0.908  0.940  0.988  0.705  0.935  0.769  0.984  0.892  0.880  0.839


   alpha     51     52     53     54     55     56     57     58     59     60
    beta     40     39     74     75     74     76     77     44     45     44
 overlap   0.864  0.766  0.687  0.821  0.573  0.951  0.500  0.664  0.972  0.707


   alpha     61     62     63     64     65     66     67     68     69     70
    beta     46     79     48     46     49     47     52     51     53     53
 overlap   0.729  0.817  0.966  0.546  0.896  0.568  0.995  0.925  0.753  0.644


   alpha     71     72     73     74     75     76     77     78     79     80
    beta     55     54     58     56     57     59     61     86     64     65
 overlap   0.964  0.525  0.853  0.993  0.955  0.980  0.909  0.993  0.983  0.970


   alpha     81     82     83     84     85     86     87     88     89     90
    beta     69     87     89     88     78     92     80     94     82     84
 overlap   0.923  0.646  0.905  0.997  0.706  0.993  0.997  0.998  0.867  0.997


   alpha     91     92     93     94     95     96     97     98     99    100
    beta     97     98     85    100    101    102     90     91    105     93
 overlap   0.987  0.958  0.950  0.925  0.913  0.927  0.703  0.993  0.889  0.994


   alpha    101    102    103    104    105    106    107    108    109    110
    beta    117     95     96    122     99    103    104    106    133    107
 overlap   0.995  0.995  0.988  0.826  0.988  0.950  0.995  0.943  0.731  0.996


   alpha    111    112    113    114    115    116    117    118    119    120
    beta    108    111    109    110    112    113    114    135    115    116
 overlap   0.974  0.698  0.700  0.733  0.989  0.990  0.986  0.957  0.993  0.999


   alpha    121    122    123    124    125    126    127    128    129    130
    beta    118    119    120    121    123    124    125    126    140    127
 overlap   0.988  0.998  0.853  0.999  1.000  0.995  0.980  0.999  0.978  0.998


   alpha    131    132    133    134    135    136    137    138    139    140
    beta    142    129    128    130    131    132    144    145    134    136
 overlap   0.983  0.996  1.000  0.999  0.992  0.991  0.993  0.693  0.746  0.999


   alpha    141    142    143    144    145    146    147    148    149    150
    beta    137    138    139    141    143    150    151    146    147    148
 overlap   0.973  0.999  1.000  0.999  0.991  1.000  0.995  1.000  0.935  1.000


   alpha    151    152    153    154    155    156    157    158    159    160
    beta    149    152    153    154    155    156    158    159    157    160
 overlap   1.000  1.000  1.000  1.000  1.000  1.000  0.983  0.999  0.983  0.999


   alpha    161    162    163    164
    beta    161    162    163    164
 overlap   1.000  1.000  1.000  1.000

     --------------------------
     Expectation value of S2:  
     --------------------------
      <S2> =      1.0056 (Exact =     0.0000)


 center of mass
 --------------
 x =   0.23468932 y =   0.00000000 z =   0.00000000

 moments of inertia (a.u.)
 ------------------
         961.971679510201           0.000000000000           0.000000000000
           0.000000000000        1869.987145426347           0.000000000000
           0.000000000000           0.000000000000        1593.877051449346

     Multipole analysis of the density
     ---------------------------------

     L   x y z        total         alpha         beta         nuclear
     -   - - -        -----         -----         ----         -------
     0   0 0 0     -0.000000    -32.000000    -32.000000     64.000000

     1   1 0 0     -7.539553      0.209380     -7.748933      0.000000
     1   0 1 0      0.000581     -0.000048      0.000629      0.000000
     1   0 0 1      0.000139     -0.000024      0.000163      0.000000

     2   2 0 0    -14.204375   -359.210378   -340.638345    685.644348
     2   1 1 0      0.001496     -0.000039      0.001535      0.000000
     2   1 0 1      0.000551     -0.000055      0.000606      0.000000
     2   0 2 0    -41.670710   -100.322203   -110.155476    168.806968
     2   0 1 1     -0.000075      0.000002     -0.000077      0.000000
     2   0 0 2    -46.959000   -168.722474   -184.877886    306.641359


 Task  times  cpu:       58.3s     wall:       58.5s


                                NWChem Input Module
                                -------------------


 Summary of allocated global arrays
-----------------------------------
  No active global arrays



                         GA Statistics for process    0
                         ------------------------------

       create   destroy   get      put      acc     scatter   gather  read&inc
calls: 2036     2036     4.19e+05 2.30e+04 2.61e+05    0        0     4867     
number of processes/call 1.05e+00 1.21e+00 1.03e+00 0.00e+00 0.00e+00
bytes total:             1.65e+09 1.24e+08 9.08e+08 0.00e+00 0.00e+00 3.89e+04
bytes remote:            7.44e+08 3.97e+07 3.88e+08 0.00e+00 0.00e+00 0.00e+00
Max memory consumed for GA by this process: 5011456 bytes

MA_summarize_allocated_blocks: starting scan ...
heap block 'gridpts', handle 97, address 0x55568aca3158:
	type of elements:		double precision
	number of elements:		34427946
	address of client space:	0x55568aca31c0
	index for client space:		11837003
	total number of bytes:		275423680
MA_summarize_allocated_blocks: scan completed: 1 heap block, 0 stack blocks
MA usage statistics:

	allocation statistics:
					      heap	     stack
					      ----	     -----
	current number of blocks	         1	         0
	maximum number of blocks	        23	        57
	current total bytes		 275423680	         0
	maximum total bytes		 278115080	  22517864
	maximum total K-bytes		    278116	     22518
	maximum total M-bytes		       279	        23


                                     CITATION
                                     --------
                Please cite the following reference when publishing
                           results obtained with NWChem:

                 M. Valiev, E.J. Bylaska, N. Govind, K. Kowalski,
              T.P. Straatsma, H.J.J. van Dam, D. Wang, J. Nieplocha,
                        E. Apra, T.L. Windus, W.A. de Jong
                 "NWChem: a comprehensive and scalable open-source
                  solution for large scale molecular simulations"
                      Comput. Phys. Commun. 181, 1477 (2010)
                           doi:10.1016/j.cpc.2010.04.018

                                      AUTHORS
                                      -------
          E. Apra, E. J. Bylaska, W. A. de Jong, N. Govind, K. Kowalski,
       T. P. Straatsma, M. Valiev, H. J. J. van Dam, D. Wang, T. L. Windus,
        J. Hammond, J. Autschbach, K. Bhaskaran-Nair, J. Brabec, K. Lopata,
    S. A. Fischer, S. Krishnamoorthy, M. Jacquelin, W. Ma, M. Klemm, O. Villa,
      Y. Chen, V. Anisimov, F. Aquino, S. Hirata, M. T. Hackler, V. Konjkov,
            D. Mejia-Rodriguez, T. Risthaus, M. Malagoli, A. Marenich,
   A. Otero-de-la-Roza, J. Mullin, P. Nichols, R. Peverati, J. Pittner, Y. Zhao,
        P.-D. Fan, A. Fonari, M. J. Williamson, R. J. Harrison, J. R. Rehr,
      M. Dupuis, D. Silverstein, D. M. A. Smith, J. Nieplocha, V. Tipparaju,
    M. Krishnan, B. E. Van Kuiken, A. Vazquez-Mayagoitia, L. Jensen, M. Swart,
      Q. Wu, T. Van Voorhis, A. A. Auer, M. Nooijen, L. D. Crosby, E. Brown,
      G. Cisneros, G. I. Fann, H. Fruchtl, J. Garza, K. Hirao, R. A. Kendall,
      J. A. Nichols, K. Tsemekhman, K. Wolinski, J. Anchell, D. E. Bernholdt,
      P. Borowski, T. Clark, D. Clerc, H. Dachsel, M. J. O. Deegan, K. Dyall,
    D. Elwood, E. Glendening, M. Gutowski, A. C. Hess, J. Jaffe, B. G. Johnson,
     J. Ju, R. Kobayashi, R. Kutteh, Z. Lin, R. Littlefield, X. Long, B. Meng,
      T. Nakajima, S. Niu, L. Pollack, M. Rosing, K. Glaesemann, G. Sandrone,
      M. Stave, H. Taylor, G. Thomas, J. H. van Lenthe, A. T. Wong, Z. Zhang.

 Total times  cpu:       82.0s     wall:       82.2s
