 argument  1 = /home/list1234/source/nwchem-6.8.1-release/QA/tests/ch3_m06-hf/ch3_m06-hf.nw



============================== echo of input deck ==============================
echo
title "M06-HF/6-31+G* CH3 force "

start ch3

geometry
     C     0.000000    0.000000    0.000000
     H     0.000000    1.078410    0.000000
     H     0.933930   -0.539205    0.000000
     H    -0.933930   -0.539205    0.000000
end

basis
* library 6-31+G*
end

dft
xc  m06-hf
mult 2
grid fine
end

task dft  gradient
================================================================================


                                         
                                         


              Northwest Computational Chemistry Package (NWChem) 6.8
              ------------------------------------------------------


                    Environmental Molecular Sciences Laboratory
                       Pacific Northwest National Laboratory
                                Richland, WA 99352

                              Copyright (c) 1994-2018
                       Pacific Northwest National Laboratory
                            Battelle Memorial Institute

             NWChem is an open-source computational chemistry package
                        distributed under the terms of the
                      Educational Community License (ECL) 2.0
             A copy of the license is included with this distribution
                              in the LICENSE.TXT file

                                  ACKNOWLEDGMENT
                                  --------------

            This software and its documentation were developed at the
            EMSL at Pacific Northwest National Laboratory, a multiprogram
            national laboratory, operated for the U.S. Department of Energy
            by Battelle under Contract Number DE-AC05-76RL01830. Support
            for this work was provided by the Department of Energy Office
            of Biological and Environmental Research, Office of Basic
            Energy Sciences, and the Office of Advanced Scientific Computing.


           Job information
           ---------------

    hostname        = list1234-B360M-H
    program         = /home/list1234/source/nwchem-6.8.1-release/bin/LINUX64/nwchem
    date            = Sun Jun 30 08:00:01 2019

    compiled        = Sun_Jun_30_05:21:11_2019
    source          = /home/list1234/source/nwchem-6.8.1-release
    nwchem branch   = Development
    nwchem revision = N/A
    ga revision     = 5.6.5
    use scalapack   = T
    input           = /home/list1234/source/nwchem-6.8.1-release/QA/tests/ch3_m06-hf/ch3_m06-hf.nw
    prefix          = ch3.
    data base       = ./ch3.db
    status          = startup
    nproc           =        4
    time left       =     -1s



           Memory information
           ------------------

    heap     =   86247164 doubles =    658.0 Mbytes
    stack    =   86247169 doubles =    658.0 Mbytes
    global   =  172494336 doubles =   1316.0 Mbytes (distinct from heap & stack)
    total    =  344988669 doubles =   2632.1 Mbytes
    verify   = yes
    hardfail = no 


           Directory information
           ---------------------

  0 permanent = .
  0 scratch   = .




                                NWChem Input Module
                                -------------------


                             M06-HF/6-31+G* CH3 force
                             ------------------------

 Scaling coordinates for geometry "geometry" by  1.889725989
 (inverse scale =  0.529177249)

 D3H symmetry detected

          ------
          auto-z
          ------
  Looking for out-of-plane bends
  no constraints, skipping    0.0000000000000000     
  no constraints, skipping    0.0000000000000000     


                             Geometry "geometry" -> ""
                             -------------------------

 Output coordinates in angstroms (scale by  1.889725989 to convert to a.u.)

  No.       Tag          Charge          X              Y              Z
 ---- ---------------- ---------- -------------- -------------- --------------
    1 C                    6.0000    -0.00000000    -0.00000000     0.00000000
    2 H                    1.0000     0.76255084     0.76255084     0.00000000
    3 H                    1.0000     0.27911298    -1.04166382     0.00000000
    4 H                    1.0000    -1.04166382     0.27911298     0.00000000

      Atomic Mass 
      ----------- 

      C                 12.000000
      H                  1.007825


 Effective nuclear repulsion energy (a.u.)       9.6825464442

            Nuclear Dipole moment (a.u.) 
            ----------------------------
        X                 Y               Z
 ---------------- ---------------- ----------------
    -0.0000000000    -0.0000000000     0.0000000000

      Symmetry information
      --------------------

 Group name             D3h       
 Group number             27
 Group order              12
 No. of unique centers     2

      Symmetry unique atoms

     1    2



                                Z-matrix (autoz)
                                -------- 

 Units are Angstrom for bonds and degrees for angles

      Type          Name      I     J     K     L     M      Value
      ----------- --------  ----- ----- ----- ----- ----- ----------
    1 Stretch                  1     2                       1.07841
    2 Stretch                  1     3                       1.07841
    3 Stretch                  1     4                       1.07841
    4 Bend                     2     1     3               120.00000
    5 Bend                     2     1     4               120.00000
    6 Bend                     3     1     4               120.00000
    7 Torsion                  2     1     3     4         180.00000
    8 Torsion                  2     1     4     3         180.00000
    9 Torsion                  3     1     2     4         180.00000
   10 Torsion                  2     4     1     3         180.00000
   11 Torsion                  3     2     1     4         180.00000
   12 Torsion                  2     3     1     4         180.00000


            XYZ format geometry
            -------------------
     4
 geometry
 C                    -0.00000000    -0.00000000     0.00000000
 H                     0.76255084     0.76255084     0.00000000
 H                     0.27911298    -1.04166382     0.00000000
 H                    -1.04166382     0.27911298     0.00000000

 ==============================================================================
                                internuclear distances
 ------------------------------------------------------------------------------
       center one      |      center two      | atomic units |  angstroms
 ------------------------------------------------------------------------------
    2 H                |   1 C                |     2.03790  |     1.07841
    3 H                |   1 C                |     2.03790  |     1.07841
    4 H                |   1 C                |     2.03790  |     1.07841
 ------------------------------------------------------------------------------
                         number of included internuclear distances:          3
 ==============================================================================



 ==============================================================================
                                 internuclear angles
 ------------------------------------------------------------------------------
        center 1       |       center 2       |       center 3       |  degrees
 ------------------------------------------------------------------------------
    2 H                |   1 C                |   3 H                |   120.00
    2 H                |   1 C                |   4 H                |   120.00
    3 H                |   1 C                |   4 H                |   120.00
 ------------------------------------------------------------------------------
                            number of included internuclear angles:          3
 ==============================================================================





 Summary of "ao basis" -> "" (cartesian)
 ------------------------------------------------------------------------------
       Tag                 Description            Shells   Functions and Types
 ---------------- ------------------------------  ------  ---------------------
 *                          6-31+G*                   on all atoms 



                                 NWChem DFT Module
                                 -----------------


                             M06-HF/6-31+G* CH3 force


                      Basis "ao basis" -> "ao basis" (cartesian)
                      -----
  C (Carbon)
  ----------
            Exponent  Coefficients 
       -------------- ---------------------------------------------------------
  1 S  3.04752490E+03  0.001835
  1 S  4.57369510E+02  0.014037
  1 S  1.03948690E+02  0.068843
  1 S  2.92101550E+01  0.232184
  1 S  9.28666300E+00  0.467941
  1 S  3.16392700E+00  0.362312

  2 S  7.86827240E+00 -0.119332
  2 S  1.88128850E+00 -0.160854
  2 S  5.44249300E-01  1.143456

  3 P  7.86827240E+00  0.068999
  3 P  1.88128850E+00  0.316424
  3 P  5.44249300E-01  0.744308

  4 S  1.68714400E-01  1.000000

  5 P  1.68714400E-01  1.000000

  6 S  4.38000000E-02  1.000000

  7 P  4.38000000E-02  1.000000

  8 D  8.00000000E-01  1.000000

  H (Hydrogen)
  ------------
            Exponent  Coefficients 
       -------------- ---------------------------------------------------------
  1 S  1.87311370E+01  0.033495
  1 S  2.82539370E+00  0.234727
  1 S  6.40121700E-01  0.813757

  2 S  1.61277800E-01  1.000000



 Summary of "ao basis" -> "ao basis" (cartesian)
 ------------------------------------------------------------------------------
       Tag                 Description            Shells   Functions and Types
 ---------------- ------------------------------  ------  ---------------------
 C                          6-31+G*                  8       19   4s3p1d
 H                          6-31+G*                  2        2   2s




 Summary of "ao basis" -> "ao basis" (cartesian)
 ------------------------------------------------------------------------------
       Tag                 Description            Shells   Functions and Types
 ---------------- ------------------------------  ------  ---------------------
 C                          6-31+G*                  8       19   4s3p1d
 H                          6-31+G*                  2        2   2s


      Symmetry analysis of basis
      --------------------------

        a1'         8
        a1"         0
        a2'         0
        a2"         3
        e'         12
        e"          2

  Caching 1-el integrals 
  Rotation of axis 

            General Information
            -------------------
          SCF calculation type: DFT
          Wavefunction type:  spin polarized.
          No. of atoms     :     4
          No. of electrons :     9
           Alpha electrons :     5
            Beta electrons :     4
          Charge           :     0
          Spin multiplicity:     2
          Use of symmetry is: on ; symmetry adaption is: on 
          Maximum number of iterations:  30
          AO basis - number of functions:    25
                     number of shells:    14
          Convergence on energy requested:  1.00D-06
          Convergence on density requested:  1.00D-05
          Convergence on gradient requested:  5.00D-04

              XC Information
              --------------
                       M06-HF Method XC Functional
                     Hartree-Fock (Exact) Exchange  1.000          
                        M06-HF Exchange Functional  1.000          
                      M06-HF Correlation Potential  1.000          

             Grid Information
             ----------------
          Grid used for XC integration:  fine      
          Radial quadrature: Mura-Knowles        
          Angular quadrature: Lebedev. 
          Tag              B.-S. Rad. Rad. Pts. Rad. Cut. Ang. Pts.
          ---              ---------- --------- --------- ---------
          C                   0.70       70           8.0       590
          H                   0.35       60           7.0       590
          Grid pruning is: on 
          Number of quadrature shells:   130
          Spatial weights used:  Erf1

          Convergence Information
          -----------------------
          Convergence aids based upon iterative change in 
          total energy or number of iterations. 
          Levelshifting, if invoked, occurs when the 
          HOMO/LUMO gap drops below (HL_TOL):  1.00D-02
          DIIS, if invoked, will attempt to extrapolate 
          using up to (NFOCK): 10 stored Fock matrices.

                    Damping( 0%)  Levelshifting(0.5)       DIIS
                  --------------- ------------------- ---------------
          dE  on:    start            ASAP                start   
          dE off:    2 iters         30 iters            30 iters 


      Screening Tolerance Information
      -------------------------------
          Density screening/tol_rho:  1.00D-10
          AO Gaussian exp screening on grid/accAOfunc:  14
          CD Gaussian exp screening on grid/accCDfunc:  20
          XC Gaussian exp screening on grid/accXCfunc:  20
          Schwarz screening/accCoul:  1.00D-08


      Superposition of Atomic Density Guess
      -------------------------------------

 Sum of atomic energies:         -39.15818925

      Non-variational initial energy
      ------------------------------

 Total energy =     -39.481450
 1-e energy   =     -70.480045
 2-e energy   =      21.316048
 HOMO         =      -0.169389
 LUMO         =       0.073110


   Symmetry analysis of molecular orbitals - initial alpha
   -------------------------------------------------------

  Numbering of irreducible representations: 

     1 a1'         2 a1"         3 a2'         4 a2"         5 e'      
     6 e"      

  Orbital symmetries:

     1 a1'         2 a1'         3 e'          4 e'          5 a2"     
     6 a1'         7 e'          8 e'          9 a2"        10 a1'     
    11 e'         12 e'         13 e'         14 e'         15 a2"     


   Symmetry analysis of molecular orbitals - initial beta
   ------------------------------------------------------

  Numbering of irreducible representations: 

     1 a1'         2 a1"         3 a2'         4 a2"         5 e'      
     6 e"      

  Orbital symmetries:

     1 a1'         2 a1'         3 e'          4 e'          5 a2"     
     6 a1'         7 e'          8 e'          9 a2"        10 a1'     
    11 e'         12 e'         13 e'         14 e'         15 a2"     

   Time after variat. SCF:      0.1
   Time prior to 1st pass:      0.1

 Grid_pts file          = ./ch3.gridpts.0
 Record size in doubles =  12289        No. of grid_pts per rec  =   3070
 Max. records in memory =      8        Max. recs in file   = 253312716


           Memory utilization after 1st SCF pass: 
           Heap Space remaining (MW):       51.72            51719532
          Stack Space remaining (MW):       86.25            86246796

   convergence    iter        energy       DeltaE   RMS-Dens  Diis-err    time
 ---------------- ----- ----------------- --------- --------- ---------  ------
 d= 0,ls=0.0,diis     1    -39.8024377499 -4.95D+01  4.09D-03  2.66D-02     0.1
                                                     3.93D-03  3.33D-02
 d= 0,ls=0.0,diis     2    -39.8174934466 -1.51D-02  1.28D-03  8.59D-04     0.2
                                                     1.44D-03  1.77D-03
 d= 0,ls=0.0,diis     3    -39.8128108808  4.68D-03  7.48D-04  7.10D-04     0.2
                                                     1.42D-03  1.37D-03
 d= 0,ls=0.0,diis     4    -39.8140003226 -1.19D-03  7.79D-04  1.20D-04     0.3
                                                     1.81D-03  4.00D-04
 d= 0,ls=0.0,diis     5    -39.8144257235 -4.25D-04  1.21D-04  2.15D-05     0.3
                                                     9.65D-05  8.53D-06
  Resetting Diis
 d= 0,ls=0.0,diis     6    -39.8144338235 -8.10D-06  4.46D-05  1.07D-06     0.4
                                                     1.04D-04  3.32D-06
 d= 0,ls=0.0,diis     7    -39.8144367825 -2.96D-06  1.28D-05  5.71D-08     0.4
                                                     1.72D-05  1.51D-07
 d= 0,ls=0.0,diis     8    -39.8144368410 -5.84D-08  8.37D-06  3.11D-08     0.4
                                                     3.93D-06  5.07D-09


         Total DFT energy =      -39.814436840977
      One electron energy =      -71.542872355542
           Coulomb energy =       28.496939864830
    Exchange-Corr. energy =       -6.451050794483
 Nuclear repulsion energy =        9.682546444217

 Numeric. integr. density =        8.999999967983

     Total iterative time =      0.4s



                  Occupations of the irreducible representations
                  ----------------------------------------------

                     irrep           alpha         beta
                     --------     --------     --------
                     a1'               2.0          2.0
                     a1"               0.0          0.0
                     a2'               0.0          0.0
                     a2"               1.0          0.0
                     e'                2.0          2.0
                     e"                0.0          0.0


                    DFT Final Alpha Molecular Orbital Analysis
                    ------------------------------------------

 Vector    1  Occ=1.000000D+00  E=-1.098009D+01  Symmetry=a1'
              MO Center=  1.7D-18, -1.6D-18,  5.6D-22, r^2= 2.8D-02
   Bfn.  Coefficient  Atom+Function         Bfn.  Coefficient  Atom+Function  
  ----- ------------  ---------------      ----- ------------  ---------------
     1      0.993438  1 C  s                  2      0.043261  1 C  s          

 Vector    2  Occ=1.000000D+00  E=-8.821812D-01  Symmetry=a1'
              MO Center=  6.1D-16, -2.4D-16, -2.4D-17, r^2= 1.0D+00
   Bfn.  Coefficient  Atom+Function         Bfn.  Coefficient  Atom+Function  
  ----- ------------  ---------------      ----- ------------  ---------------
     6      0.412296  1 C  s                  2      0.410117  1 C  s          
     1     -0.203232  1 C  s                 20      0.149737  2 H  s          
    22      0.149737  3 H  s                 24      0.149737  4 H  s          
    19     -0.040021  1 C  dzz               21      0.030811  2 H  s          
    23      0.030811  3 H  s                 25      0.030811  4 H  s          

 Vector    3  Occ=1.000000D+00  E=-5.880816D-01  Symmetry=e'
              MO Center= -2.3D-01,  9.3D-02,  7.5D-34, r^2= 1.2D+00
   Bfn.  Coefficient  Atom+Function         Bfn.  Coefficient  Atom+Function  
  ----- ------------  ---------------      ----- ------------  ---------------
     3      0.473511  1 C  px                24     -0.272093  4 H  s          
     7      0.202604  1 C  px                25     -0.174700  4 H  s          
    20      0.151151  2 H  s                 22      0.120942  3 H  s          
    21      0.097048  2 H  s                  4     -0.094895  1 C  py         
    23      0.077652  3 H  s                  8     -0.040603  1 C  py         

 Vector    4  Occ=1.000000D+00  E=-5.880816D-01  Symmetry=e'
              MO Center=  2.3D-01, -9.3D-02,  1.2D-17, r^2= 1.2D+00
   Bfn.  Coefficient  Atom+Function         Bfn.  Coefficient  Atom+Function  
  ----- ------------  ---------------      ----- ------------  ---------------
     4      0.473511  1 C  py                22     -0.244360  3 H  s          
    20      0.226919  2 H  s                  8      0.202604  1 C  py         
    23     -0.156894  3 H  s                 21      0.145695  2 H  s          
     3      0.094895  1 C  px                15      0.042574  1 C  dxy        
     7      0.040603  1 C  px         

 Vector    5  Occ=1.000000D+00  E=-3.418895D-01  Symmetry=a2"
              MO Center=  3.7D-17, -3.4D-17, -1.1D-14, r^2= 1.4D+00
   Bfn.  Coefficient  Atom+Function         Bfn.  Coefficient  Atom+Function  
  ----- ------------  ---------------      ----- ------------  ---------------
     5      0.573586  1 C  pz                 9      0.464126  1 C  pz         
    13      0.168434  1 C  pz         

 Vector    6  Occ=0.000000D+00  E= 6.184715D-02  Symmetry=a1'
              MO Center=  1.8D-14, -9.9D-15,  6.1D-17, r^2= 7.6D+00
   Bfn.  Coefficient  Atom+Function         Bfn.  Coefficient  Atom+Function  
  ----- ------------  ---------------      ----- ------------  ---------------
    10      1.587021  1 C  s                  6     -0.537238  1 C  s          
    21     -0.218402  2 H  s                 23     -0.218402  3 H  s          
    25     -0.218402  4 H  s                  2     -0.117804  1 C  s          
     1      0.075852  1 C  s                 19      0.028285  1 C  dzz        

 Vector    7  Occ=0.000000D+00  E= 7.691879D-02  Symmetry=e'
              MO Center= -4.7D-02,  1.2D-01,  2.0D-30, r^2= 9.7D+00
   Bfn.  Coefficient  Atom+Function         Bfn.  Coefficient  Atom+Function  
  ----- ------------  ---------------      ----- ------------  ---------------
    12      1.195848  1 C  py                23      0.320210  3 H  s          
    11     -0.256402  1 C  px                21     -0.174146  2 H  s          
     8     -0.151458  1 C  py                25     -0.146065  4 H  s          
     4     -0.125863  1 C  py                 7      0.032474  1 C  px         
    22      0.027891  3 H  s                  3      0.026986  1 C  px         

 Vector    8  Occ=0.000000D+00  E= 7.691879D-02  Symmetry=e'
              MO Center=  4.7D-02, -1.2D-01, -2.3D-30, r^2= 9.7D+00
   Bfn.  Coefficient  Atom+Function         Bfn.  Coefficient  Atom+Function  
  ----- ------------  ---------------      ----- ------------  ---------------
    11      1.195848  1 C  px                25      0.285417  4 H  s          
    21     -0.269204  2 H  s                 12      0.256402  1 C  py         
     7     -0.151458  1 C  px                 3     -0.125863  1 C  px         
     8     -0.032474  1 C  py                 4     -0.026986  1 C  py         

 Vector    9  Occ=0.000000D+00  E= 1.101507D-01  Symmetry=a2"
              MO Center=  7.9D-19, -2.6D-19,  1.2D-14, r^2= 9.0D+00
   Bfn.  Coefficient  Atom+Function         Bfn.  Coefficient  Atom+Function  
  ----- ------------  ---------------      ----- ------------  ---------------
    13      1.154030  1 C  pz                 9     -0.474601  1 C  pz         
     5     -0.226692  1 C  pz         

 Vector   10  Occ=0.000000D+00  E= 2.938823D-01  Symmetry=e'
              MO Center= -3.6D-01,  6.0D-02,  4.4D-17, r^2= 3.3D+00
   Bfn.  Coefficient  Atom+Function         Bfn.  Coefficient  Atom+Function  
  ----- ------------  ---------------      ----- ------------  ---------------
    25      2.177174  4 H  s                  7      1.570618  1 C  px         
    23     -1.177515  3 H  s                 21     -0.999659  2 H  s          
     8     -0.501258  1 C  py                11      0.339200  1 C  px         
     3      0.255262  1 C  px                12     -0.108255  1 C  py         
    24      0.095979  4 H  s                  4     -0.081466  1 C  py         

 Vector   11  Occ=0.000000D+00  E= 2.938823D-01  Symmetry=e'
              MO Center=  3.6D-01, -6.0D-02,  1.1D-31, r^2= 3.3D+00
   Bfn.  Coefficient  Atom+Function         Bfn.  Coefficient  Atom+Function  
  ----- ------------  ---------------      ----- ------------  ---------------
    21      1.936831  2 H  s                 23     -1.834145  3 H  s          
     8     -1.570618  1 C  py                 7     -0.501258  1 C  px         
    12     -0.339200  1 C  py                 4     -0.255262  1 C  py         
    11     -0.108255  1 C  px                25     -0.102686  4 H  s          
    20      0.085384  2 H  s                  3     -0.081466  1 C  px         

 Vector   12  Occ=0.000000D+00  E= 3.013028D-01  Symmetry=a1'
              MO Center=  1.6D-14, -5.0D-15,  2.2D-16, r^2= 4.0D+00
   Bfn.  Coefficient  Atom+Function         Bfn.  Coefficient  Atom+Function  
  ----- ------------  ---------------      ----- ------------  ---------------
     6      2.653759  1 C  s                 21     -1.550306  2 H  s          
    23     -1.550306  3 H  s                 25     -1.550306  4 H  s          
    10      1.068976  1 C  s                  1     -0.140437  1 C  s          
     2      0.097578  1 C  s                 20     -0.086479  2 H  s          
    22     -0.086479  3 H  s                 24     -0.086479  4 H  s          

 Vector   13  Occ=0.000000D+00  E= 7.216768D-01  Symmetry=e'
              MO Center=  1.5D-01,  2.5D-02, -1.1D-17, r^2= 2.8D+00
   Bfn.  Coefficient  Atom+Function         Bfn.  Coefficient  Atom+Function  
  ----- ------------  ---------------      ----- ------------  ---------------
     7      1.535031  1 C  px                 3     -0.823750  1 C  px         
     8     -0.794243  1 C  py                11     -0.469042  1 C  px         
     4      0.426218  1 C  py                24      0.334368  4 H  s          
    12      0.242688  1 C  py                22     -0.230626  3 H  s          
    25      0.172646  4 H  s                 23     -0.119080  3 H  s          

 Vector   14  Occ=0.000000D+00  E= 7.216768D-01  Symmetry=e'
              MO Center= -1.5D-01, -2.5D-02, -1.9D-18, r^2= 2.8D+00
   Bfn.  Coefficient  Atom+Function         Bfn.  Coefficient  Atom+Function  
  ----- ------------  ---------------      ----- ------------  ---------------
     8      1.535031  1 C  py                 4     -0.823750  1 C  py         
     7      0.794243  1 C  px                12     -0.469042  1 C  py         
     3     -0.426218  1 C  px                20     -0.326200  2 H  s          
    22      0.252943  3 H  s                 11     -0.242688  1 C  px         
    21     -0.168428  2 H  s                 15     -0.147349  1 C  dxy        

 Vector   15  Occ=0.000000D+00  E= 7.420040D-01  Symmetry=a2"
              MO Center=  8.5D-30,  2.3D-29, -1.2D-15, r^2= 2.6D+00
   Bfn.  Coefficient  Atom+Function         Bfn.  Coefficient  Atom+Function  
  ----- ------------  ---------------      ----- ------------  ---------------
     9      1.385534  1 C  pz                 5     -1.097710  1 C  pz         
    13     -0.527659  1 C  pz         

 Vector   16  Occ=0.000000D+00  E= 8.732257D-01  Symmetry=a1'
              MO Center= -3.0D-16, -1.8D-15, -1.8D-16, r^2= 2.6D+00
   Bfn.  Coefficient  Atom+Function         Bfn.  Coefficient  Atom+Function  
  ----- ------------  ---------------      ----- ------------  ---------------
     6      2.880866  1 C  s                  2     -1.514351  1 C  s          
    10     -0.733401  1 C  s                 20     -0.375456  2 H  s          
    22     -0.375456  3 H  s                 24     -0.375456  4 H  s          
    14     -0.173587  1 C  dxx               17     -0.173587  1 C  dyy        
    21     -0.111781  2 H  s                 23     -0.111781  3 H  s          

 Vector   17  Occ=0.000000D+00  E= 1.110893D+00  Symmetry=e'
              MO Center=  3.2D-01, -1.5D-02, -1.9D-31, r^2= 2.0D+00
   Bfn.  Coefficient  Atom+Function         Bfn.  Coefficient  Atom+Function  
  ----- ------------  ---------------      ----- ------------  ---------------
    21      1.548476  2 H  s                 23     -1.365497  3 H  s          
     8     -0.904595  1 C  py                20     -0.805424  2 H  s          
    22      0.710250  3 H  s                  4      0.666869  1 C  py         
    15     -0.523420  1 C  dxy                7     -0.351000  1 C  px         
    12     -0.299910  1 C  py                 3      0.258758  1 C  px         

 Vector   18  Occ=0.000000D+00  E= 1.110893D+00  Symmetry=e'
              MO Center= -3.2D-01,  1.5D-02, -2.6D-17, r^2= 2.0D+00
   Bfn.  Coefficient  Atom+Function         Bfn.  Coefficient  Atom+Function  
  ----- ------------  ---------------      ----- ------------  ---------------
    25      1.682383  4 H  s                 23     -0.999656  3 H  s          
     7      0.904595  1 C  px                24     -0.875075  4 H  s          
    21     -0.682727  2 H  s                  3     -0.666869  1 C  px         
    22      0.519961  3 H  s                 20      0.355114  2 H  s          
     8     -0.351000  1 C  py                11      0.299910  1 C  px         

 Vector   19  Occ=0.000000D+00  E= 1.139326D+00  Symmetry=a1'
              MO Center=  3.7D-14, -1.5D-14, -1.2D-17, r^2= 2.3D+00
   Bfn.  Coefficient  Atom+Function         Bfn.  Coefficient  Atom+Function  
  ----- ------------  ---------------      ----- ------------  ---------------
     6      2.752258  1 C  s                 21     -1.337625  2 H  s          
    23     -1.337625  3 H  s                 25     -1.337625  4 H  s          
     2     -1.274922  1 C  s                 20      0.601608  2 H  s          
    22      0.601608  3 H  s                 24      0.601608  4 H  s          
    10      0.588368  1 C  s                 19     -0.268079  1 C  dzz        

 Vector   20  Occ=0.000000D+00  E= 1.737730D+00  Symmetry=e"
              MO Center= -1.9D-18, -1.9D-18,  4.1D-18, r^2= 6.1D-01
   Bfn.  Coefficient  Atom+Function         Bfn.  Coefficient  Atom+Function  
  ----- ------------  ---------------      ----- ------------  ---------------
    16      1.228594  1 C  dxz               18      1.220883  1 C  dyz        

 Vector   21  Occ=0.000000D+00  E= 1.737730D+00  Symmetry=e"
              MO Center= -3.6D-17,  3.6D-17, -1.9D-17, r^2= 6.1D-01
   Bfn.  Coefficient  Atom+Function         Bfn.  Coefficient  Atom+Function  
  ----- ------------  ---------------      ----- ------------  ---------------
    18     -1.228594  1 C  dyz               16      1.220883  1 C  dxz        

 Vector   22  Occ=0.000000D+00  E= 2.129580D+00  Symmetry=a1'
              MO Center= -1.2D-16, -7.8D-17, -3.3D-17, r^2= 8.7D-01
   Bfn.  Coefficient  Atom+Function         Bfn.  Coefficient  Atom+Function  
  ----- ------------  ---------------      ----- ------------  ---------------
    19      1.092852  1 C  dzz                6     -0.686503  1 C  s          
    20      0.511706  2 H  s                 22      0.511706  3 H  s          
    24      0.511706  4 H  s                 14     -0.484381  1 C  dxx        
    17     -0.484381  1 C  dyy               10      0.192247  1 C  s          
    21     -0.096339  2 H  s                 23     -0.096339  3 H  s          

 Vector   23  Occ=0.000000D+00  E= 2.399812D+00  Symmetry=e'
              MO Center= -2.1D-02, -1.3D-01, -3.1D-18, r^2= 1.0D+00
   Bfn.  Coefficient  Atom+Function         Bfn.  Coefficient  Atom+Function  
  ----- ------------  ---------------      ----- ------------  ---------------
    14      0.901252  1 C  dxx               17     -0.901252  1 C  dyy        
    22      0.890050  3 H  s                 24     -0.609283  4 H  s          
    15      0.584635  1 C  dxy                8      0.472041  1 C  py         
    20     -0.280767  2 H  s                  7     -0.240826  1 C  px         
    23     -0.229551  3 H  s                  4      0.178081  1 C  py         

 Vector   24  Occ=0.000000D+00  E= 2.399812D+00  Symmetry=e'
              MO Center=  2.1D-02,  1.3D-01,  4.6D-21, r^2= 1.0D+00
   Bfn.  Coefficient  Atom+Function         Bfn.  Coefficient  Atom+Function  
  ----- ------------  ---------------      ----- ------------  ---------------
    15      1.802503  1 C  dxy               20     -0.865640  2 H  s          
    24      0.675972  4 H  s                  7      0.472041  1 C  px         
    14     -0.292318  1 C  dxx               17      0.292318  1 C  dyy        
     8      0.240826  1 C  py                21      0.223256  2 H  s          
    22      0.189669  3 H  s                  3      0.178081  1 C  px         

 Vector   25  Occ=0.000000D+00  E= 4.004220D+00  Symmetry=a1'
              MO Center=  4.0D-17, -8.4D-17,  2.9D-19, r^2= 7.4D-01
   Bfn.  Coefficient  Atom+Function         Bfn.  Coefficient  Atom+Function  
  ----- ------------  ---------------      ----- ------------  ---------------
     2      3.034691  1 C  s                 14     -1.867098  1 C  dxx        
    17     -1.867098  1 C  dyy                6      1.817336  1 C  s          
    19     -1.798339  1 C  dzz                1     -0.463138  1 C  s          
    21     -0.431438  2 H  s                 23     -0.431438  3 H  s          
    25     -0.431438  4 H  s                 20      0.187631  2 H  s          


                     DFT Final Beta Molecular Orbital Analysis
                     -----------------------------------------

 Vector    1  Occ=1.000000D+00  E=-1.098013D+01  Symmetry=a1'
              MO Center= -8.4D-22, -3.2D-22, -7.3D-39, r^2= 2.8D-02
   Bfn.  Coefficient  Atom+Function         Bfn.  Coefficient  Atom+Function  
  ----- ------------  ---------------      ----- ------------  ---------------
     1      0.993971  1 C  s                  2      0.040708  1 C  s          

 Vector    2  Occ=1.000000D+00  E=-8.484012D-01  Symmetry=a1'
              MO Center= -2.7D-17, -6.1D-17,  8.2D-35, r^2= 1.0D+00
   Bfn.  Coefficient  Atom+Function         Bfn.  Coefficient  Atom+Function  
  ----- ------------  ---------------      ----- ------------  ---------------
     2      0.374362  1 C  s                  6      0.333719  1 C  s          
     1     -0.193174  1 C  s                 20      0.163798  2 H  s          
    22      0.163798  3 H  s                 24      0.163798  4 H  s          
    21      0.061831  2 H  s                 23      0.061831  3 H  s          
    25      0.061831  4 H  s          

 Vector    3  Occ=1.000000D+00  E=-5.734478D-01  Symmetry=e'
              MO Center=  3.8D-02, -2.7D-01,  2.0D-17, r^2= 1.2D+00
   Bfn.  Coefficient  Atom+Function         Bfn.  Coefficient  Atom+Function  
  ----- ------------  ---------------      ----- ------------  ---------------
     4      0.416262  1 C  py                22     -0.282844  3 H  s          
    23     -0.213004  3 H  s                  8      0.185508  1 C  py         
    24      0.156700  4 H  s                  3     -0.139837  1 C  px         
    20      0.126144  2 H  s                 25      0.118007  4 H  s          
    21      0.094997  2 H  s                  7     -0.062318  1 C  px         

 Vector    4  Occ=1.000000D+00  E=-5.734478D-01  Symmetry=e'
              MO Center= -3.8D-02,  2.7D-01, -4.4D-19, r^2= 1.2D+00
   Bfn.  Coefficient  Atom+Function         Bfn.  Coefficient  Atom+Function  
  ----- ------------  ---------------      ----- ------------  ---------------
     3      0.416262  1 C  px                20      0.253771  2 H  s          
    24     -0.236130  4 H  s                 21      0.191109  2 H  s          
     7      0.185508  1 C  px                25     -0.177824  4 H  s          
     4      0.139837  1 C  py                15      0.064668  1 C  dxy        
     8      0.062318  1 C  py                11      0.027028  1 C  px         

 Vector    5  Occ=0.000000D+00  E=-1.060184D-01  Symmetry=a2"
              MO Center=  1.1D-32, -9.3D-32,  1.1D-30, r^2= 8.9D+00
   Bfn.  Coefficient  Atom+Function         Bfn.  Coefficient  Atom+Function  
  ----- ------------  ---------------      ----- ------------  ---------------
    13      1.100122  1 C  pz                 9     -0.222800  1 C  pz         
     5      0.123587  1 C  pz         

 Vector    6  Occ=0.000000D+00  E=-3.097183D-02  Symmetry=a1'
              MO Center= -1.7D-15, -3.8D-15, -6.3D-15, r^2= 8.2D+00
   Bfn.  Coefficient  Atom+Function         Bfn.  Coefficient  Atom+Function  
  ----- ------------  ---------------      ----- ------------  ---------------
    10      1.770946  1 C  s                 21     -0.477070  2 H  s          
    23     -0.477070  3 H  s                 25     -0.477070  4 H  s          
     6     -0.171393  1 C  s                  1      0.053304  1 C  s          
     2     -0.049381  1 C  s          

 Vector    7  Occ=0.000000D+00  E= 2.019310D-02  Symmetry=e'
              MO Center= -1.2D-01,  1.3D-01,  4.1D-34, r^2= 9.8D+00
   Bfn.  Coefficient  Atom+Function         Bfn.  Coefficient  Atom+Function  
  ----- ------------  ---------------      ----- ------------  ---------------
    12      1.256052  1 C  py                23      0.438522  3 H  s          
    21     -0.311169  2 H  s                 25     -0.127353  4 H  s          
     8     -0.105491  1 C  py                 4     -0.097759  1 C  py         
    11     -0.030598  1 C  px         

 Vector    8  Occ=0.000000D+00  E= 2.019310D-02  Symmetry=e'
              MO Center=  1.2D-01, -1.3D-01,  3.8D-18, r^2= 9.8D+00
   Bfn.  Coefficient  Atom+Function         Bfn.  Coefficient  Atom+Function  
  ----- ------------  ---------------      ----- ------------  ---------------
    11      1.256052  1 C  px                25      0.432834  4 H  s          
    21     -0.326708  2 H  s                 23     -0.106126  3 H  s          
     7     -0.105491  1 C  px                 3     -0.097759  1 C  px         
    12      0.030598  1 C  py         

 Vector    9  Occ=0.000000D+00  E= 9.770657D-02  Symmetry=a2"
              MO Center= -2.7D-30, -6.1D-31,  6.3D-15, r^2= 2.3D+00
   Bfn.  Coefficient  Atom+Function         Bfn.  Coefficient  Atom+Function  
  ----- ------------  ---------------      ----- ------------  ---------------
     9      0.884028  1 C  pz                13     -0.513777  1 C  pz         
     5      0.396347  1 C  pz         

 Vector   10  Occ=0.000000D+00  E= 2.756367D-01  Symmetry=a1'
              MO Center= -6.7D-16, -5.5D-16, -7.6D-31, r^2= 3.8D+00
   Bfn.  Coefficient  Atom+Function         Bfn.  Coefficient  Atom+Function  
  ----- ------------  ---------------      ----- ------------  ---------------
     6      2.824423  1 C  s                 21     -1.577600  2 H  s          
    23     -1.577600  3 H  s                 25     -1.577600  4 H  s          
    10      0.866261  1 C  s                  1     -0.147821  1 C  s          
     2      0.051654  1 C  s                 20     -0.033664  2 H  s          
    22     -0.033664  3 H  s                 24     -0.033664  4 H  s          

 Vector   11  Occ=0.000000D+00  E= 2.953917D-01  Symmetry=e'
              MO Center=  1.8D-01, -3.5D-01,  2.4D-17, r^2= 3.3D+00
   Bfn.  Coefficient  Atom+Function         Bfn.  Coefficient  Atom+Function  
  ----- ------------  ---------------      ----- ------------  ---------------
    23      2.238750  3 H  s                  8      1.753005  1 C  py         
    21     -1.326454  2 H  s                 25     -0.912296  4 H  s          
    12      0.283451  1 C  py                 7     -0.274624  1 C  px         
     4      0.216077  1 C  py                22      0.044915  3 H  s          
    11     -0.044405  1 C  px                 3     -0.033850  1 C  px         

 Vector   12  Occ=0.000000D+00  E= 2.953917D-01  Symmetry=e'
              MO Center= -1.8D-01,  3.5D-01, -6.2D-18, r^2= 3.3D+00
   Bfn.  Coefficient  Atom+Function         Bfn.  Coefficient  Atom+Function  
  ----- ------------  ---------------      ----- ------------  ---------------
    25      2.058372  4 H  s                 21     -1.819258  2 H  s          
     7      1.753005  1 C  px                11      0.283451  1 C  px         
     8      0.274624  1 C  py                23     -0.239114  3 H  s          
     3      0.216077  1 C  px                12      0.044405  1 C  py         
    24      0.041297  4 H  s                 20     -0.036499  2 H  s          

 Vector   13  Occ=0.000000D+00  E= 7.260984D-01  Symmetry=e'
              MO Center= -1.1D-01, -2.9D-02, -1.1D-33, r^2= 2.8D+00
   Bfn.  Coefficient  Atom+Function         Bfn.  Coefficient  Atom+Function  
  ----- ------------  ---------------      ----- ------------  ---------------
     8      1.383008  1 C  py                 7      0.798554  1 C  px         
     4     -0.757614  1 C  py                12     -0.461248  1 C  py         
     3     -0.437449  1 C  px                20     -0.426503  2 H  s          
    22      0.312206  3 H  s                 11     -0.266327  1 C  px         
    15     -0.154538  1 C  dxy               24      0.114297  4 H  s          

 Vector   14  Occ=0.000000D+00  E= 7.260984D-01  Symmetry=e'
              MO Center=  1.1D-01,  2.9D-02, -3.7D-33, r^2= 2.8D+00
   Bfn.  Coefficient  Atom+Function         Bfn.  Coefficient  Atom+Function  
  ----- ------------  ---------------      ----- ------------  ---------------
     7      1.383008  1 C  px                 8     -0.798554  1 C  py         
     3     -0.757614  1 C  px                11     -0.461248  1 C  px         
     4      0.437449  1 C  py                24      0.426494  4 H  s          
    22     -0.312231  3 H  s                 12      0.266327  1 C  py         
    20     -0.114263  2 H  s                 14      0.077269  1 C  dxx        

 Vector   15  Occ=0.000000D+00  E= 7.563973D-01  Symmetry=a2"
              MO Center= -4.6D-18, -3.6D-18,  7.0D-15, r^2= 1.9D+00
   Bfn.  Coefficient  Atom+Function         Bfn.  Coefficient  Atom+Function  
  ----- ------------  ---------------      ----- ------------  ---------------
     9     -1.236615  1 C  pz                 5      1.188694  1 C  pz         
    13      0.405395  1 C  pz         

 Vector   16  Occ=0.000000D+00  E= 8.831192D-01  Symmetry=a1'
              MO Center= -5.9D-16,  1.1D-16, -1.1D-14, r^2= 2.4D+00
   Bfn.  Coefficient  Atom+Function         Bfn.  Coefficient  Atom+Function  
  ----- ------------  ---------------      ----- ------------  ---------------
     6      2.957703  1 C  s                  2     -1.414031  1 C  s          
    10     -0.660696  1 C  s                 20     -0.401569  2 H  s          
    22     -0.401569  3 H  s                 24     -0.401569  4 H  s          
    14     -0.203307  1 C  dxx               17     -0.203307  1 C  dyy        
    21     -0.145712  2 H  s                 23     -0.145712  3 H  s          

 Vector   17  Occ=0.000000D+00  E= 1.198167D+00  Symmetry=a1'
              MO Center=  9.2D-14, -1.4D-13,  3.6D-15, r^2= 2.1D+00
   Bfn.  Coefficient  Atom+Function         Bfn.  Coefficient  Atom+Function  
  ----- ------------  ---------------      ----- ------------  ---------------
     6      2.689301  1 C  s                 21     -1.238997  2 H  s          
    23     -1.238997  3 H  s                 25     -1.238997  4 H  s          
     2     -1.206095  1 C  s                 20      0.588849  2 H  s          
    22      0.588849  3 H  s                 24      0.588849  4 H  s          
    10      0.473326  1 C  s                 19     -0.357209  1 C  dzz        

 Vector   18  Occ=0.000000D+00  E= 1.202130D+00  Symmetry=e'
              MO Center=  8.7D-02, -2.5D-01,  6.2D-30, r^2= 1.7D+00
   Bfn.  Coefficient  Atom+Function         Bfn.  Coefficient  Atom+Function  
  ----- ------------  ---------------      ----- ------------  ---------------
    23      1.564716  3 H  s                  8      0.983200  1 C  py         
    22     -0.836471  3 H  s                 21     -0.831991  2 H  s          
     4     -0.796410  1 C  py                25     -0.732726  4 H  s          
    20      0.444768  2 H  s                 24      0.391703  4 H  s          
    15      0.305355  1 C  dxy               12      0.246773  1 C  py         

 Vector   19  Occ=0.000000D+00  E= 1.202130D+00  Symmetry=e'
              MO Center= -8.7D-02,  2.5D-01,  3.4D-18, r^2= 1.7D+00
   Bfn.  Coefficient  Atom+Function         Bfn.  Coefficient  Atom+Function  
  ----- ------------  ---------------      ----- ------------  ---------------
    25     -1.383739  4 H  s                 21      1.326429  2 H  s          
     7     -0.983200  1 C  px                 3      0.796410  1 C  px         
    24      0.739724  4 H  s                 20     -0.709086  2 H  s          
    15     -0.486823  1 C  dxy               11     -0.246773  1 C  px         
     8     -0.225226  1 C  py                 4      0.182437  1 C  py         

 Vector   20  Occ=0.000000D+00  E= 1.854864D+00  Symmetry=e"
              MO Center=  9.1D-19, -7.5D-19, -4.3D-17, r^2= 6.1D-01
   Bfn.  Coefficient  Atom+Function         Bfn.  Coefficient  Atom+Function  
  ----- ------------  ---------------      ----- ------------  ---------------
    16      1.332270  1 C  dxz               18     -1.106823  1 C  dyz        

 Vector   21  Occ=0.000000D+00  E= 1.854864D+00  Symmetry=e"
              MO Center=  3.7D-18,  4.4D-18, -4.6D-19, r^2= 6.1D-01
   Bfn.  Coefficient  Atom+Function         Bfn.  Coefficient  Atom+Function  
  ----- ------------  ---------------      ----- ------------  ---------------
    18      1.332270  1 C  dyz               16      1.106823  1 C  dxz        

 Vector   22  Occ=0.000000D+00  E= 2.275788D+00  Symmetry=a1'
              MO Center=  1.9D-17,  3.5D-16, -5.7D-20, r^2= 8.5D-01
   Bfn.  Coefficient  Atom+Function         Bfn.  Coefficient  Atom+Function  
  ----- ------------  ---------------      ----- ------------  ---------------
    19      1.086140  1 C  dzz               20      0.511314  2 H  s          
    22      0.511314  3 H  s                 24      0.511314  4 H  s          
     6     -0.500995  1 C  s                 14     -0.488295  1 C  dxx        
    17     -0.488295  1 C  dyy               10      0.188404  1 C  s          
    21     -0.135761  2 H  s                 23     -0.135761  3 H  s          

 Vector   23  Occ=0.000000D+00  E= 2.556723D+00  Symmetry=e'
              MO Center= -2.9D-02, -1.4D-01, -8.5D-34, r^2= 1.0D+00
   Bfn.  Coefficient  Atom+Function         Bfn.  Coefficient  Atom+Function  
  ----- ------------  ---------------      ----- ------------  ---------------
    14      0.907203  1 C  dxx               17     -0.907203  1 C  dyy        
    22      0.884303  3 H  s                 24     -0.623793  4 H  s          
    15      0.542865  1 C  dxy                8      0.420768  1 C  py         
    20     -0.260511  2 H  s                 23     -0.246048  3 H  s          
     7     -0.226968  1 C  px                 4      0.197443  1 C  py         

 Vector   24  Occ=0.000000D+00  E= 2.556723D+00  Symmetry=e'
              MO Center=  2.9D-02,  1.4D-01, -1.5D-33, r^2= 1.0D+00
   Bfn.  Coefficient  Atom+Function         Bfn.  Coefficient  Atom+Function  
  ----- ------------  ---------------      ----- ------------  ---------------
    15      1.814406  1 C  dxy               20     -0.870700  2 H  s          
    24      0.660959  4 H  s                  7      0.420768  1 C  px         
    14     -0.271433  1 C  dxx               17      0.271433  1 C  dyy        
    21      0.242263  2 H  s                  8      0.226968  1 C  py         
    22      0.209741  3 H  s                  3      0.197443  1 C  px         

 Vector   25  Occ=0.000000D+00  E= 4.151138D+00  Symmetry=a1'
              MO Center= -1.4D-16,  1.5D-17,  1.4D-20, r^2= 6.8D-01
   Bfn.  Coefficient  Atom+Function         Bfn.  Coefficient  Atom+Function  
  ----- ------------  ---------------      ----- ------------  ---------------
     2      3.118213  1 C  s                 14     -1.865302  1 C  dxx        
    17     -1.865302  1 C  dyy               19     -1.787477  1 C  dzz        
     6      1.673283  1 C  s                  1     -0.465704  1 C  s          
    21     -0.392725  2 H  s                 23     -0.392725  3 H  s          
    25     -0.392725  4 H  s                 20      0.179758  2 H  s          


   alpha - beta orbital overlaps 
   ----------------------------- 


   alpha      1      2      3      4      5      6      7      8      9     10
    beta      1      2      4      3      9      6      7      8      5     12
 overlap   1.000  0.999  0.866  0.866  0.855  0.987  0.980  0.980  0.866  0.890


   alpha     11     12     13     14     15     16     17     18     19     20
    beta     11     10     14     13     15     16     18     19     17     21
 overlap   0.890  0.986  0.994  0.994  0.982  0.998  0.823  0.823  0.996  0.995


   alpha     21     22     23     24     25
    beta     20     22     23     24     25
 overlap   0.995  0.999  0.999  0.999  0.999

     --------------------------
     Expectation value of S2:  
     --------------------------
      <S2> =      0.7563 (Exact =     0.7500)


 center of mass
 --------------
 x =  -0.00000000 y =  -0.00000000 z =   0.00000000

 moments of inertia (a.u.)
 ------------------
           6.278294140161           0.000000000000           0.000000000000
           0.000000000000           6.278294140161           0.000000000000
           0.000000000000           0.000000000000          12.556588280322

     Multipole analysis of the density
     ---------------------------------

     L   x y z        total         alpha         beta         nuclear
     -   - - -        -----         -----         ----         -------
     0   0 0 0     -0.000000     -5.000000     -4.000000      9.000000

     1   1 0 0     -0.000000      0.000000     -0.000000     -0.000000
     1   0 1 0      0.000000      0.000000      0.000000     -0.000000
     1   0 0 1     -0.000000     -0.000000      0.000000      0.000000

     2   2 0 0     -5.477443     -6.187288     -5.519703      6.229548
     2   1 1 0      0.000000     -0.000000      0.000000      0.000000
     2   1 0 1      0.000000      0.000000      0.000000      0.000000
     2   0 2 0     -5.477443     -6.187288     -5.519703      6.229548
     2   0 1 1     -0.000000     -0.000000      0.000000      0.000000
     2   0 0 2     -7.278702     -5.163784     -2.114918      0.000000


            General Information
            -------------------
          SCF calculation type: DFT
          Wavefunction type:  spin polarized.
          No. of atoms     :     4
          No. of electrons :     9
           Alpha electrons :     5
            Beta electrons :     4
          Charge           :     0
          Spin multiplicity:     2
          Use of symmetry is: on ; symmetry adaption is: on 
          Maximum number of iterations:  30
          AO basis - number of functions:    25
                     number of shells:    14
          Convergence on energy requested:  1.00D-06
          Convergence on density requested:  1.00D-05
          Convergence on gradient requested:  5.00D-04

              XC Information
              --------------
                       M06-HF Method XC Functional
                     Hartree-Fock (Exact) Exchange  1.000          
                        M06-HF Exchange Functional  1.000          
                      M06-HF Correlation Potential  1.000          

             Grid Information
             ----------------
          Grid used for XC integration:  fine      
          Radial quadrature: Mura-Knowles        
          Angular quadrature: Lebedev. 
          Tag              B.-S. Rad. Rad. Pts. Rad. Cut. Ang. Pts.
          ---              ---------- --------- --------- ---------
          C                   0.70       70           8.0       590
          H                   0.35       60           7.0       590
          Grid pruning is: on 
          Number of quadrature shells:   130
          Spatial weights used:  Erf1

          Convergence Information
          -----------------------
          Convergence aids based upon iterative change in 
          total energy or number of iterations. 
          Levelshifting, if invoked, occurs when the 
          HOMO/LUMO gap drops below (HL_TOL):  1.00D-02
          DIIS, if invoked, will attempt to extrapolate 
          using up to (NFOCK): 10 stored Fock matrices.

                    Damping( 0%)  Levelshifting(0.5)       DIIS
                  --------------- ------------------- ---------------
          dE  on:    start            ASAP                start   
          dE off:    2 iters         30 iters            30 iters 


      Screening Tolerance Information
      -------------------------------
          Density screening/tol_rho:  1.00D-10
          AO Gaussian exp screening on grid/accAOfunc:  14
          CD Gaussian exp screening on grid/accCDfunc:  20
          XC Gaussian exp screening on grid/accXCfunc:  20
          Schwarz screening/accCoul:  1.00D-08



                            NWChem DFT Gradient Module
                            --------------------------


                             M06-HF/6-31+G* CH3 force



  charge          =   0.00
  wavefunction    = open shell

  Rotation of axis 
  Using symmetry


                         DFT ENERGY GRADIENTS

    atom               coordinates                        gradient
                 x          y          z           x          y          z
   1 C      -0.000000  -0.000000   0.000000    0.000000   0.000000  -0.000000
   2 H       1.441012   1.441012   0.000000    0.001598   0.001598   0.000000
   3 H       0.527447  -1.968459   0.000000    0.000585  -0.002183   0.000000
   4 H      -1.968459   0.527447   0.000000   -0.002183   0.000585   0.000000

                 ----------------------------------------
                 |  Time  |  1-e(secs)   |  2-e(secs)   |
                 ----------------------------------------
                 |  CPU   |       0.00   |       0.02   |
                 ----------------------------------------
                 |  WALL  |       0.00   |       0.02   |
                 ----------------------------------------

 Task  times  cpu:        0.5s     wall:        0.5s


                                NWChem Input Module
                                -------------------


 Summary of allocated global arrays
-----------------------------------
  No active global arrays



                         GA Statistics for process    0
                         ------------------------------

       create   destroy   get      put      acc     scatter   gather  read&inc
calls:  527      527     1.10e+04 1693     4281        0        0     1168     
number of processes/call 1.21e+00 1.27e+00 1.19e+00 0.00e+00 0.00e+00
bytes total:             6.88e+06 1.34e+06 4.35e+06 0.00e+00 0.00e+00 9.34e+03
bytes remote:            1.95e+06 2.92e+05 8.16e+05 0.00e+00 0.00e+00 0.00e+00
Max memory consumed for GA by this process: 196168 bytes

MA_summarize_allocated_blocks: starting scan ...
MA_summarize_allocated_blocks: scan completed: 0 heap blocks, 0 stack blocks
MA usage statistics:

	allocation statistics:
					      heap	     stack
					      ----	     -----
	current number of blocks	         0	         0
	maximum number of blocks	        26	        57
	current total bytes		         0	         0
	maximum total bytes		 276222712	  22511656
	maximum total K-bytes		    276223	     22512
	maximum total M-bytes		       277	        23


                                     CITATION
                                     --------
                Please cite the following reference when publishing
                           results obtained with NWChem:

                 M. Valiev, E.J. Bylaska, N. Govind, K. Kowalski,
              T.P. Straatsma, H.J.J. van Dam, D. Wang, J. Nieplocha,
                        E. Apra, T.L. Windus, W.A. de Jong
                 "NWChem: a comprehensive and scalable open-source
                  solution for large scale molecular simulations"
                      Comput. Phys. Commun. 181, 1477 (2010)
                           doi:10.1016/j.cpc.2010.04.018

                                      AUTHORS
                                      -------
          E. Apra, E. J. Bylaska, W. A. de Jong, N. Govind, K. Kowalski,
       T. P. Straatsma, M. Valiev, H. J. J. van Dam, D. Wang, T. L. Windus,
        J. Hammond, J. Autschbach, K. Bhaskaran-Nair, J. Brabec, K. Lopata,
    S. A. Fischer, S. Krishnamoorthy, M. Jacquelin, W. Ma, M. Klemm, O. Villa,
      Y. Chen, V. Anisimov, F. Aquino, S. Hirata, M. T. Hackler, V. Konjkov,
            D. Mejia-Rodriguez, T. Risthaus, M. Malagoli, A. Marenich,
   A. Otero-de-la-Roza, J. Mullin, P. Nichols, R. Peverati, J. Pittner, Y. Zhao,
        P.-D. Fan, A. Fonari, M. J. Williamson, R. J. Harrison, J. R. Rehr,
      M. Dupuis, D. Silverstein, D. M. A. Smith, J. Nieplocha, V. Tipparaju,
    M. Krishnan, B. E. Van Kuiken, A. Vazquez-Mayagoitia, L. Jensen, M. Swart,
      Q. Wu, T. Van Voorhis, A. A. Auer, M. Nooijen, L. D. Crosby, E. Brown,
      G. Cisneros, G. I. Fann, H. Fruchtl, J. Garza, K. Hirao, R. A. Kendall,
      J. A. Nichols, K. Tsemekhman, K. Wolinski, J. Anchell, D. E. Bernholdt,
      P. Borowski, T. Clark, D. Clerc, H. Dachsel, M. J. O. Deegan, K. Dyall,
    D. Elwood, E. Glendening, M. Gutowski, A. C. Hess, J. Jaffe, B. G. Johnson,
     J. Ju, R. Kobayashi, R. Kutteh, Z. Lin, R. Littlefield, X. Long, B. Meng,
      T. Nakajima, S. Niu, L. Pollack, M. Rosing, K. Glaesemann, G. Sandrone,
      M. Stave, H. Taylor, G. Thomas, J. H. van Lenthe, A. T. Wong, Z. Zhang.

 Total times  cpu:        0.6s     wall:        0.6s
