 argument  1 = /home/list1234/source/nwchem-6.8.1-release/QA/tests/cnh5_m06-2x/cnh5_m06-2x.nw



============================== echo of input deck ==============================
echo
title "M06-2X/6-31+G*  NH2 + CH3 TS single point"

start cnh5

geometry
C       -1.199577    -.011126    -.000030
N        1.400715     .129862     .000015
H       -1.426660    -.512932     .933057
H       -1.419907    -.591382    -.888143
H       -1.520237    1.022806    -.045783
H         .188926     .126896     .001001
H        1.570338    -.887667    -.000053
end

basis
* library 6-31+G*
end

dft
xc  m06-2x
mult 3
grid fine
end

task dft
================================================================================


                                         
                                         


              Northwest Computational Chemistry Package (NWChem) 6.8
              ------------------------------------------------------


                    Environmental Molecular Sciences Laboratory
                       Pacific Northwest National Laboratory
                                Richland, WA 99352

                              Copyright (c) 1994-2018
                       Pacific Northwest National Laboratory
                            Battelle Memorial Institute

             NWChem is an open-source computational chemistry package
                        distributed under the terms of the
                      Educational Community License (ECL) 2.0
             A copy of the license is included with this distribution
                              in the LICENSE.TXT file

                                  ACKNOWLEDGMENT
                                  --------------

            This software and its documentation were developed at the
            EMSL at Pacific Northwest National Laboratory, a multiprogram
            national laboratory, operated for the U.S. Department of Energy
            by Battelle under Contract Number DE-AC05-76RL01830. Support
            for this work was provided by the Department of Energy Office
            of Biological and Environmental Research, Office of Basic
            Energy Sciences, and the Office of Advanced Scientific Computing.


           Job information
           ---------------

    hostname        = list1234-B360M-H
    program         = /home/list1234/source/nwchem-6.8.1-release/bin/LINUX64/nwchem
    date            = Sun Jun 30 07:59:10 2019

    compiled        = Sun_Jun_30_05:21:11_2019
    source          = /home/list1234/source/nwchem-6.8.1-release
    nwchem branch   = Development
    nwchem revision = N/A
    ga revision     = 5.6.5
    use scalapack   = T
    input           = /home/list1234/source/nwchem-6.8.1-release/QA/tests/cnh5_m06-2x/cnh5_m06-2x.nw
    prefix          = cnh5.
    data base       = ./cnh5.db
    status          = startup
    nproc           =        4
    time left       =     -1s



           Memory information
           ------------------

    heap     =   86247164 doubles =    658.0 Mbytes
    stack    =   86247169 doubles =    658.0 Mbytes
    global   =  172494336 doubles =   1316.0 Mbytes (distinct from heap & stack)
    total    =  344988669 doubles =   2632.1 Mbytes
    verify   = yes
    hardfail = no 


           Directory information
           ---------------------

  0 permanent = .
  0 scratch   = .




                                NWChem Input Module
                                -------------------


                     M06-2X/6-31+G*  NH2 + CH3 TS single point
                     -----------------------------------------

 Scaling coordinates for geometry "geometry" by  1.889725989
 (inverse scale =  0.529177249)

 C1  symmetry detected

          ------
          auto-z
          ------
  autoz: The atoms group into disjoint clusters
 cluster   1:    1    3    4    5
 cluster   2:    2    6    7
 Connecting clusters   1   2 via atoms    1    6 r = 1.40
  autoz: regenerating connections with new bonds
  Looking for out-of-plane bends
  no constraints, skipping    0.0000000000000000     
  no constraints, skipping    0.0000000000000000     


                             Geometry "geometry" -> ""
                             -------------------------

 Output coordinates in angstroms (scale by  1.889725989 to convert to a.u.)

  No.       Tag          Charge          X              Y              Z
 ---- ---------------- ---------- -------------- -------------- --------------
    1 C                    6.0000     0.01894486     1.19947916    -0.00002200
    2 N                    7.0000     0.09471245    -1.40352975     0.00000423
    3 H                    1.0000    -0.47700421     1.43906203     0.93307063
    4 H                    1.0000    -0.55561339     1.43429021    -0.88812877
    5 H                    1.0000     1.06058897     1.49412331    -0.04578127
    6 H                    1.0000     0.12212079    -0.19204712     0.00099846
    7 H                    1.0000    -0.92674845    -1.54759517    -0.00005661

      Atomic Mass 
      ----------- 

      C                 12.000000
      N                 14.003070
      H                  1.007825


 Effective nuclear repulsion energy (a.u.)      33.4595568057

            Nuclear Dipole moment (a.u.) 
            ----------------------------
        X                 Y               Z
 ---------------- ---------------- ----------------
     0.0000000000     0.0000000000     0.0000000000



                                Z-matrix (autoz)
                                -------- 

 Units are Angstrom for bonds and degrees for angles

      Type          Name      I     J     K     L     M      Value
      ----------- --------  ----- ----- ----- ----- ----- ----------
    1 Stretch                  1     6                       1.39535
    2 Stretch                  1     3                       1.08353
    3 Stretch                  1     4                       1.08351
    4 Stretch                  1     5                       1.08348
    5 Stretch                  2     6                       1.21179
    6 Stretch                  2     7                       1.03157
    7 Bend                     1     2     7                96.36069
    8 Bend                     2     1     3               103.55210
    9 Bend                     2     1     4               103.41833
   10 Bend                     2     1     5               104.11421
   11 Bend                     3     1     6               104.69799
   12 Bend                     3     1     4               114.53351
   13 Bend                     3     1     5               114.60018
   14 Bend                     4     1     6               104.82871
   15 Bend                     4     1     5               114.59805
   16 Bend                     5     1     6               101.54519
   17 Bend                     6     2     7                99.32399
   18 Torsion                  3     1     2     7          62.35729
   19 Torsion                  1     3     6     2        -171.28472
   20 Torsion                  4     1     2     7         -57.41867
   21 Torsion                  1     4     6     2         171.95379
   22 Torsion                  5     1     2     7        -177.50076
   23 Torsion                  1     5     6     2         179.30165
   24 Torsion                  1     6     7     2         179.86676


            XYZ format geometry
            -------------------
     7
 geometry
 C                     0.01894486     1.19947916    -0.00002200
 N                     0.09471245    -1.40352975     0.00000423
 H                    -0.47700421     1.43906203     0.93307063
 H                    -0.55561339     1.43429021    -0.88812877
 H                     1.06058897     1.49412331    -0.04578127
 H                     0.12212079    -0.19204712     0.00099846
 H                    -0.92674845    -1.54759517    -0.00005661

 ==============================================================================
                                internuclear distances
 ------------------------------------------------------------------------------
       center one      |      center two      | atomic units |  angstroms
 ------------------------------------------------------------------------------
    3 H                |   1 C                |     2.04757  |     1.08353
    4 H                |   1 C                |     2.04753  |     1.08351
    5 H                |   1 C                |     2.04748  |     1.08348
    7 H                |   2 N                |     1.94939  |     1.03157
 ------------------------------------------------------------------------------
                         number of included internuclear distances:          4
 ==============================================================================



 ==============================================================================
                                 internuclear angles
 ------------------------------------------------------------------------------
        center 1       |       center 2       |       center 3       |  degrees
 ------------------------------------------------------------------------------
    3 H                |   1 C                |   4 H                |   114.53
    3 H                |   1 C                |   5 H                |   114.60
    4 H                |   1 C                |   5 H                |   114.60
 ------------------------------------------------------------------------------
                            number of included internuclear angles:          3
 ==============================================================================





 Summary of "ao basis" -> "" (cartesian)
 ------------------------------------------------------------------------------
       Tag                 Description            Shells   Functions and Types
 ---------------- ------------------------------  ------  ---------------------
 *                          6-31+G*                   on all atoms 



                                 NWChem DFT Module
                                 -----------------


                     M06-2X/6-31+G*  NH2 + CH3 TS single point


                      Basis "ao basis" -> "ao basis" (cartesian)
                      -----
  C (Carbon)
  ----------
            Exponent  Coefficients 
       -------------- ---------------------------------------------------------
  1 S  3.04752490E+03  0.001835
  1 S  4.57369510E+02  0.014037
  1 S  1.03948690E+02  0.068843
  1 S  2.92101550E+01  0.232184
  1 S  9.28666300E+00  0.467941
  1 S  3.16392700E+00  0.362312

  2 S  7.86827240E+00 -0.119332
  2 S  1.88128850E+00 -0.160854
  2 S  5.44249300E-01  1.143456

  3 P  7.86827240E+00  0.068999
  3 P  1.88128850E+00  0.316424
  3 P  5.44249300E-01  0.744308

  4 S  1.68714400E-01  1.000000

  5 P  1.68714400E-01  1.000000

  6 S  4.38000000E-02  1.000000

  7 P  4.38000000E-02  1.000000

  8 D  8.00000000E-01  1.000000

  N (Nitrogen)
  ------------
            Exponent  Coefficients 
       -------------- ---------------------------------------------------------
  1 S  4.17351100E+03  0.001835
  1 S  6.27457900E+02  0.013995
  1 S  1.42902100E+02  0.068587
  1 S  4.02343300E+01  0.232241
  1 S  1.28202100E+01  0.469070
  1 S  4.39043700E+00  0.360455

  2 S  1.16263580E+01 -0.114961
  2 S  2.71628000E+00 -0.169118
  2 S  7.72218000E-01  1.145852

  3 P  1.16263580E+01  0.067580
  3 P  2.71628000E+00  0.323907
  3 P  7.72218000E-01  0.740895

  4 S  2.12031300E-01  1.000000

  5 P  2.12031300E-01  1.000000

  6 S  6.39000000E-02  1.000000

  7 P  6.39000000E-02  1.000000

  8 D  8.00000000E-01  1.000000

  H (Hydrogen)
  ------------
            Exponent  Coefficients 
       -------------- ---------------------------------------------------------
  1 S  1.87311370E+01  0.033495
  1 S  2.82539370E+00  0.234727
  1 S  6.40121700E-01  0.813757

  2 S  1.61277800E-01  1.000000



 Summary of "ao basis" -> "ao basis" (cartesian)
 ------------------------------------------------------------------------------
       Tag                 Description            Shells   Functions and Types
 ---------------- ------------------------------  ------  ---------------------
 C                          6-31+G*                  8       19   4s3p1d
 N                          6-31+G*                  8       19   4s3p1d
 H                          6-31+G*                  2        2   2s




 Summary of "ao basis" -> "ao basis" (cartesian)
 ------------------------------------------------------------------------------
       Tag                 Description            Shells   Functions and Types
 ---------------- ------------------------------  ------  ---------------------
 C                          6-31+G*                  8       19   4s3p1d
 N                          6-31+G*                  8       19   4s3p1d
 H                          6-31+G*                  2        2   2s


  Caching 1-el integrals 

            General Information
            -------------------
          SCF calculation type: DFT
          Wavefunction type:  spin polarized.
          No. of atoms     :     7
          No. of electrons :    18
           Alpha electrons :    10
            Beta electrons :     8
          Charge           :     0
          Spin multiplicity:     3
          Use of symmetry is: off; symmetry adaption is: off
          Maximum number of iterations:  30
          AO basis - number of functions:    48
                     number of shells:    26
          Convergence on energy requested:  1.00D-06
          Convergence on density requested:  1.00D-05
          Convergence on gradient requested:  5.00D-04

              XC Information
              --------------
                       M06-2X Method XC Functional
                     Hartree-Fock (Exact) Exchange  0.540          
                        M06-2X Exchange Functional  1.000          
                      M06-2X Correlation Potential  1.000          

             Grid Information
             ----------------
          Grid used for XC integration:  fine      
          Radial quadrature: Mura-Knowles        
          Angular quadrature: Lebedev. 
          Tag              B.-S. Rad. Rad. Pts. Rad. Cut. Ang. Pts.
          ---              ---------- --------- --------- ---------
          C                   0.70       70          11.0       590
          N                   0.65       70          12.0       590
          H                   0.35       60          11.0       590
          Grid pruning is: on 
          Number of quadrature shells:   440
          Spatial weights used:  Erf1

          Convergence Information
          -----------------------
          Convergence aids based upon iterative change in 
          total energy or number of iterations. 
          Levelshifting, if invoked, occurs when the 
          HOMO/LUMO gap drops below (HL_TOL):  1.00D-02
          DIIS, if invoked, will attempt to extrapolate 
          using up to (NFOCK): 10 stored Fock matrices.

                    Damping( 0%)  Levelshifting(0.5)       DIIS
                  --------------- ------------------- ---------------
          dE  on:    start            ASAP                start   
          dE off:    2 iters         30 iters            30 iters 


      Screening Tolerance Information
      -------------------------------
          Density screening/tol_rho:  1.00D-10
          AO Gaussian exp screening on grid/accAOfunc:  14
          CD Gaussian exp screening on grid/accCDfunc:  20
          XC Gaussian exp screening on grid/accXCfunc:  20
          Schwarz screening/accCoul:  1.00D-08


      Superposition of Atomic Density Guess
      -------------------------------------

 Sum of atomic energies:         -94.45029640

      Non-variational initial energy
      ------------------------------

 Total energy =     -94.966595
 1-e energy   =    -192.286725
 2-e energy   =      63.860573
 HOMO         =      -0.268408
 LUMO         =      -0.186150

   Time after variat. SCF:      0.1
   Time prior to 1st pass:      0.1

 Grid_pts file          = ./cnh5.gridpts.0
 Record size in doubles =  12289        No. of grid_pts per rec  =   3070
 Max. records in memory =     25        Max. recs in file   = 253312716


           Memory utilization after 1st SCF pass: 
           Heap Space remaining (MW):       51.51            51513828
          Stack Space remaining (MW):       86.25            86246524

   convergence    iter        energy       DeltaE   RMS-Dens  Diis-err    time
 ---------------- ----- ----------------- --------- --------- ---------  ------
 d= 0,ls=0.0,diis     1    -95.6156254739 -1.29D+02  4.37D-03  4.95D-02     0.4
                                                     4.01D-03  4.02D-02
 d= 0,ls=0.0,diis     2    -95.6400768364 -2.45D-02  7.74D-04  1.84D-03     0.7
                                                     1.25D-03  4.32D-03
 d= 0,ls=0.0,diis     3    -95.6414070731 -1.33D-03  7.17D-04  1.44D-03     1.0
                                                     3.66D-04  2.45D-04
 d= 0,ls=0.0,diis     4    -95.6419160195 -5.09D-04  1.72D-04  7.00D-05     1.4
                                                     3.15D-04  2.40D-04
 d= 0,ls=0.0,diis     5    -95.6420361538 -1.20D-04  1.42D-04  3.15D-05     1.7
                                                     1.02D-04  2.04D-05
  Resetting Diis
 d= 0,ls=0.0,diis     6    -95.6420567791 -2.06D-05  4.49D-05  3.65D-06     2.0
                                                     3.60D-05  2.50D-06
 d= 0,ls=0.0,diis     7    -95.6420596521 -2.87D-06  2.31D-05  2.96D-07     2.3
                                                     1.06D-05  1.22D-07
 d= 0,ls=0.0,diis     8    -95.6420599061 -2.54D-07  3.38D-06  4.46D-08     2.6
                                                     7.84D-06  1.40D-07


         Total DFT energy =      -95.642059906110
      One electron energy =     -194.073960998705
           Coulomb energy =       78.956272192752
    Exchange-Corr. energy =      -13.983927905849
 Nuclear repulsion energy =       33.459556805692

 Numeric. integr. density =       18.000000174534

     Total iterative time =      2.5s



                    DFT Final Alpha Molecular Orbital Analysis
                    ------------------------------------------

 Vector    1  Occ=1.000000D+00  E=-1.480951D+01
              MO Center=  9.5D-02, -1.4D+00,  4.3D-06, r^2= 2.0D-02
   Bfn.  Coefficient  Atom+Function         Bfn.  Coefficient  Atom+Function  
  ----- ------------  ---------------      ----- ------------  ---------------
    20      0.993803  2 N  s                 21      0.029715  2 N  s          

 Vector    2  Occ=1.000000D+00  E=-1.055797D+01
              MO Center=  1.9D-02,  1.2D+00, -2.2D-05, r^2= 2.8D-02
   Bfn.  Coefficient  Atom+Function         Bfn.  Coefficient  Atom+Function  
  ----- ------------  ---------------      ----- ------------  ---------------
     1      0.994075  1 C  s                  2      0.041946  1 C  s          

 Vector    3  Occ=1.000000D+00  E=-9.613457D-01
              MO Center= -1.2D-01, -1.2D+00,  1.0D-04, r^2= 7.5D-01
   Bfn.  Coefficient  Atom+Function         Bfn.  Coefficient  Atom+Function  
  ----- ------------  ---------------      ----- ------------  ---------------
    25      0.511102  2 N  s                 21      0.446020  2 N  s          
    20     -0.205009  2 N  s                 47      0.155938  7 H  s          
    22     -0.111419  2 N  px                45      0.109717  6 H  s          
     6      0.071568  1 C  s                 26     -0.063198  2 N  px         
    23      0.059395  2 N  py                27      0.053970  2 N  py         

 Vector    4  Occ=1.000000D+00  E=-7.950981D-01
              MO Center=  6.0D-03,  1.1D+00, -7.2D-05, r^2= 1.3D+00
   Bfn.  Coefficient  Atom+Function         Bfn.  Coefficient  Atom+Function  
  ----- ------------  ---------------      ----- ------------  ---------------
     6      0.398408  1 C  s                  2      0.381488  1 C  s          
     1     -0.196716  1 C  s                 39      0.138930  3 H  s          
    41      0.138939  4 H  s                 43      0.138598  5 H  s          
    25     -0.120086  2 N  s                 21     -0.085435  2 N  s          
    45      0.067368  6 H  s                 46      0.046370  6 H  s          

 Vector    5  Occ=1.000000D+00  E=-5.444714D-01
              MO Center= -6.1D-02, -7.2D-01, -3.0D-05, r^2= 1.9D+00
   Bfn.  Coefficient  Atom+Function         Bfn.  Coefficient  Atom+Function  
  ----- ------------  ---------------      ----- ------------  ---------------
    23      0.367952  2 N  py                22      0.278845  2 N  px         
    45      0.222964  6 H  s                 27      0.198284  2 N  py         
    47     -0.194781  7 H  s                  4     -0.187974  1 C  py         
    46      0.159028  6 H  s                 26      0.136400  2 N  px         
    48     -0.125738  7 H  s                  8     -0.090770  1 C  py         

 Vector    6  Occ=1.000000D+00  E=-4.905127D-01
              MO Center= -2.2D-01,  1.3D+00,  1.1D-02, r^2= 1.3D+00
   Bfn.  Coefficient  Atom+Function         Bfn.  Coefficient  Atom+Function  
  ----- ------------  ---------------      ----- ------------  ---------------
     5      0.455662  1 C  pz                39      0.238000  3 H  s          
    41     -0.237792  4 H  s                  9      0.221407  1 C  pz         
    40      0.162473  3 H  s                 42     -0.162626  4 H  s          
    24      0.052633  2 N  pz                16     -0.038595  1 C  dxz        
    28      0.038346  2 N  pz         

 Vector    7  Occ=1.000000D+00  E=-4.893098D-01
              MO Center=  2.8D-01,  1.3D+00, -1.0D-02, r^2= 1.3D+00
   Bfn.  Coefficient  Atom+Function         Bfn.  Coefficient  Atom+Function  
  ----- ------------  ---------------      ----- ------------  ---------------
     3      0.450788  1 C  px                43      0.280249  5 H  s          
     7      0.225969  1 C  px                44      0.181424  5 H  s          
    39     -0.128288  3 H  s                 41     -0.126968  4 H  s          
    40     -0.084919  3 H  s                 42     -0.084284  4 H  s          
    23     -0.069762  2 N  py                 4      0.053044  1 C  py         

 Vector    8  Occ=1.000000D+00  E=-4.416059D-01
              MO Center=  1.3D-01, -1.2D+00, -7.3D-04, r^2= 1.6D+00
   Bfn.  Coefficient  Atom+Function         Bfn.  Coefficient  Atom+Function  
  ----- ------------  ---------------      ----- ------------  ---------------
    22      0.443720  2 N  px                25      0.353825  2 N  s          
    26      0.250330  2 N  px                23     -0.238215  2 N  py         
    21      0.198244  2 N  s                 47     -0.179555  7 H  s          
    48     -0.165274  7 H  s                  4      0.154436  1 C  py         
    27     -0.151011  2 N  py                45     -0.100202  6 H  s          

 Vector    9  Occ=1.000000D+00  E=-3.931100D-01
              MO Center=  7.5D-02, -1.4D+00,  3.8D-04, r^2= 9.0D-01
   Bfn.  Coefficient  Atom+Function         Bfn.  Coefficient  Atom+Function  
  ----- ------------  ---------------      ----- ------------  ---------------
    24      0.653017  2 N  pz                28      0.449713  2 N  pz         
    32      0.065730  2 N  pz                 5     -0.053773  1 C  pz         
    35     -0.046537  2 N  dxz               40     -0.037510  3 H  s          
    42      0.035380  4 H  s                 39     -0.031533  3 H  s          
    41      0.030071  4 H  s          

 Vector   10  Occ=1.000000D+00  E=-2.942052D-01
              MO Center=  4.4D-02,  2.1D-01,  1.1D-04, r^2= 2.6D+00
   Bfn.  Coefficient  Atom+Function         Bfn.  Coefficient  Atom+Function  
  ----- ------------  ---------------      ----- ------------  ---------------
     4      0.482612  1 C  py                23      0.428432  2 N  py         
     8      0.381057  1 C  py                27      0.340289  2 N  py         
     6     -0.213189  1 C  s                 25      0.141492  2 N  s          
    46     -0.091911  6 H  s                 12      0.083118  1 C  py         
     2     -0.079658  1 C  s                 44      0.062451  5 H  s          

 Vector   11  Occ=0.000000D+00  E= 3.246641D-02
              MO Center= -7.8D-01,  5.0D-01,  4.6D-03, r^2= 8.0D+00
   Bfn.  Coefficient  Atom+Function         Bfn.  Coefficient  Atom+Function  
  ----- ------------  ---------------      ----- ------------  ---------------
    10      2.031162  1 C  s                 12     -0.506201  1 C  py         
    29     -0.481901  2 N  s                 31     -0.467601  2 N  py         
    46     -0.393802  6 H  s                 42     -0.283602  4 H  s          
    40     -0.281790  3 H  s                  6     -0.235875  1 C  s          
    11     -0.226564  1 C  px                44     -0.163336  5 H  s          

 Vector   12  Occ=0.000000D+00  E= 6.263911D-02
              MO Center=  6.2D-01,  1.6D+00,  1.7D-03, r^2= 9.0D+00
   Bfn.  Coefficient  Atom+Function         Bfn.  Coefficient  Atom+Function  
  ----- ------------  ---------------      ----- ------------  ---------------
    11      0.994787  1 C  px                12      0.638593  1 C  py         
    44     -0.358205  5 H  s                 10      0.333938  1 C  s          
    29      0.199558  2 N  s                  8     -0.170141  1 C  py         
    31      0.140314  2 N  py                26     -0.127055  2 N  px         
     3     -0.117580  1 C  px                 7     -0.100683  1 C  px         

 Vector   13  Occ=0.000000D+00  E= 6.700676D-02
              MO Center=  1.4D-01,  1.3D+00, -1.1D-02, r^2= 9.5D+00
   Bfn.  Coefficient  Atom+Function         Bfn.  Coefficient  Atom+Function  
  ----- ------------  ---------------      ----- ------------  ---------------
    13      1.256397  1 C  pz                40     -0.264736  3 H  s          
    42      0.250134  4 H  s                  9     -0.166875  1 C  pz         
     5     -0.149562  1 C  pz                28     -0.079225  2 N  pz         
    24     -0.076461  2 N  pz                32     -0.069902  2 N  pz         
    39     -0.026416  3 H  s                 41      0.025022  4 H  s          

 Vector   14  Occ=0.000000D+00  E= 7.134190D-02
              MO Center= -1.8D-01,  1.7D+00,  4.4D-03, r^2= 1.1D+01
   Bfn.  Coefficient  Atom+Function         Bfn.  Coefficient  Atom+Function  
  ----- ------------  ---------------      ----- ------------  ---------------
    12      1.428497  1 C  py                29      0.823508  2 N  s          
    11     -0.703926  1 C  px                31      0.621650  2 N  py         
    10     -0.604755  1 C  s                  8     -0.187501  1 C  py         
    27     -0.158188  2 N  py                48     -0.134715  7 H  s          
    44      0.131365  5 H  s                 30      0.118498  2 N  px         

 Vector   15  Occ=0.000000D+00  E= 1.161411D-01
              MO Center= -4.2D-01, -1.0D+00, -1.8D-06, r^2= 9.4D+00
   Bfn.  Coefficient  Atom+Function         Bfn.  Coefficient  Atom+Function  
  ----- ------------  ---------------      ----- ------------  ---------------
    29      1.741393  2 N  s                 10     -0.991478  1 C  s          
    12      0.974224  1 C  py                30     -0.936111  2 N  px         
    25     -0.601149  2 N  s                 11      0.421290  1 C  px         
     6      0.329800  1 C  s                 46      0.298676  6 H  s          
    48     -0.258642  7 H  s                 31     -0.216823  2 N  py         

 Vector   16  Occ=0.000000D+00  E= 1.480694D-01
              MO Center=  6.8D-01, -1.8D+00, -1.1D-03, r^2= 7.3D+00
   Bfn.  Coefficient  Atom+Function         Bfn.  Coefficient  Atom+Function  
  ----- ------------  ---------------      ----- ------------  ---------------
    30      1.122500  2 N  px                31     -1.062062  2 N  py         
    46      0.522109  6 H  s                 11     -0.504472  1 C  px         
    10      0.492261  1 C  s                 25     -0.380937  2 N  s          
    29     -0.311820  2 N  s                 26     -0.307760  2 N  px         
     6      0.211292  1 C  s                 48      0.211193  7 H  s          

 Vector   17  Occ=0.000000D+00  E= 1.551912D-01
              MO Center=  7.9D-02, -1.3D+00,  1.5D-03, r^2= 8.1D+00
   Bfn.  Coefficient  Atom+Function         Bfn.  Coefficient  Atom+Function  
  ----- ------------  ---------------      ----- ------------  ---------------
    32      1.378789  2 N  pz                13     -0.597605  1 C  pz         
    28     -0.446690  2 N  pz                24     -0.216375  2 N  pz         
     9      0.148486  1 C  pz                40     -0.093834  3 H  s          
    42      0.085354  4 H  s                  5      0.057816  1 C  pz         

 Vector   18  Occ=0.000000D+00  E= 2.003331D-01
              MO Center=  1.3D-01, -1.0D+00,  3.8D-03, r^2= 7.4D+00
   Bfn.  Coefficient  Atom+Function         Bfn.  Coefficient  Atom+Function  
  ----- ------------  ---------------      ----- ------------  ---------------
    29      2.552176  2 N  s                 10     -1.896100  1 C  s          
    31      1.770401  2 N  py                12      1.247107  1 C  py         
    25     -1.171861  2 N  s                 48      1.031669  7 H  s          
    46     -0.625364  6 H  s                 30      0.618050  2 N  px         
     6      0.497929  1 C  s                 26      0.258348  2 N  px         

 Vector   19  Occ=0.000000D+00  E= 2.272422D-01
              MO Center=  2.8D-01,  1.3D+00,  2.5D-02, r^2= 3.7D+00
   Bfn.  Coefficient  Atom+Function         Bfn.  Coefficient  Atom+Function  
  ----- ------------  ---------------      ----- ------------  ---------------
    44      1.955560  5 H  s                  7     -1.520108  1 C  px         
    40     -1.158107  3 H  s                 42     -0.945020  4 H  s          
    29     -0.881447  2 N  s                 10      0.495078  1 C  s          
    11     -0.447647  1 C  px                48      0.443391  7 H  s          
    31     -0.414922  2 N  py                30      0.407652  2 N  px         

 Vector   20  Occ=0.000000D+00  E= 2.285347D-01
              MO Center= -2.5D-01,  1.3D+00, -3.0D-02, r^2= 3.6D+00
   Bfn.  Coefficient  Atom+Function         Bfn.  Coefficient  Atom+Function  
  ----- ------------  ---------------      ----- ------------  ---------------
    42     -1.838140  4 H  s                 40      1.686351  3 H  s          
     9     -1.518208  1 C  pz                13     -0.495244  1 C  pz         
    32      0.343087  2 N  pz                 5     -0.298630  1 C  pz         
     7     -0.164755  1 C  px                41     -0.134765  4 H  s          
    39      0.122909  3 H  s                 44      0.122599  5 H  s          

 Vector   21  Occ=0.000000D+00  E= 2.786021D-01
              MO Center= -5.3D-01, -7.9D-01,  1.3D-02, r^2= 5.2D+00
   Bfn.  Coefficient  Atom+Function         Bfn.  Coefficient  Atom+Function  
  ----- ------------  ---------------      ----- ------------  ---------------
    29      3.071550  2 N  s                 48     -2.551323  7 H  s          
    31      1.141556  2 N  py                 6      1.061879  1 C  s          
    46     -0.861011  6 H  s                 26     -0.842643  2 N  px         
    40     -0.772811  3 H  s                 30     -0.733577  2 N  px         
    10     -0.710437  1 C  s                 42     -0.677702  4 H  s          

 Vector   22  Occ=0.000000D+00  E= 2.892749D-01
              MO Center=  1.3D-01,  8.6D-01, -1.4D-02, r^2= 6.5D+00
   Bfn.  Coefficient  Atom+Function         Bfn.  Coefficient  Atom+Function  
  ----- ------------  ---------------      ----- ------------  ---------------
    29     -3.491534  2 N  s                 10      3.293485  1 C  s          
     6      2.097891  1 C  s                 44     -1.765565  5 H  s          
    42     -1.586927  4 H  s                 40     -1.556401  3 H  s          
    12     -1.336707  1 C  py                31     -1.153943  2 N  py         
    48      0.999380  7 H  s                 46      0.753422  6 H  s          

 Vector   23  Occ=0.000000D+00  E= 3.559856D-01
              MO Center=  1.4D-01,  2.6D-01,  1.7D-03, r^2= 3.6D+00
   Bfn.  Coefficient  Atom+Function         Bfn.  Coefficient  Atom+Function  
  ----- ------------  ---------------      ----- ------------  ---------------
    46      3.447480  6 H  s                  6     -1.877656  1 C  s          
     8      1.139912  1 C  py                25     -1.114875  2 N  s          
    27     -0.990855  2 N  py                29     -0.926393  2 N  s          
    44      0.625269  5 H  s                 40      0.469413  3 H  s          
    42      0.456305  4 H  s                 10     -0.418347  1 C  s          

 Vector   24  Occ=0.000000D+00  E= 6.549329D-01
              MO Center= -6.9D-02,  1.0D+00,  1.0D-02, r^2= 3.2D+00
   Bfn.  Coefficient  Atom+Function         Bfn.  Coefficient  Atom+Function  
  ----- ------------  ---------------      ----- ------------  ---------------
     7      1.549705  1 C  px                 3     -0.900688  1 C  px         
    11     -0.526151  1 C  px                 8      0.343139  1 C  py         
    43     -0.331181  5 H  s                 46      0.249740  6 H  s          
    26      0.234597  2 N  px                 4     -0.198580  1 C  py         
    25     -0.192324  2 N  s                 48     -0.175878  7 H  s          

 Vector   25  Occ=0.000000D+00  E= 6.600285D-01
              MO Center=  1.3D-01,  1.1D+00, -1.1D-02, r^2= 3.1D+00
   Bfn.  Coefficient  Atom+Function         Bfn.  Coefficient  Atom+Function  
  ----- ------------  ---------------      ----- ------------  ---------------
     9      1.613854  1 C  pz                 5     -0.922507  1 C  pz         
    13     -0.541403  1 C  pz                39     -0.294195  3 H  s          
    41      0.283386  4 H  s                 28      0.212288  2 N  pz         
    24     -0.177624  2 N  pz                16      0.125853  1 C  dxz        
    32     -0.081985  2 N  pz                40     -0.072430  3 H  s          

 Vector   26  Occ=0.000000D+00  E= 6.938382D-01
              MO Center= -6.1D-02,  1.7D+00, -1.9D-04, r^2= 2.4D+00
   Bfn.  Coefficient  Atom+Function         Bfn.  Coefficient  Atom+Function  
  ----- ------------  ---------------      ----- ------------  ---------------
     8      1.846726  1 C  py                46      1.329662  6 H  s          
     4     -1.013235  1 C  py                12     -0.564519  1 C  py         
    25     -0.543344  2 N  s                  7     -0.378483  1 C  px         
    27     -0.308387  2 N  py                10     -0.195324  1 C  s          
     3      0.193357  1 C  px                41     -0.193715  4 H  s          

 Vector   27  Occ=0.000000D+00  E= 9.027275D-01
              MO Center=  9.8D-02, -1.3D+00,  9.8D-04, r^2= 2.6D+00
   Bfn.  Coefficient  Atom+Function         Bfn.  Coefficient  Atom+Function  
  ----- ------------  ---------------      ----- ------------  ---------------
    28      1.461321  2 N  pz                24     -0.978935  2 N  pz         
    32     -0.743536  2 N  pz                 9     -0.455432  1 C  pz         
     5      0.234554  1 C  pz                13      0.220854  1 C  pz         
    40      0.194887  3 H  s                 42     -0.184482  4 H  s          
    16     -0.027763  1 C  dxz        

 Vector   28  Occ=0.000000D+00  E= 9.252743D-01
              MO Center= -1.7D-02, -1.4D+00, -6.7D-04, r^2= 2.6D+00
   Bfn.  Coefficient  Atom+Function         Bfn.  Coefficient  Atom+Function  
  ----- ------------  ---------------      ----- ------------  ---------------
    26      1.509535  2 N  px                27      0.883244  2 N  py         
    25     -0.761481  2 N  s                 22     -0.749502  2 N  px         
    48      0.524708  7 H  s                  7     -0.491615  1 C  px         
    23     -0.479244  2 N  py                30     -0.437328  2 N  px         
    31     -0.407282  2 N  py                44      0.354121  5 H  s          

 Vector   29  Occ=0.000000D+00  E= 9.461254D-01
              MO Center=  2.2D-01, -1.7D+00,  6.8D-06, r^2= 2.4D+00
   Bfn.  Coefficient  Atom+Function         Bfn.  Coefficient  Atom+Function  
  ----- ------------  ---------------      ----- ------------  ---------------
    27      1.496037  2 N  py                46     -1.247681  6 H  s          
     6      0.892025  1 C  s                 26     -0.889580  2 N  px         
    29      0.858488  2 N  s                 48     -0.850559  7 H  s          
    23     -0.740820  2 N  py                22      0.594865  2 N  px         
    44     -0.440564  5 H  s                 31     -0.397441  2 N  py         

 Vector   30  Occ=0.000000D+00  E= 9.924364D-01
              MO Center= -2.1D-01, -3.9D-01,  4.1D-02, r^2= 3.6D+00
   Bfn.  Coefficient  Atom+Function         Bfn.  Coefficient  Atom+Function  
  ----- ------------  ---------------      ----- ------------  ---------------
    46      2.157659  6 H  s                 48     -1.253080  7 H  s          
     6     -0.852445  1 C  s                 45     -0.723883  6 H  s          
    47      0.694495  7 H  s                 40      0.690558  3 H  s          
    27     -0.561172  2 N  py                30     -0.544911  2 N  px         
    42      0.525412  4 H  s                 39     -0.484528  3 H  s          

 Vector   31  Occ=0.000000D+00  E= 1.004056D+00
              MO Center= -3.5D-01,  1.4D+00, -5.0D-02, r^2= 2.3D+00
   Bfn.  Coefficient  Atom+Function         Bfn.  Coefficient  Atom+Function  
  ----- ------------  ---------------      ----- ------------  ---------------
    42     -1.637207  4 H  s                 40      1.491056  3 H  s          
     9     -0.957721  1 C  pz                41      0.834855  4 H  s          
    39     -0.749837  3 H  s                  5      0.672866  1 C  pz         
    16      0.426806  1 C  dxz               13     -0.417374  1 C  pz         
    18     -0.193811  1 C  dyz               32      0.168089  2 N  pz         

 Vector   32  Occ=0.000000D+00  E= 1.012304D+00
              MO Center=  4.7D-01,  9.5D-01, -6.1D-04, r^2= 3.0D+00
   Bfn.  Coefficient  Atom+Function         Bfn.  Coefficient  Atom+Function  
  ----- ------------  ---------------      ----- ------------  ---------------
    44      1.737905  5 H  s                 46      1.160902  6 H  s          
    43     -0.954210  5 H  s                  7     -0.832406  1 C  px         
    40     -0.722109  3 H  s                 48     -0.642126  7 H  s          
     3      0.569910  1 C  px                42     -0.567855  4 H  s          
    45     -0.491128  6 H  s                 26     -0.415239  2 N  px         

 Vector   33  Occ=0.000000D+00  E= 1.066196D+00
              MO Center= -3.9D-01, -6.7D-01,  1.4D-02, r^2= 3.4D+00
   Bfn.  Coefficient  Atom+Function         Bfn.  Coefficient  Atom+Function  
  ----- ------------  ---------------      ----- ------------  ---------------
    48      1.903588  7 H  s                 25     -1.726700  2 N  s          
    46      1.342556  6 H  s                 47     -0.816548  7 H  s          
    29     -0.786931  2 N  s                 21      0.737648  2 N  s          
    45     -0.649148  6 H  s                 40      0.615454  3 H  s          
    30      0.579771  2 N  px                42      0.549294  4 H  s          

 Vector   34  Occ=0.000000D+00  E= 1.137516D+00
              MO Center=  7.4D-02,  1.1D+00, -3.3D-03, r^2= 3.3D+00
   Bfn.  Coefficient  Atom+Function         Bfn.  Coefficient  Atom+Function  
  ----- ------------  ---------------      ----- ------------  ---------------
     6      2.770125  1 C  s                 46      2.100925  6 H  s          
    29     -1.813099  2 N  s                 44     -1.691182  5 H  s          
    10      1.644335  1 C  s                 42     -1.619585  4 H  s          
    40     -1.610582  3 H  s                  2     -1.236129  1 C  s          
     8      0.794115  1 C  py                31     -0.724767  2 N  py         

 Vector   35  Occ=0.000000D+00  E= 1.214468D+00
              MO Center=  1.0D-02, -1.8D-01,  9.9D-05, r^2= 3.2D+00
   Bfn.  Coefficient  Atom+Function         Bfn.  Coefficient  Atom+Function  
  ----- ------------  ---------------      ----- ------------  ---------------
     6      3.393724  1 C  s                 29      2.279242  2 N  s          
    46     -2.219292  6 H  s                 25     -1.383342  2 N  s          
     2     -1.328141  1 C  s                 10     -1.022234  1 C  s          
    31      0.925400  2 N  py                21      0.893379  2 N  s          
     8     -0.722170  1 C  py                12      0.661383  1 C  py         

 Vector   36  Occ=0.000000D+00  E= 1.421596D+00
              MO Center=  2.2D-01, -1.4D-01,  2.7D-03, r^2= 3.3D+00
   Bfn.  Coefficient  Atom+Function         Bfn.  Coefficient  Atom+Function  
  ----- ------------  ---------------      ----- ------------  ---------------
     6      5.231094  1 C  s                 46     -5.100365  6 H  s          
    25      3.915910  2 N  s                 27      1.592729  2 N  py         
     2     -1.576140  1 C  s                  8     -1.440179  1 C  py         
    21     -1.193324  2 N  s                 29     -0.761662  2 N  s          
    44     -0.736040  5 H  s                 10      0.671627  1 C  s          

 Vector   37  Occ=0.000000D+00  E= 1.678252D+00
              MO Center=  2.1D-02,  1.1D+00,  5.9D-05, r^2= 8.7D-01
   Bfn.  Coefficient  Atom+Function         Bfn.  Coefficient  Atom+Function  
  ----- ------------  ---------------      ----- ------------  ---------------
    18      1.541725  1 C  dyz               16      0.711014  1 C  dxz        
    37     -0.320439  2 N  dyz               35     -0.064025  2 N  dxz        
    19     -0.053387  1 C  dzz               14      0.052209  1 C  dxx        
    32      0.034828  2 N  pz         

 Vector   38  Occ=0.000000D+00  E= 1.685750D+00
              MO Center=  2.3D-02,  1.1D+00, -1.4D-04, r^2= 8.9D-01
   Bfn.  Coefficient  Atom+Function         Bfn.  Coefficient  Atom+Function  
  ----- ------------  ---------------      ----- ------------  ---------------
    15      1.492061  1 C  dxy               46      0.854281  6 H  s          
     6     -0.761922  1 C  s                 25     -0.492069  2 N  s          
    14     -0.428673  1 C  dxx               19      0.373454  1 C  dzz        
     8      0.253273  1 C  py                 2      0.244422  1 C  s          
    27     -0.214907  2 N  py                38     -0.144641  2 N  dzz        

 Vector   39  Occ=0.000000D+00  E= 1.713426D+00
              MO Center=  1.1D-01, -1.4D+00, -1.4D-05, r^2= 7.2D-01
   Bfn.  Coefficient  Atom+Function         Bfn.  Coefficient  Atom+Function  
  ----- ------------  ---------------      ----- ------------  ---------------
    35      1.556896  2 N  dxz               37      0.731345  2 N  dyz        
    18      0.189677  1 C  dyz                9     -0.097984  1 C  pz         
    40      0.090946  3 H  s                 42     -0.088616  4 H  s          
    16      0.059558  1 C  dxz                5      0.038654  1 C  pz         
    13     -0.027117  1 C  pz         

 Vector   40  Occ=0.000000D+00  E= 1.722616D+00
              MO Center=  1.1D-01, -1.4D+00,  1.7D-04, r^2= 8.0D-01
   Bfn.  Coefficient  Atom+Function         Bfn.  Coefficient  Atom+Function  
  ----- ------------  ---------------      ----- ------------  ---------------
    34      1.618410  2 N  dxy                6      0.686147  1 C  s          
    46     -0.647937  6 H  s                 25      0.397793  2 N  s          
    38      0.301483  2 N  dzz               33     -0.252851  2 N  dxx        
    27      0.219366  2 N  py                 2     -0.216729  1 C  s          
     8     -0.212788  1 C  py                42     -0.165986  4 H  s          

 Vector   41  Occ=0.000000D+00  E= 1.731615D+00
              MO Center=  1.0D-01, -1.3D+00, -3.6D-04, r^2= 8.2D-01
   Bfn.  Coefficient  Atom+Function         Bfn.  Coefficient  Atom+Function  
  ----- ------------  ---------------      ----- ------------  ---------------
    37      1.534856  2 N  dyz               35     -0.754345  2 N  dxz        
    18      0.271893  1 C  dyz                9     -0.143783  1 C  pz         
    40      0.117719  3 H  s                 42     -0.110883  4 H  s          
     5      0.064178  1 C  pz                32      0.049385  2 N  pz         
    13     -0.043019  1 C  pz                16      0.039179  1 C  dxz        

 Vector   42  Occ=0.000000D+00  E= 1.910893D+00
              MO Center=  5.4D-02,  2.0D-01,  7.5D-05, r^2= 2.4D+00
   Bfn.  Coefficient  Atom+Function         Bfn.  Coefficient  Atom+Function  
  ----- ------------  ---------------      ----- ------------  ---------------
    46     -0.957042  6 H  s                  6      0.925317  1 C  s          
    25      0.886997  2 N  s                 17     -0.812596  1 C  dyy        
    36      0.607545  2 N  dyy               27      0.603720  2 N  py         
    38     -0.508084  2 N  dzz               21     -0.405298  2 N  s          
    43     -0.371196  5 H  s                 39     -0.366291  3 H  s          

 Vector   43  Occ=0.000000D+00  E= 2.260133D+00
              MO Center=  6.0D-02, -2.6D-01, -4.0D-03, r^2= 2.7D+00
   Bfn.  Coefficient  Atom+Function         Bfn.  Coefficient  Atom+Function  
  ----- ------------  ---------------      ----- ------------  ---------------
    25      1.646108  2 N  s                 46     -1.636288  6 H  s          
     6      1.135799  1 C  s                 47     -0.821529  7 H  s          
    38     -0.716378  2 N  dzz               15     -0.658257  1 C  dxy        
    14     -0.608313  1 C  dxx               27      0.607849  2 N  py         
    33      0.593398  2 N  dxx                8     -0.572040  1 C  py         

 Vector   44  Occ=0.000000D+00  E= 2.295539D+00
              MO Center= -7.8D-02,  1.2D+00,  1.4D-02, r^2= 1.0D+00
   Bfn.  Coefficient  Atom+Function         Bfn.  Coefficient  Atom+Function  
  ----- ------------  ---------------      ----- ------------  ---------------
    16      1.747362  1 C  dxz               18     -0.797263  1 C  dyz        
    39      0.772227  3 H  s                 41     -0.725077  4 H  s          
     9     -0.519566  1 C  pz                40     -0.194936  3 H  s          
    13      0.191204  1 C  pz                42      0.183294  4 H  s          
     5     -0.153570  1 C  pz                14      0.121716  1 C  dxx        

 Vector   45  Occ=0.000000D+00  E= 2.314215D+00
              MO Center=  2.9D-02,  5.9D-01, -1.0D-02, r^2= 2.4D+00
   Bfn.  Coefficient  Atom+Function         Bfn.  Coefficient  Atom+Function  
  ----- ------------  ---------------      ----- ------------  ---------------
    46     -1.380518  6 H  s                 25      1.277255  2 N  s          
     6      0.949052  1 C  s                 19     -0.854994  1 C  dzz        
    43     -0.712027  5 H  s                 15      0.660617  1 C  dxy        
    14      0.590523  1 C  dxx               47     -0.581162  7 H  s          
     7      0.559060  1 C  px                27      0.492874  2 N  py         

 Vector   46  Occ=0.000000D+00  E= 2.464201D+00
              MO Center=  4.4D-02, -6.0D-01,  3.0D-04, r^2= 2.3D+00
   Bfn.  Coefficient  Atom+Function         Bfn.  Coefficient  Atom+Function  
  ----- ------------  ---------------      ----- ------------  ---------------
    46      1.872437  6 H  s                  6     -1.549995  1 C  s          
    25     -1.185255  2 N  s                 27     -1.034519  2 N  py         
    36     -0.911303  2 N  dyy                8      0.780971  1 C  py         
    33      0.778849  2 N  dxx               45      0.692336  6 H  s          
    17     -0.614119  1 C  dyy               47     -0.553413  7 H  s          

 Vector   47  Occ=0.000000D+00  E= 3.740663D+00
              MO Center=  1.1D-01, -1.3D+00,  1.5D-04, r^2= 1.3D+00
   Bfn.  Coefficient  Atom+Function         Bfn.  Coefficient  Atom+Function  
  ----- ------------  ---------------      ----- ------------  ---------------
    25      3.925119  2 N  s                 38     -1.623708  2 N  dzz        
    33     -1.603350  2 N  dxx               46     -1.575511  6 H  s          
    36     -1.412552  2 N  dyy               21      0.940059  2 N  s          
    29     -0.888193  2 N  s                  6      0.716646  1 C  s          
    27      0.648888  2 N  py                10      0.554696  1 C  s          

 Vector   48  Occ=0.000000D+00  E= 4.243802D+00
              MO Center=  2.4D-02,  1.2D+00,  4.9D-05, r^2= 9.3D-01
   Bfn.  Coefficient  Atom+Function         Bfn.  Coefficient  Atom+Function  
  ----- ------------  ---------------      ----- ------------  ---------------
     6      3.397454  1 C  s                  2      2.710272  1 C  s          
    19     -1.950566  1 C  dzz               14     -1.932280  1 C  dxx        
    17     -1.785656  1 C  dyy               46     -1.538847  6 H  s          
    25      1.113967  2 N  s                 44     -0.773217  5 H  s          
    40     -0.747263  3 H  s                 42     -0.745394  4 H  s          


                     DFT Final Beta Molecular Orbital Analysis
                     -----------------------------------------

 Vector    1  Occ=1.000000D+00  E=-1.479044D+01
              MO Center=  9.5D-02, -1.4D+00,  4.3D-06, r^2= 2.0D-02
   Bfn.  Coefficient  Atom+Function         Bfn.  Coefficient  Atom+Function  
  ----- ------------  ---------------      ----- ------------  ---------------
    20      0.994003  2 N  s                 21      0.029184  2 N  s          

 Vector    2  Occ=1.000000D+00  E=-1.055208D+01
              MO Center=  1.9D-02,  1.2D+00, -2.2D-05, r^2= 2.8D-02
   Bfn.  Coefficient  Atom+Function         Bfn.  Coefficient  Atom+Function  
  ----- ------------  ---------------      ----- ------------  ---------------
     1      0.994027  1 C  s                  2      0.042511  1 C  s          

 Vector    3  Occ=1.000000D+00  E=-8.715091D-01
              MO Center= -1.6D-01, -1.1D+00,  1.1D-04, r^2= 1.1D+00
   Bfn.  Coefficient  Atom+Function         Bfn.  Coefficient  Atom+Function  
  ----- ------------  ---------------      ----- ------------  ---------------
    25      0.435534  2 N  s                 21      0.393197  2 N  s          
    20     -0.186389  2 N  s                 47      0.182885  7 H  s          
    45      0.135141  6 H  s                 22     -0.115450  2 N  px         
     6      0.104702  1 C  s                  2      0.090053  1 C  s          
    26     -0.058273  2 N  px                 1     -0.050003  1 C  s          

 Vector    4  Occ=1.000000D+00  E=-7.661438D-01
              MO Center= -1.5D-02,  1.0D+00, -1.7D-04, r^2= 1.7D+00
   Bfn.  Coefficient  Atom+Function         Bfn.  Coefficient  Atom+Function  
  ----- ------------  ---------------      ----- ------------  ---------------
     6      0.366815  1 C  s                  2      0.348476  1 C  s          
     1     -0.186772  1 C  s                 25     -0.152304  2 N  s          
    39      0.144858  3 H  s                 41      0.144907  4 H  s          
    43      0.144769  5 H  s                 21     -0.126235  2 N  s          
    47     -0.077582  7 H  s                 20      0.059283  2 N  s          

 Vector    5  Occ=1.000000D+00  E=-4.955254D-01
              MO Center= -7.8D-02, -4.7D-01, -4.9D-03, r^2= 2.2D+00
   Bfn.  Coefficient  Atom+Function         Bfn.  Coefficient  Atom+Function  
  ----- ------------  ---------------      ----- ------------  ---------------
    22      0.306694  2 N  px                46      0.235191  6 H  s          
    45      0.226886  6 H  s                 23      0.222285  2 N  py         
    47     -0.215734  7 H  s                  3      0.169080  1 C  px         
    48     -0.165110  7 H  s                 26      0.159663  2 N  px         
     4     -0.139804  1 C  py                27      0.106576  2 N  py         

 Vector    6  Occ=1.000000D+00  E=-4.790635D-01
              MO Center= -2.4D-01,  1.3D+00,  2.7D-02, r^2= 1.2D+00
   Bfn.  Coefficient  Atom+Function         Bfn.  Coefficient  Atom+Function  
  ----- ------------  ---------------      ----- ------------  ---------------
     5      0.438109  1 C  pz                39      0.250088  3 H  s          
    41     -0.241249  4 H  s                  9      0.213318  1 C  pz         
    40      0.182750  3 H  s                 42     -0.176794  4 H  s          
    16     -0.041640  1 C  dxz               13      0.026386  1 C  pz         

 Vector    7  Occ=1.000000D+00  E=-4.756664D-01
              MO Center=  3.0D-01,  1.0D+00, -2.2D-02, r^2= 1.8D+00
   Bfn.  Coefficient  Atom+Function         Bfn.  Coefficient  Atom+Function  
  ----- ------------  ---------------      ----- ------------  ---------------
     3      0.404357  1 C  px                43      0.284394  5 H  s          
     7      0.201726  1 C  px                44      0.200465  5 H  s          
    22     -0.116675  2 N  px                41     -0.116425  4 H  s          
    23     -0.105270  2 N  py                39     -0.104772  3 H  s          
    46     -0.101560  6 H  s                 45     -0.097529  6 H  s          

 Vector    8  Occ=1.000000D+00  E=-3.716101D-01
              MO Center=  1.7D-01, -1.0D+00, -6.2D-05, r^2= 1.9D+00
   Bfn.  Coefficient  Atom+Function         Bfn.  Coefficient  Atom+Function  
  ----- ------------  ---------------      ----- ------------  ---------------
    25      0.426224  2 N  s                 22      0.352092  2 N  px         
    26      0.222553  2 N  px                23     -0.221265  2 N  py         
    21      0.220047  2 N  s                 46     -0.211467  6 H  s          
     4      0.188440  1 C  py                45     -0.173767  6 H  s          
    48     -0.153542  7 H  s                 27     -0.135008  2 N  py         

 Vector    9  Occ=0.000000D+00  E=-6.236437D-02
              MO Center=  8.7D-02, -1.4D+00, -5.0D-03, r^2= 2.1D+00
   Bfn.  Coefficient  Atom+Function         Bfn.  Coefficient  Atom+Function  
  ----- ------------  ---------------      ----- ------------  ---------------
    24      0.457382  2 N  pz                32      0.417839  2 N  pz         
    28      0.381611  2 N  pz                40     -0.078083  3 H  s          
    42      0.074301  4 H  s                  5     -0.038807  1 C  pz         
    13      0.036041  1 C  pz                35     -0.031512  2 N  dxz        
    39     -0.027511  3 H  s                 41      0.026993  4 H  s          

 Vector   10  Occ=0.000000D+00  E=-6.068578D-02
              MO Center=  3.6D-02,  9.6D-02,  4.5D-03, r^2= 4.0D+00
   Bfn.  Coefficient  Atom+Function         Bfn.  Coefficient  Atom+Function  
  ----- ------------  ---------------      ----- ------------  ---------------
     8      0.390866  1 C  py                23      0.389373  2 N  py         
     4      0.376882  1 C  py                12      0.354907  1 C  py         
    27      0.341561  2 N  py                 6     -0.285281  1 C  s          
    31      0.241995  2 N  py                25      0.171907  2 N  s          
    29      0.092008  2 N  s                  2     -0.074726  1 C  s          

 Vector   11  Occ=0.000000D+00  E= 2.842388D-02
              MO Center= -5.1D-01,  6.9D-01,  7.7D-04, r^2= 8.8D+00
   Bfn.  Coefficient  Atom+Function         Bfn.  Coefficient  Atom+Function  
  ----- ------------  ---------------      ----- ------------  ---------------
    10      1.800442  1 C  s                 46     -0.445801  6 H  s          
    31     -0.331383  2 N  py                42     -0.262477  4 H  s          
    40     -0.260435  3 H  s                  6     -0.222406  1 C  s          
    44     -0.210005  5 H  s                 12     -0.193808  1 C  py         
    25     -0.151337  2 N  s                  2     -0.139721  1 C  s          

 Vector   12  Occ=0.000000D+00  E= 6.303494D-02
              MO Center=  2.6D-01,  1.4D+00,  8.1D-03, r^2= 9.4D+00
   Bfn.  Coefficient  Atom+Function         Bfn.  Coefficient  Atom+Function  
  ----- ------------  ---------------      ----- ------------  ---------------
    11      0.969407  1 C  px                12      0.768003  1 C  py         
    44     -0.353299  5 H  s                  8     -0.220497  1 C  py         
    29      0.219877  2 N  s                 31      0.178934  2 N  py         
     4     -0.125637  1 C  py                26     -0.119895  2 N  px         
     3     -0.110723  1 C  px                27     -0.109707  2 N  py         

 Vector   13  Occ=0.000000D+00  E= 7.044128D-02
              MO Center=  1.3D-01,  1.3D+00, -1.7D-02, r^2= 9.6D+00
   Bfn.  Coefficient  Atom+Function         Bfn.  Coefficient  Atom+Function  
  ----- ------------  ---------------      ----- ------------  ---------------
    13      1.297114  1 C  pz                40     -0.268324  3 H  s          
    42      0.244756  4 H  s                 32     -0.201870  2 N  pz         
     9     -0.173795  1 C  pz                 5     -0.144218  1 C  pz         
    24     -0.128455  2 N  pz                28     -0.128994  2 N  pz         
    12      0.047087  1 C  py                39     -0.028790  3 H  s          

 Vector   14  Occ=0.000000D+00  E= 7.140729D-02
              MO Center= -1.1D-01,  1.4D+00,  1.1D-02, r^2= 1.0D+01
   Bfn.  Coefficient  Atom+Function         Bfn.  Coefficient  Atom+Function  
  ----- ------------  ---------------      ----- ------------  ---------------
    12      1.228492  1 C  py                11     -0.792370  1 C  px         
    10     -0.480595  1 C  s                 29      0.457853  2 N  s          
    31      0.420717  2 N  py                 8     -0.256514  1 C  py         
    27     -0.237709  2 N  py                46      0.220186  6 H  s          
    30      0.182124  2 N  px                 4     -0.167718  1 C  py         

 Vector   15  Occ=0.000000D+00  E= 1.062584D-01
              MO Center= -3.3D-01, -1.0D+00, -9.3D-04, r^2= 9.5D+00
   Bfn.  Coefficient  Atom+Function         Bfn.  Coefficient  Atom+Function  
  ----- ------------  ---------------      ----- ------------  ---------------
    29      1.970568  2 N  s                 10     -1.195496  1 C  s          
    12      1.033380  1 C  py                30     -0.846407  2 N  px         
    25     -0.585063  2 N  s                 48     -0.445536  7 H  s          
    11      0.346662  1 C  px                 6      0.327061  1 C  s          
    46      0.299434  6 H  s                 31     -0.246087  2 N  py         

 Vector   16  Occ=0.000000D+00  E= 1.469370D-01
              MO Center=  6.0D-01, -1.7D+00, -1.0D-03, r^2= 7.6D+00
   Bfn.  Coefficient  Atom+Function         Bfn.  Coefficient  Atom+Function  
  ----- ------------  ---------------      ----- ------------  ---------------
    30      1.257266  2 N  px                31     -1.162338  2 N  py         
    29     -0.829233  2 N  s                 10      0.751109  1 C  s          
    46      0.571103  6 H  s                 11     -0.528618  1 C  px         
    12     -0.387010  1 C  py                48      0.351225  7 H  s          
    25     -0.314121  2 N  s                 26     -0.312533  2 N  px         

 Vector   17  Occ=0.000000D+00  E= 1.606177D-01
              MO Center=  9.3D-02, -1.4D+00,  1.2D-03, r^2= 6.7D+00
   Bfn.  Coefficient  Atom+Function         Bfn.  Coefficient  Atom+Function  
  ----- ------------  ---------------      ----- ------------  ---------------
    32      1.345531  2 N  pz                28     -0.659459  2 N  pz         
    13     -0.540496  1 C  pz                24     -0.353667  2 N  pz         
     5      0.042957  1 C  pz                40      0.025299  3 H  s          
    42     -0.025190  4 H  s          

 Vector   18  Occ=0.000000D+00  E= 1.932500D-01
              MO Center=  3.9D-01, -6.7D-01, -6.6D-04, r^2= 8.6D+00
   Bfn.  Coefficient  Atom+Function         Bfn.  Coefficient  Atom+Function  
  ----- ------------  ---------------      ----- ------------  ---------------
    29      3.714501  2 N  s                 10     -2.466037  1 C  s          
    31      2.141626  2 N  py                12      1.606351  1 C  py         
    25     -1.013241  2 N  s                 46     -0.993538  6 H  s          
     6      0.575163  1 C  s                 30      0.403454  2 N  px         
    48      0.252540  7 H  s                 11     -0.196530  1 C  px         

 Vector   19  Occ=0.000000D+00  E= 2.317850D-01
              MO Center=  1.8D-01,  1.1D+00,  7.9D-02, r^2= 4.0D+00
   Bfn.  Coefficient  Atom+Function         Bfn.  Coefficient  Atom+Function  
  ----- ------------  ---------------      ----- ------------  ---------------
    44      1.863848  5 H  s                  7     -1.504912  1 C  px         
    40     -1.320867  3 H  s                 48      0.886436  7 H  s          
    29     -0.865937  2 N  s                 42     -0.816780  4 H  s          
    30      0.511745  2 N  px                11     -0.430087  1 C  px         
    10      0.396571  1 C  s                  9      0.286915  1 C  pz         

 Vector   20  Occ=0.000000D+00  E= 2.342855D-01
              MO Center= -2.5D-01,  1.3D+00, -7.9D-02, r^2= 3.3D+00
   Bfn.  Coefficient  Atom+Function         Bfn.  Coefficient  Atom+Function  
  ----- ------------  ---------------      ----- ------------  ---------------
    42      1.931121  4 H  s                 40     -1.601940  3 H  s          
     9      1.542828  1 C  pz                13      0.439705  1 C  pz         
     7      0.299951  1 C  px                44     -0.291334  5 H  s          
     5      0.288245  1 C  pz                32     -0.244401  2 N  pz         
    41      0.128954  4 H  s                 39     -0.106744  3 H  s          

 Vector   21  Occ=0.000000D+00  E= 2.683405D-01
              MO Center= -5.8D-01, -1.2D+00, -3.1D-03, r^2= 4.2D+00
   Bfn.  Coefficient  Atom+Function         Bfn.  Coefficient  Atom+Function  
  ----- ------------  ---------------      ----- ------------  ---------------
    29      3.306440  2 N  s                 48     -2.866130  7 H  s          
    10     -1.391571  1 C  s                 31      1.034162  2 N  py         
    26     -1.004763  2 N  px                46     -0.932261  6 H  s          
    25      0.788934  2 N  s                 12      0.764622  1 C  py         
    30     -0.731005  2 N  px                44      0.668315  5 H  s          

 Vector   22  Occ=0.000000D+00  E= 2.930515D-01
              MO Center=  4.2D-02,  1.2D+00,  1.3D-03, r^2= 5.7D+00
   Bfn.  Coefficient  Atom+Function         Bfn.  Coefficient  Atom+Function  
  ----- ------------  ---------------      ----- ------------  ---------------
    10      2.763940  1 C  s                  6      2.531297  1 C  s          
    29     -1.894119  2 N  s                 44     -1.824163  5 H  s          
    40     -1.773422  3 H  s                 42     -1.767645  4 H  s          
    12     -0.938513  1 C  py                 8      0.650441  1 C  py         
    31     -0.593303  2 N  py                25      0.425951  2 N  s          

 Vector   23  Occ=0.000000D+00  E= 3.969951D-01
              MO Center=  1.4D-01,  2.3D-01,  1.3D-03, r^2= 3.8D+00
   Bfn.  Coefficient  Atom+Function         Bfn.  Coefficient  Atom+Function  
  ----- ------------  ---------------      ----- ------------  ---------------
    46      3.583200  6 H  s                  6     -1.764593  1 C  s          
     8      1.336927  1 C  py                25     -1.201564  2 N  s          
    27     -1.142891  2 N  py                29     -0.857371  2 N  s          
    44      0.497000  5 H  s                 12     -0.391166  1 C  py         
    10     -0.344007  1 C  s                 23     -0.334111  2 N  py         

 Vector   24  Occ=0.000000D+00  E= 6.672542D-01
              MO Center= -8.8D-02,  1.0D+00,  1.0D-02, r^2= 3.2D+00
   Bfn.  Coefficient  Atom+Function         Bfn.  Coefficient  Atom+Function  
  ----- ------------  ---------------      ----- ------------  ---------------
     7      1.538809  1 C  px                 3     -0.903898  1 C  px         
    11     -0.545733  1 C  px                43     -0.343688  5 H  s          
    26      0.221927  2 N  px                41      0.191996  4 H  s          
    48     -0.190499  7 H  s                 29      0.185457  2 N  s          
    39      0.170669  3 H  s                  8      0.164367  1 C  py         

 Vector   25  Occ=0.000000D+00  E= 6.742509D-01
              MO Center=  1.2D-01,  1.1D+00, -1.1D-02, r^2= 3.0D+00
   Bfn.  Coefficient  Atom+Function         Bfn.  Coefficient  Atom+Function  
  ----- ------------  ---------------      ----- ------------  ---------------
     9      1.590501  1 C  pz                 5     -0.919063  1 C  pz         
    13     -0.568375  1 C  pz                39     -0.317579  3 H  s          
    41      0.305925  4 H  s                 24     -0.150708  2 N  pz         
    16      0.131471  1 C  dxz               28      0.128385  2 N  pz         
    18     -0.064986  1 C  dyz               37      0.051654  2 N  dyz        

 Vector   26  Occ=0.000000D+00  E= 7.392291D-01
              MO Center= -4.0D-02,  1.7D+00, -3.7D-04, r^2= 2.3D+00
   Bfn.  Coefficient  Atom+Function         Bfn.  Coefficient  Atom+Function  
  ----- ------------  ---------------      ----- ------------  ---------------
     8      1.763917  1 C  py                46      1.157639  6 H  s          
     4     -1.056683  1 C  py                12     -0.552768  1 C  py         
    25     -0.512862  2 N  s                  7     -0.236236  1 C  px         
    27     -0.228330  2 N  py                41     -0.188516  4 H  s          
    39     -0.186985  3 H  s                 48     -0.182853  7 H  s          

 Vector   27  Occ=0.000000D+00  E= 9.472690D-01
              MO Center=  9.9D-02, -1.3D+00,  1.5D-03, r^2= 2.7D+00
   Bfn.  Coefficient  Atom+Function         Bfn.  Coefficient  Atom+Function  
  ----- ------------  ---------------      ----- ------------  ---------------
    26      1.574426  2 N  px                22     -0.799836  2 N  px         
    25     -0.708065  2 N  s                 30     -0.559451  2 N  px         
     7     -0.551771  1 C  px                27      0.493687  2 N  py         
    47      0.426575  7 H  s                 31     -0.416763  2 N  py         
    46      0.416239  6 H  s                 44      0.406532  5 H  s          

 Vector   28  Occ=0.000000D+00  E= 9.719973D-01
              MO Center=  8.9D-02, -1.3D+00, -3.4D-04, r^2= 2.4D+00
   Bfn.  Coefficient  Atom+Function         Bfn.  Coefficient  Atom+Function  
  ----- ------------  ---------------      ----- ------------  ---------------
    28      1.392203  2 N  pz                24     -1.035953  2 N  pz         
    32     -0.691597  2 N  pz                 9     -0.461726  1 C  pz         
    40      0.316672  3 H  s                 42     -0.296746  4 H  s          
     5      0.258400  1 C  pz                13      0.157704  1 C  pz         
    39     -0.093466  3 H  s                 41      0.083852  4 H  s          

 Vector   29  Occ=0.000000D+00  E= 9.846754D-01
              MO Center= -3.3D-02, -1.3D+00,  7.8D-03, r^2= 3.0D+00
   Bfn.  Coefficient  Atom+Function         Bfn.  Coefficient  Atom+Function  
  ----- ------------  ---------------      ----- ------------  ---------------
    48      1.092496  7 H  s                 27     -0.949488  2 N  py         
    31      0.662729  2 N  py                26      0.651461  2 N  px         
    45      0.574818  6 H  s                 23      0.560049  2 N  py         
    22     -0.530410  2 N  px                46     -0.507627  6 H  s          
    47     -0.488530  7 H  s                 44      0.441232  5 H  s          

 Vector   30  Occ=0.000000D+00  E= 9.947613D-01
              MO Center=  1.1D-01, -8.0D-01,  4.1D-03, r^2= 3.1D+00
   Bfn.  Coefficient  Atom+Function         Bfn.  Coefficient  Atom+Function  
  ----- ------------  ---------------      ----- ------------  ---------------
    46      3.076643  6 H  s                 27     -1.369153  2 N  py         
     6     -1.316142  1 C  s                 29     -1.109997  2 N  s          
    45     -0.824838  6 H  s                 23      0.680987  2 N  py         
    48     -0.500097  7 H  s                 40      0.372071  3 H  s          
    42      0.336923  4 H  s                 21     -0.331689  2 N  s          

 Vector   31  Occ=0.000000D+00  E= 1.018799D+00
              MO Center= -3.3D-01,  1.3D+00, -1.6D-02, r^2= 2.4D+00
   Bfn.  Coefficient  Atom+Function         Bfn.  Coefficient  Atom+Function  
  ----- ------------  ---------------      ----- ------------  ---------------
    42     -1.562715  4 H  s                 40      1.493127  3 H  s          
     9     -0.941430  1 C  pz                41      0.806053  4 H  s          
    39     -0.765207  3 H  s                  5      0.690252  1 C  pz         
    13     -0.419248  1 C  pz                16      0.416721  1 C  dxz        
    28     -0.234584  2 N  pz                32      0.225447  2 N  pz         

 Vector   32  Occ=0.000000D+00  E= 1.023176D+00
              MO Center=  4.4D-01,  1.1D+00, -4.2D-03, r^2= 2.8D+00
   Bfn.  Coefficient  Atom+Function         Bfn.  Coefficient  Atom+Function  
  ----- ------------  ---------------      ----- ------------  ---------------
    44      1.681742  5 H  s                 43     -0.938280  5 H  s          
     7     -0.825436  1 C  px                40     -0.808488  3 H  s          
    42     -0.730974  4 H  s                 46      0.669176  6 H  s          
     3      0.614213  1 C  px                26     -0.427933  2 N  px         
    11     -0.415215  1 C  px                39      0.365020  3 H  s          

 Vector   33  Occ=0.000000D+00  E= 1.079287D+00
              MO Center= -5.3D-01, -1.1D+00,  1.1D-02, r^2= 2.8D+00
   Bfn.  Coefficient  Atom+Function         Bfn.  Coefficient  Atom+Function  
  ----- ------------  ---------------      ----- ------------  ---------------
    48      2.183692  7 H  s                 25     -1.765047  2 N  s          
    46      1.040814  6 H  s                 47     -0.953156  7 H  s          
    29     -0.847721  2 N  s                 21      0.749589  2 N  s          
    30      0.616223  2 N  px                45     -0.512909  6 H  s          
    40      0.470369  3 H  s                 42      0.392984  4 H  s          

 Vector   34  Occ=0.000000D+00  E= 1.141315D+00
              MO Center=  7.0D-02,  1.1D+00, -2.9D-03, r^2= 3.3D+00
   Bfn.  Coefficient  Atom+Function         Bfn.  Coefficient  Atom+Function  
  ----- ------------  ---------------      ----- ------------  ---------------
    46      2.218032  6 H  s                  6      2.129367  1 C  s          
    29     -1.914430  2 N  s                 10      1.738615  1 C  s          
    44     -1.619423  5 H  s                 40     -1.553743  3 H  s          
    42     -1.561472  4 H  s                  2     -0.969090  1 C  s          
     8      0.900122  1 C  py                31     -0.736325  2 N  py         

 Vector   35  Occ=0.000000D+00  E= 1.241827D+00
              MO Center= -4.7D-04,  1.7D-02,  7.3D-05, r^2= 3.1D+00
   Bfn.  Coefficient  Atom+Function         Bfn.  Coefficient  Atom+Function  
  ----- ------------  ---------------      ----- ------------  ---------------
     6      3.870812  1 C  s                 46     -1.884037  6 H  s          
    29      1.837853  2 N  s                  2     -1.517049  1 C  s          
    25     -1.380620  2 N  s                 21      0.841346  2 N  s          
    31      0.763643  2 N  py                10     -0.732975  1 C  s          
     8     -0.674033  1 C  py                40     -0.659515  3 H  s          

 Vector   36  Occ=0.000000D+00  E= 1.441406D+00
              MO Center=  2.1D-01, -1.7D-01,  2.6D-03, r^2= 3.3D+00
   Bfn.  Coefficient  Atom+Function         Bfn.  Coefficient  Atom+Function  
  ----- ------------  ---------------      ----- ------------  ---------------
     6      5.232311  1 C  s                 46     -5.010392  6 H  s          
    25      4.086426  2 N  s                 27      1.650923  2 N  py         
     2     -1.552905  1 C  s                  8     -1.412082  1 C  py         
    21     -1.243483  2 N  s                 29     -0.853796  2 N  s          
    44     -0.773156  5 H  s                 10      0.739219  1 C  s          

 Vector   37  Occ=0.000000D+00  E= 1.721807D+00
              MO Center=  1.9D-02,  1.1D+00,  1.4D-04, r^2= 7.5D-01
   Bfn.  Coefficient  Atom+Function         Bfn.  Coefficient  Atom+Function  
  ----- ------------  ---------------      ----- ------------  ---------------
    18      1.563082  1 C  dyz               16      0.706169  1 C  dxz        
    37     -0.217482  2 N  dyz               19     -0.052216  1 C  dzz        
    14      0.050874  1 C  dxx               32      0.034701  2 N  pz         
    35     -0.028734  2 N  dxz               13     -0.026799  1 C  pz         
    28      0.025736  2 N  pz         

 Vector   38  Occ=0.000000D+00  E= 1.730018D+00
              MO Center=  2.3D-02,  1.1D+00, -2.3D-04, r^2= 8.3D-01
   Bfn.  Coefficient  Atom+Function         Bfn.  Coefficient  Atom+Function  
  ----- ------------  ---------------      ----- ------------  ---------------
    15      1.503848  1 C  dxy               46      0.829256  6 H  s          
     6     -0.747119  1 C  s                 25     -0.528734  2 N  s          
    14     -0.428191  1 C  dxx               19      0.367123  1 C  dzz        
     8      0.241749  1 C  py                 2      0.229873  1 C  s          
    27     -0.227553  2 N  py                21      0.141233  2 N  s          

 Vector   39  Occ=0.000000D+00  E= 1.775652D+00
              MO Center=  1.1D-01, -1.4D+00,  4.9D-04, r^2= 7.9D-01
   Bfn.  Coefficient  Atom+Function         Bfn.  Coefficient  Atom+Function  
  ----- ------------  ---------------      ----- ------------  ---------------
    34      1.626684  2 N  dxy                6      0.787080  1 C  s          
    46     -0.772234  6 H  s                 25      0.545071  2 N  s          
    27      0.276908  2 N  py                38      0.267675  2 N  dzz        
    33     -0.256679  2 N  dxx                8     -0.239124  1 C  py         
     2     -0.232576  1 C  s                 40     -0.164075  3 H  s          

 Vector   40  Occ=0.000000D+00  E= 1.777269D+00
              MO Center=  1.0D-01, -1.4D+00, -3.5D-04, r^2= 6.6D-01
   Bfn.  Coefficient  Atom+Function         Bfn.  Coefficient  Atom+Function  
  ----- ------------  ---------------      ----- ------------  ---------------
    35      1.594611  2 N  dxz               37      0.658499  2 N  dyz        
    18      0.110357  1 C  dyz               34      0.093910  2 N  dxy        
    42     -0.087887  4 H  s                  9     -0.083482  1 C  pz         
    40      0.067565  3 H  s                  6      0.049568  1 C  s          
    46     -0.047716  6 H  s                  5      0.032860  1 C  pz         

 Vector   41  Occ=0.000000D+00  E= 1.800121D+00
              MO Center=  9.9D-02, -1.4D+00, -2.8D-04, r^2= 7.5D-01
   Bfn.  Coefficient  Atom+Function         Bfn.  Coefficient  Atom+Function  
  ----- ------------  ---------------      ----- ------------  ---------------
    37      1.584709  2 N  dyz               35     -0.667993  2 N  dxz        
    18      0.210062  1 C  dyz                9     -0.138199  1 C  pz         
    40      0.114447  3 H  s                 42     -0.108532  4 H  s          
     5      0.062398  1 C  pz                32      0.046162  2 N  pz         
    13     -0.041030  1 C  pz                39     -0.034107  3 H  s          

 Vector   42  Occ=0.000000D+00  E= 1.972589D+00
              MO Center=  5.2D-02,  1.6D-01,  5.7D-05, r^2= 2.4D+00
   Bfn.  Coefficient  Atom+Function         Bfn.  Coefficient  Atom+Function  
  ----- ------------  ---------------      ----- ------------  ---------------
    17     -0.823413  1 C  dyy               46     -0.760331  6 H  s          
     6      0.750477  1 C  s                 25      0.718162  2 N  s          
    36      0.623309  2 N  dyy               27      0.524648  2 N  py         
    38     -0.514219  2 N  dzz               21     -0.349132  2 N  s          
    43     -0.349892  5 H  s                 39     -0.347845  3 H  s          

 Vector   43  Occ=0.000000D+00  E= 2.302025D+00
              MO Center=  8.3D-02,  9.2D-03, -6.0D-03, r^2= 2.7D+00
   Bfn.  Coefficient  Atom+Function         Bfn.  Coefficient  Atom+Function  
  ----- ------------  ---------------      ----- ------------  ---------------
    25      1.358218  2 N  s                 46     -1.315149  6 H  s          
     6      0.897198  1 C  s                 15     -0.738446  1 C  dxy        
    47     -0.717071  7 H  s                 14     -0.678972  1 C  dxx        
    38     -0.663618  2 N  dzz               43      0.610405  5 H  s          
    33      0.537669  2 N  dxx               27      0.487126  2 N  py         

 Vector   44  Occ=0.000000D+00  E= 2.326683D+00
              MO Center= -7.5D-02,  1.2D+00,  1.4D-02, r^2= 1.0D+00
   Bfn.  Coefficient  Atom+Function         Bfn.  Coefficient  Atom+Function  
  ----- ------------  ---------------      ----- ------------  ---------------
    16      1.752681  1 C  dxz               18     -0.792634  1 C  dyz        
    39      0.766195  3 H  s                 41     -0.718849  4 H  s          
     9     -0.516561  1 C  pz                40     -0.190284  3 H  s          
    13      0.188910  1 C  pz                42      0.178993  4 H  s          
     5     -0.151325  1 C  pz                14      0.122992  1 C  dxx        

 Vector   45  Occ=0.000000D+00  E= 2.351104D+00
              MO Center=  9.3D-03,  2.5D-01, -8.0D-03, r^2= 2.7D+00
   Bfn.  Coefficient  Atom+Function         Bfn.  Coefficient  Atom+Function  
  ----- ------------  ---------------      ----- ------------  ---------------
    46     -1.508040  6 H  s                 25      1.434649  2 N  s          
     6      1.023042  1 C  s                 19     -0.796020  1 C  dzz        
    47     -0.688399  7 H  s                 43     -0.624783  5 H  s          
    38     -0.617089  2 N  dzz               15      0.560693  1 C  dxy        
    27      0.536231  2 N  py                 7      0.526581  1 C  px         

 Vector   46  Occ=0.000000D+00  E= 2.500830D+00
              MO Center=  4.6D-02, -5.7D-01,  3.0D-04, r^2= 2.3D+00
   Bfn.  Coefficient  Atom+Function         Bfn.  Coefficient  Atom+Function  
  ----- ------------  ---------------      ----- ------------  ---------------
    46      1.896594  6 H  s                  6     -1.532164  1 C  s          
    25     -1.214088  2 N  s                 27     -1.028215  2 N  py         
    36     -0.910802  2 N  dyy                8      0.777335  1 C  py         
    33      0.762548  2 N  dxx               45      0.675333  6 H  s          
    17     -0.637999  1 C  dyy               47     -0.531224  7 H  s          

 Vector   47  Occ=0.000000D+00  E= 3.786105D+00
              MO Center=  1.1D-01, -1.3D+00,  1.3D-04, r^2= 1.3D+00
   Bfn.  Coefficient  Atom+Function         Bfn.  Coefficient  Atom+Function  
  ----- ------------  ---------------      ----- ------------  ---------------
    25      3.802124  2 N  s                 33     -1.603615  2 N  dxx        
    38     -1.609024  2 N  dzz               46     -1.494994  6 H  s          
    36     -1.407350  2 N  dyy               21      0.996218  2 N  s          
    29     -0.881939  2 N  s                  6      0.683020  1 C  s          
    27      0.618842  2 N  py                10      0.546401  1 C  s          

 Vector   48  Occ=0.000000D+00  E= 4.294931D+00
              MO Center=  2.4D-02,  1.2D+00,  4.1D-05, r^2= 9.1D-01
   Bfn.  Coefficient  Atom+Function         Bfn.  Coefficient  Atom+Function  
  ----- ------------  ---------------      ----- ------------  ---------------
     6      3.333777  1 C  s                  2      2.739926  1 C  s          
    19     -1.952579  1 C  dzz               14     -1.934664  1 C  dxx        
    17     -1.779885  1 C  dyy               46     -1.506837  6 H  s          
    25      1.079876  2 N  s                 44     -0.761009  5 H  s          
    40     -0.735161  3 H  s                 42     -0.733362  4 H  s          


   alpha - beta orbital overlaps 
   ----------------------------- 


   alpha      1      2      3      4      5      6      7      8      9     10
    beta      1      2      3      4      5      6      7      8      9     10
 overlap   1.000  1.000  0.989  0.991  0.933  0.997  0.944  0.972  0.932  0.964


   alpha     11     12     13     14     15     16     17     18     19     20
    beta     11     12     13     14     15     16     17     18     19     20
 overlap   0.987  0.982  0.984  0.974  0.985  0.987  0.944  0.956  0.977  0.994


   alpha     21     22     23     24     25     26     27     28     29     30
    beta     21     22     23     24     25     26     28     27     29     30
 overlap   0.881  0.915  0.988  0.996  0.998  0.992  0.991  0.969  0.859  0.785


   alpha     31     32     33     34     35     36     37     38     39     40
    beta     31     32     33     34     35     36     37     38     40     39
 overlap   0.995  0.949  0.967  0.981  0.985  0.997  0.998  0.999  0.995  0.996


   alpha     41     42     43     44     45     46     47     48
    beta     41     42     43     44     45     46     47     48
 overlap   0.997  0.998  0.988  1.000  0.989  0.999  1.000  1.000

     --------------------------
     Expectation value of S2:  
     --------------------------
      <S2> =      2.0169 (Exact =     2.0000)


 center of mass
 --------------
 x =   0.04692750 y =  -0.15898261 z =  -0.00000619

 moments of inertia (a.u.)
 ------------------
         196.999893711015           0.000000000000          -0.000000000002
           0.000000000000          15.498308646263          -0.000000000000
          -0.000000000002          -0.000000000000         200.538767859806

     Multipole analysis of the density
     ---------------------------------

     L   x y z        total         alpha         beta         nuclear
     -   - - -        -----         -----         ----         -------
     0   0 0 0     -0.000000    -10.000000     -8.000000     18.000000

     1   1 0 0     -0.617751     -0.451376     -0.166376      0.000000
     1   0 1 0      0.444361      1.574441     -1.130080      0.000000
     1   0 0 1      0.000132     -0.000039      0.000171      0.000000

     2   2 0 0    -10.555882    -10.299550     -9.540424      9.284092
     2   1 1 0      2.239806      0.206513     -0.530379      2.563672
     2   1 0 1     -0.001390     -0.000493     -0.000887     -0.000010
     2   0 2 0    -12.898036    -69.995542    -54.370399    111.467905
     2   0 1 1      0.000707     -0.000089      0.000063      0.000733
     2   0 0 2    -10.962905     -9.516004     -7.380190      5.933289


 Task  times  cpu:        2.6s     wall:        2.6s


                                NWChem Input Module
                                -------------------


 Summary of allocated global arrays
-----------------------------------
  No active global arrays



                         GA Statistics for process    0
                         ------------------------------

       create   destroy   get      put      acc     scatter   gather  read&inc
calls:  312      312     2.39e+04 1065     1.48e+04    0        0      985     
number of processes/call 1.07e+00 1.48e+00 1.04e+00 0.00e+00 0.00e+00
bytes total:             2.71e+07 3.12e+06 1.34e+07 0.00e+00 0.00e+00 7.88e+03
bytes remote:            2.95e+06 3.86e+05 1.53e+06 0.00e+00 0.00e+00 0.00e+00
Max memory consumed for GA by this process: 778400 bytes

MA_summarize_allocated_blocks: starting scan ...
heap block 'gridpts', handle 85, address 0x556906feb500:
	type of elements:		double precision
	number of elements:		34423327
	address of client space:	0x556906feb580
	index for client space:		13479619
	total number of bytes:		275386752
MA_summarize_allocated_blocks: scan completed: 1 heap block, 0 stack blocks
MA usage statistics:

	allocation statistics:
					      heap	     stack
					      ----	     -----
	current number of blocks	         1	         0
	maximum number of blocks	        21	        53
	current total bytes		 275386752	         0
	maximum total bytes		 277866600	  22513960
	maximum total K-bytes		    277867	     22514
	maximum total M-bytes		       278	        23


                                     CITATION
                                     --------
                Please cite the following reference when publishing
                           results obtained with NWChem:

                 M. Valiev, E.J. Bylaska, N. Govind, K. Kowalski,
              T.P. Straatsma, H.J.J. van Dam, D. Wang, J. Nieplocha,
                        E. Apra, T.L. Windus, W.A. de Jong
                 "NWChem: a comprehensive and scalable open-source
                  solution for large scale molecular simulations"
                      Comput. Phys. Commun. 181, 1477 (2010)
                           doi:10.1016/j.cpc.2010.04.018

                                      AUTHORS
                                      -------
          E. Apra, E. J. Bylaska, W. A. de Jong, N. Govind, K. Kowalski,
       T. P. Straatsma, M. Valiev, H. J. J. van Dam, D. Wang, T. L. Windus,
        J. Hammond, J. Autschbach, K. Bhaskaran-Nair, J. Brabec, K. Lopata,
    S. A. Fischer, S. Krishnamoorthy, M. Jacquelin, W. Ma, M. Klemm, O. Villa,
      Y. Chen, V. Anisimov, F. Aquino, S. Hirata, M. T. Hackler, V. Konjkov,
            D. Mejia-Rodriguez, T. Risthaus, M. Malagoli, A. Marenich,
   A. Otero-de-la-Roza, J. Mullin, P. Nichols, R. Peverati, J. Pittner, Y. Zhao,
        P.-D. Fan, A. Fonari, M. J. Williamson, R. J. Harrison, J. R. Rehr,
      M. Dupuis, D. Silverstein, D. M. A. Smith, J. Nieplocha, V. Tipparaju,
    M. Krishnan, B. E. Van Kuiken, A. Vazquez-Mayagoitia, L. Jensen, M. Swart,
      Q. Wu, T. Van Voorhis, A. A. Auer, M. Nooijen, L. D. Crosby, E. Brown,
      G. Cisneros, G. I. Fann, H. Fruchtl, J. Garza, K. Hirao, R. A. Kendall,
      J. A. Nichols, K. Tsemekhman, K. Wolinski, J. Anchell, D. E. Bernholdt,
      P. Borowski, T. Clark, D. Clerc, H. Dachsel, M. J. O. Deegan, K. Dyall,
    D. Elwood, E. Glendening, M. Gutowski, A. C. Hess, J. Jaffe, B. G. Johnson,
     J. Ju, R. Kobayashi, R. Kutteh, Z. Lin, R. Littlefield, X. Long, B. Meng,
      T. Nakajima, S. Niu, L. Pollack, M. Rosing, K. Glaesemann, G. Sandrone,
      M. Stave, H. Taylor, G. Thomas, J. H. van Lenthe, A. T. Wong, Z. Zhang.

 Total times  cpu:        2.6s     wall:        2.6s
