 argument  1 = /home/list1234/source/nwchem-6.8.1-release/QA/tests/co_core/co_core.nw



============================== echo of input deck ==============================
echo
start co_core

title co_core

memory 1000 mb

geometry units angstrom noautosym nocenter
 O 0       0        0
 C 0       0.00     1.15
end

basis
  * library aug-cc-pvtz
end

dft
  xc b3lyp
end
task dft optimize

dft
  xc beckehandh
end
task dft

tddft
  cis
  ecut -15
  nroots 30
  notriplet
  thresh 1e-03
end
task tddft
================================================================================


                                         
                                         


              Northwest Computational Chemistry Package (NWChem) 6.8
              ------------------------------------------------------


                    Environmental Molecular Sciences Laboratory
                       Pacific Northwest National Laboratory
                                Richland, WA 99352

                              Copyright (c) 1994-2018
                       Pacific Northwest National Laboratory
                            Battelle Memorial Institute

             NWChem is an open-source computational chemistry package
                        distributed under the terms of the
                      Educational Community License (ECL) 2.0
             A copy of the license is included with this distribution
                              in the LICENSE.TXT file

                                  ACKNOWLEDGMENT
                                  --------------

            This software and its documentation were developed at the
            EMSL at Pacific Northwest National Laboratory, a multiprogram
            national laboratory, operated for the U.S. Department of Energy
            by Battelle under Contract Number DE-AC05-76RL01830. Support
            for this work was provided by the Department of Energy Office
            of Biological and Environmental Research, Office of Basic
            Energy Sciences, and the Office of Advanced Scientific Computing.


           Job information
           ---------------

    hostname        = list1234-B360M-H
    program         = /home/list1234/source/nwchem-6.8.1-release/bin/LINUX64/nwchem
    date            = Sun Jun 30 08:00:22 2019

    compiled        = Sun_Jun_30_05:21:11_2019
    source          = /home/list1234/source/nwchem-6.8.1-release
    nwchem branch   = Development
    nwchem revision = N/A
    ga revision     = 5.6.5
    use scalapack   = T
    input           = /home/list1234/source/nwchem-6.8.1-release/QA/tests/co_core/co_core.nw
    prefix          = co_core.
    data base       = ./co_core.db
    status          = startup
    nproc           =        4
    time left       =     -1s



           Memory information
           ------------------

    heap     =   32768000 doubles =    250.0 Mbytes
    stack    =   32767997 doubles =    250.0 Mbytes
    global   =   65536000 doubles =    500.0 Mbytes (distinct from heap & stack)
    total    =  131071997 doubles =   1000.0 Mbytes
    verify   = yes
    hardfail = no 


           Directory information
           ---------------------

  0 permanent = .
  0 scratch   = .




                                NWChem Input Module
                                -------------------


                                      co_core
                                      -------

 Scaling coordinates for geometry "geometry" by  1.889725989
 (inverse scale =  0.529177249)


          ------
          auto-z
          ------
  no constraints, skipping    0.0000000000000000     
  no constraints, skipping    0.0000000000000000     


                             Geometry "geometry" -> ""
                             -------------------------

 Output coordinates in angstroms (scale by  1.889725989 to convert to a.u.)

  No.       Tag          Charge          X              Y              Z
 ---- ---------------- ---------- -------------- -------------- --------------
    1 O                    8.0000     0.00000000     0.00000000     0.00000000
    2 C                    6.0000     0.00000000     0.00000000     1.15000000

      Atomic Mass 
      ----------- 

      O                 15.994910
      C                 12.000000


 Effective nuclear repulsion energy (a.u.)      22.0873982191

            Nuclear Dipole moment (a.u.) 
            ----------------------------
        X                 Y               Z
 ---------------- ---------------- ----------------
     0.0000000000     0.0000000000    13.0391093212



                                Z-matrix (autoz)
                                -------- 

 Units are Angstrom for bonds and degrees for angles

      Type          Name      I     J     K     L     M      Value
      ----------- --------  ----- ----- ----- ----- ----- ----------
    1 Stretch                  1     2                       1.15000


            XYZ format geometry
            -------------------
     2
 geometry
 O                     0.00000000     0.00000000     0.00000000
 C                     0.00000000     0.00000000     1.15000000

 ==============================================================================
                                internuclear distances
 ------------------------------------------------------------------------------
       center one      |      center two      | atomic units |  angstroms
 ------------------------------------------------------------------------------
    2 C                |   1 O                |     2.17318  |     1.15000
 ------------------------------------------------------------------------------
                         number of included internuclear distances:          1
 ==============================================================================





 Summary of "ao basis" -> "" (cartesian)
 ------------------------------------------------------------------------------
       Tag                 Description            Shells   Functions and Types
 ---------------- ------------------------------  ------  ---------------------
 *                        aug-cc-pvtz                 on all atoms 




                           NWChem Geometry Optimization
                           ----------------------------




                                      co_core


  no constraints, skipping    0.0000000000000000     
 maximum gradient threshold         (gmax) =   0.000450
 rms gradient threshold             (grms) =   0.000300
 maximum cartesian step threshold   (xmax) =   0.001800
 rms cartesian step threshold       (xrms) =   0.001200
 fixed trust radius                (trust) =   0.300000
 maximum step size to saddle      (sadstp) =   0.100000
 energy precision                  (eprec) =   5.0D-06
 maximum number of steps          (nptopt) =   20
 initial hessian option           (inhess) =    0
 line search option               (linopt) =    1
 hessian update option            (modupd) =    1
 saddle point option              (modsad) =    0
 initial eigen-mode to follow     (moddir) =    0
 initial variable to follow       (vardir) =    0
 follow first negative mode     (firstneg) =    T
 apply conjugacy                    (opcg) =    F
 source of zmatrix                         =   autoz   


          -------------------
          Energy Minimization
          -------------------


 Names of Z-matrix variables 
    1         

 Variables with the same non-blank name are constrained to be equal


 Using diagonal initial Hessian 
 Scaling for Hessian diagonals: bonds = 1.00  angles = 0.25  torsions = 0.10

          --------
          Step   0
          --------


                         Geometry "geometry" -> "geometry"
                         ---------------------------------

 Output coordinates in angstroms (scale by  1.889725989 to convert to a.u.)

  No.       Tag          Charge          X              Y              Z
 ---- ---------------- ---------- -------------- -------------- --------------
    1 O                    8.0000     0.00000000     0.00000000     0.00000000
    2 C                    6.0000     0.00000000     0.00000000     1.15000000

      Atomic Mass 
      ----------- 

      O                 15.994910
      C                 12.000000


 Effective nuclear repulsion energy (a.u.)      22.0873982191

            Nuclear Dipole moment (a.u.) 
            ----------------------------
        X                 Y               Z
 ---------------- ---------------- ----------------
     0.0000000000     0.0000000000    13.0391093212


                                 NWChem DFT Module
                                 -----------------


                                      co_core


                      Basis "ao basis" -> "ao basis" (cartesian)
                      -----
  O (Oxygen)
  ----------
            Exponent  Coefficients 
       -------------- ---------------------------------------------------------
  1 S  1.53300000E+04  0.000508
  1 S  2.29900000E+03  0.003929
  1 S  5.22400000E+02  0.020243
  1 S  1.47300000E+02  0.079181
  1 S  4.75500000E+01  0.230687
  1 S  1.67600000E+01  0.433118
  1 S  6.20700000E+00  0.350260
  1 S  6.88200000E-01 -0.008154

  2 S  1.53300000E+04 -0.000115
  2 S  2.29900000E+03 -0.000895
  2 S  5.22400000E+02 -0.004636
  2 S  1.47300000E+02 -0.018724
  2 S  4.75500000E+01 -0.058463
  2 S  1.67600000E+01 -0.136463
  2 S  6.20700000E+00 -0.175740
  2 S  6.88200000E-01  0.603418

  3 S  1.75200000E+00  1.000000

  4 S  2.38400000E-01  1.000000

  5 S  7.37600000E-02  1.000000

  6 P  3.44600000E+01  0.015928
  6 P  7.74900000E+00  0.099740
  6 P  2.28000000E+00  0.310492

  7 P  7.15600000E-01  1.000000

  8 P  2.14000000E-01  1.000000

  9 P  5.97400000E-02  1.000000

 10 D  2.31400000E+00  1.000000

 11 D  6.45000000E-01  1.000000

 12 D  2.14000000E-01  1.000000

 13 F  1.42800000E+00  1.000000

 14 F  5.00000000E-01  1.000000

  C (Carbon)
  ----------
            Exponent  Coefficients 
       -------------- ---------------------------------------------------------
  1 S  8.23600000E+03  0.000531
  1 S  1.23500000E+03  0.004108
  1 S  2.80800000E+02  0.021087
  1 S  7.92700000E+01  0.081853
  1 S  2.55900000E+01  0.234817
  1 S  8.99700000E+00  0.434401
  1 S  3.31900000E+00  0.346129
  1 S  3.64300000E-01 -0.008983

  2 S  8.23600000E+03 -0.000113
  2 S  1.23500000E+03 -0.000878
  2 S  2.80800000E+02 -0.004540
  2 S  7.92700000E+01 -0.018133
  2 S  2.55900000E+01 -0.055760
  2 S  8.99700000E+00 -0.126895
  2 S  3.31900000E+00 -0.170352
  2 S  3.64300000E-01  0.598684

  3 S  9.05900000E-01  1.000000

  4 S  1.28500000E-01  1.000000

  5 S  4.40200000E-02  1.000000

  6 P  1.87100000E+01  0.014031
  6 P  4.13300000E+00  0.086866
  6 P  1.20000000E+00  0.290216

  7 P  3.82700000E-01  1.000000

  8 P  1.20900000E-01  1.000000

  9 P  3.56900000E-02  1.000000

 10 D  1.09700000E+00  1.000000

 11 D  3.18000000E-01  1.000000

 12 D  1.00000000E-01  1.000000

 13 F  7.61000000E-01  1.000000

 14 F  2.68000000E-01  1.000000



 Summary of "ao basis" -> "ao basis" (cartesian)
 ------------------------------------------------------------------------------
       Tag                 Description            Shells   Functions and Types
 ---------------- ------------------------------  ------  ---------------------
 O                        aug-cc-pvtz               14       55   5s4p3d2f
 C                        aug-cc-pvtz               14       55   5s4p3d2f




 Summary of "ao basis" -> "ao basis" (cartesian)
 ------------------------------------------------------------------------------
       Tag                 Description            Shells   Functions and Types
 ---------------- ------------------------------  ------  ---------------------
 O                        aug-cc-pvtz               14       55   5s4p3d2f
 C                        aug-cc-pvtz               14       55   5s4p3d2f


  Caching 1-el integrals 

            General Information
            -------------------
          SCF calculation type: DFT
          Wavefunction type:  closed shell.
          No. of atoms     :     2
          No. of electrons :    14
           Alpha electrons :     7
            Beta electrons :     7
          Charge           :     0
          Spin multiplicity:     1
          Use of symmetry is: off; symmetry adaption is: off
          Maximum number of iterations:  30
          AO basis - number of functions:   110
                     number of shells:    28
          Convergence on energy requested:  1.00D-06
          Convergence on density requested:  1.00D-05
          Convergence on gradient requested:  5.00D-04

              XC Information
              --------------
                         B3LYP Method XC Potential
                     Hartree-Fock (Exact) Exchange  0.200          
                        Slater Exchange Functional  0.800 local    
                    Becke 1988 Exchange Functional  0.720 non-local
              Lee-Yang-Parr Correlation Functional  0.810          
                  VWN I RPA Correlation Functional  0.190 local    

             Grid Information
             ----------------
          Grid used for XC integration:  medium    
          Radial quadrature: Mura-Knowles        
          Angular quadrature: Lebedev. 
          Tag              B.-S. Rad. Rad. Pts. Rad. Cut. Ang. Pts.
          ---              ---------- --------- --------- ---------
          O                   0.60       49          10.0       434
          C                   0.70       49           9.0       434
          Grid pruning is: on 
          Number of quadrature shells:    98
          Spatial weights used:  Erf1

          Convergence Information
          -----------------------
          Convergence aids based upon iterative change in 
          total energy or number of iterations. 
          Levelshifting, if invoked, occurs when the 
          HOMO/LUMO gap drops below (HL_TOL):  1.00D-02
          DIIS, if invoked, will attempt to extrapolate 
          using up to (NFOCK): 10 stored Fock matrices.

                    Damping( 0%)  Levelshifting(0.5)       DIIS
                  --------------- ------------------- ---------------
          dE  on:    start            ASAP                start   
          dE off:    2 iters         30 iters            30 iters 


      Screening Tolerance Information
      -------------------------------
          Density screening/tol_rho:  1.00D-10
          AO Gaussian exp screening on grid/accAOfunc:  14
          CD Gaussian exp screening on grid/accCDfunc:  20
          XC Gaussian exp screening on grid/accXCfunc:  20
          Schwarz screening/accCoul:  1.00D-08


      Superposition of Atomic Density Guess
      -------------------------------------

 Sum of atomic energies:        -112.45192319

      Non-variational initial energy
      ------------------------------

 Total energy =    -112.820026
 1-e energy   =    -196.887520
 2-e energy   =      61.980096
 HOMO         =      -0.389639
 LUMO         =       0.014872

   Time after variat. SCF:      0.2
   Time prior to 1st pass:      0.2

 Grid_pts file          = ./co_core.gridpts.0
 Record size in doubles =  12289        No. of grid_pts per rec  =   3070
 Max. records in memory =      5        Max. recs in file   = 253312716


           Memory utilization after 1st SCF pass: 
           Heap Space remaining (MW):       19.70            19702144
          Stack Space remaining (MW):       32.77            32767340

   convergence    iter        energy       DeltaE   RMS-Dens  Diis-err    time
 ---------------- ----- ----------------- --------- --------- ---------  ------
 d= 0,ls=0.0,diis     1   -113.3009825838 -1.35D+02  7.03D-03  6.52D-01     0.6
 d= 0,ls=0.0,diis     2   -113.0808989916  2.20D-01  3.80D-03  3.02D+00     1.0
 d= 0,ls=0.0,diis     3   -113.3560331378 -2.75D-01  6.07D-04  4.81D-02     1.4
 d= 0,ls=0.0,diis     4   -113.3593775823 -3.34D-03  1.98D-04  2.79D-03     1.8
 d= 0,ls=0.0,diis     5   -113.3596621917 -2.85D-04  3.42D-05  1.64D-05     2.2
  Resetting Diis
 d= 0,ls=0.0,diis     6   -113.3596637288 -1.54D-06  4.12D-06  3.00D-07     2.6
 d= 0,ls=0.0,diis     7   -113.3596637565 -2.77D-08  4.87D-07  1.38D-09     2.9


         Total DFT energy =     -113.359663756487
      One electron energy =     -197.551439938916
           Coulomb energy =       75.972507791724
    Exchange-Corr. energy =      -13.868129828412
 Nuclear repulsion energy =       22.087398219118

 Numeric. integr. density =       13.999999990273

     Total iterative time =      2.8s



                       DFT Final Molecular Orbital Analysis
                       ------------------------------------

 Vector    1  Occ=2.000000D+00  E=-1.924215D+01
              MO Center=  4.3D-18,  5.5D-18,  1.2D-04, r^2= 1.5D-02
   Bfn.  Coefficient  Atom+Function         Bfn.  Coefficient  Atom+Function  
  ----- ------------  ---------------      ----- ------------  ---------------
     1      0.978057  1 O  s                  3      0.061299  1 O  s          

 Vector    2  Occ=2.000000D+00  E=-1.030581D+01
              MO Center= -2.7D-17, -3.3D-17,  1.1D+00, r^2= 2.8D-02
   Bfn.  Coefficient  Atom+Function         Bfn.  Coefficient  Atom+Function  
  ----- ------------  ---------------      ----- ------------  ---------------
    56      1.002762  2 C  s                  4     -0.094101  1 O  s          
    58      0.064632  2 C  s                 57      0.063375  2 C  s          
    14     -0.049857  1 O  pz                66     -0.040324  2 C  pz         
    84      0.029851  2 C  dzz              110     -0.025009  2 C  fzzz       

 Vector    3  Occ=2.000000D+00  E=-1.161478D+00
              MO Center=  5.7D-16, -2.3D-15,  3.2D-01, r^2= 4.3D-01
   Bfn.  Coefficient  Atom+Function         Bfn.  Coefficient  Atom+Function  
  ----- ------------  ---------------      ----- ------------  ---------------
     2      0.450029  1 O  s                 57      0.226812  2 C  s          
     4      0.147768  1 O  s                 63     -0.131370  2 C  pz         
     3      0.126593  1 O  s                 66     -0.119477  2 C  pz         
     8      0.108304  1 O  pz                11      0.082121  1 O  pz         
    58      0.075642  2 C  s                  5      0.058749  1 O  s          

 Vector    4  Occ=2.000000D+00  E=-5.846541D-01
              MO Center= -4.7D-16, -1.8D-15,  2.7D-02, r^2= 8.1D-01
   Bfn.  Coefficient  Atom+Function         Bfn.  Coefficient  Atom+Function  
  ----- ------------  ---------------      ----- ------------  ---------------
     4      0.333332  1 O  s                 57     -0.308829  2 C  s          
     8     -0.291704  1 O  pz                 2      0.279587  1 O  s          
    11     -0.270190  1 O  pz                59     -0.128415  2 C  s          
    14     -0.110091  1 O  pz                58     -0.097439  2 C  s          
     3      0.081187  1 O  s                  5      0.078252  1 O  s          

 Vector    5  Occ=2.000000D+00  E=-4.776514D-01
              MO Center= -5.3D-15, -3.8D-15,  3.0D-01, r^2= 8.1D-01
   Bfn.  Coefficient  Atom+Function         Bfn.  Coefficient  Atom+Function  
  ----- ------------  ---------------      ----- ------------  ---------------
     6      0.276111  1 O  px                 9      0.276364  1 O  px         
     7      0.185236  1 O  py                10      0.185406  1 O  py         
    12      0.160188  1 O  px                61      0.157534  2 C  px         
    64      0.133699  2 C  px                13      0.107466  1 O  py         
    62      0.105686  2 C  py                65      0.089696  2 C  py         

 Vector    6  Occ=2.000000D+00  E=-4.776514D-01
              MO Center=  4.1D-16,  2.2D-16,  3.0D-01, r^2= 8.1D-01
   Bfn.  Coefficient  Atom+Function         Bfn.  Coefficient  Atom+Function  
  ----- ------------  ---------------      ----- ------------  ---------------
     7      0.276111  1 O  py                10      0.276364  1 O  py         
     6     -0.185236  1 O  px                 9     -0.185406  1 O  px         
    13      0.160188  1 O  py                62      0.157534  2 C  py         
    65      0.133699  2 C  py                12     -0.107466  1 O  px         
    61     -0.105686  2 C  px                64     -0.089696  2 C  px         

 Vector    7  Occ=2.000000D+00  E=-3.887643D-01
              MO Center=  7.4D-15,  7.9D-15,  1.4D+00, r^2= 1.1D+00
   Bfn.  Coefficient  Atom+Function         Bfn.  Coefficient  Atom+Function  
  ----- ------------  ---------------      ----- ------------  ---------------
    59      0.341651  2 C  s                 57      0.324948  2 C  s          
    66      0.271816  2 C  pz                63      0.265329  2 C  pz         
     8     -0.172932  1 O  pz                11     -0.161668  1 O  pz         
     4      0.093866  1 O  s                 58      0.076467  2 C  s          
    69      0.069824  2 C  pz               103      0.054738  2 C  fxxz       

 Vector    8  Occ=0.000000D+00  E=-4.899018D-02
              MO Center= -1.4D-16, -2.8D-15,  1.0D+00, r^2= 2.1D+00
   Bfn.  Coefficient  Atom+Function         Bfn.  Coefficient  Atom+Function  
  ----- ------------  ---------------      ----- ------------  ---------------
    67      0.380623  2 C  px                64      0.268473  2 C  px         
    68      0.259383  2 C  py                70      0.252157  2 C  px         
    61      0.247607  2 C  px                12     -0.215297  1 O  px         
     9     -0.200552  1 O  px                15     -0.194133  1 O  px         
     6     -0.188432  1 O  px                65      0.182956  2 C  py         

 Vector    9  Occ=0.000000D+00  E=-4.899018D-02
              MO Center=  2.4D-15,  4.9D-17,  1.0D+00, r^2= 2.1D+00
   Bfn.  Coefficient  Atom+Function         Bfn.  Coefficient  Atom+Function  
  ----- ------------  ---------------      ----- ------------  ---------------
    68      0.380623  2 C  py                65      0.268473  2 C  py         
    67     -0.259383  2 C  px                71      0.252157  2 C  py         
    62      0.247607  2 C  py                13     -0.215297  1 O  py         
    10     -0.200552  1 O  py                16     -0.194133  1 O  py         
     7     -0.188432  1 O  py                64     -0.182956  2 C  px         

 Vector   10  Occ=0.000000D+00  E= 1.902463D-02
              MO Center=  8.8D-14, -1.2D-13,  9.4D-02, r^2= 9.7D+00
   Bfn.  Coefficient  Atom+Function         Bfn.  Coefficient  Atom+Function  
  ----- ------------  ---------------      ----- ------------  ---------------
    60      3.571032  2 C  s                  5     -1.869295  1 O  s          
    59      1.185689  2 C  s                  4     -0.991869  1 O  s          
    69     -0.648192  2 C  pz                14     -0.643230  1 O  pz         
    85     -0.587360  2 C  dxx               88     -0.587360  2 C  dyy        
    72     -0.575809  2 C  pz                90     -0.450122  2 C  dzz        

 Vector   11  Occ=0.000000D+00  E= 3.879830D-02
              MO Center=  1.1D-14, -7.2D-14,  2.2D+00, r^2= 1.2D+01
   Bfn.  Coefficient  Atom+Function         Bfn.  Coefficient  Atom+Function  
  ----- ------------  ---------------      ----- ------------  ---------------
     5      3.352285  1 O  s                 72      1.469297  2 C  pz         
    59     -1.302415  2 C  s                 90     -1.154766  2 C  dzz        
    69      0.977723  2 C  pz                85     -0.794097  2 C  dxx        
    88     -0.794097  2 C  dyy               17      0.673818  1 O  pz         
    60      0.676885  2 C  s                 66     -0.247385  2 C  pz         

 Vector   12  Occ=0.000000D+00  E= 5.098381D-02
              MO Center= -1.3D-13,  1.8D-13,  1.1D+00, r^2= 1.2D+01
   Bfn.  Coefficient  Atom+Function         Bfn.  Coefficient  Atom+Function  
  ----- ------------  ---------------      ----- ------------  ---------------
    71      1.080654  2 C  py                70     -0.771472  2 C  px         
    68     -0.463694  2 C  py                67      0.331028  2 C  px         
   109      0.222444  2 C  fyzz              89     -0.208770  2 C  dyz        
    16     -0.166776  1 O  py               106     -0.158802  2 C  fxzz       
    87      0.149039  2 C  dxz               34     -0.144658  1 O  dyz        

 Vector   13  Occ=0.000000D+00  E= 5.098381D-02
              MO Center=  4.4D-14,  2.9D-14,  1.1D+00, r^2= 1.2D+01
   Bfn.  Coefficient  Atom+Function         Bfn.  Coefficient  Atom+Function  
  ----- ------------  ---------------      ----- ------------  ---------------
    70      1.080654  2 C  px                71      0.771472  2 C  py         
    67     -0.463694  2 C  px                68     -0.331028  2 C  py         
   106      0.222444  2 C  fxzz              87     -0.208770  2 C  dxz        
    15     -0.166776  1 O  px               109      0.158802  2 C  fyzz       
    89     -0.149039  2 C  dyz               32     -0.144658  1 O  dxz        

 Vector   14  Occ=0.000000D+00  E= 1.096679D-01
              MO Center= -3.8D-15, -1.5D-14, -4.7D-01, r^2= 9.7D+00
   Bfn.  Coefficient  Atom+Function         Bfn.  Coefficient  Atom+Function  
  ----- ------------  ---------------      ----- ------------  ---------------
     5      5.808115  1 O  s                 59     -4.793928  2 C  s          
    17      3.599728  1 O  pz                69      2.696114  2 C  pz         
    90     -1.799785  2 C  dzz               85     -1.347135  2 C  dxx        
    88     -1.347135  2 C  dyy               72     -0.737197  2 C  pz         
   110     -0.707838  2 C  fzzz             103     -0.517870  2 C  fxxz       

 Vector   15  Occ=0.000000D+00  E= 1.365096D-01
              MO Center= -5.1D-15,  6.3D-15,  9.4D-02, r^2= 1.1D+01
   Bfn.  Coefficient  Atom+Function         Bfn.  Coefficient  Atom+Function  
  ----- ------------  ---------------      ----- ------------  ---------------
    16      2.239436  1 O  py                15     -1.559487  1 O  px         
    71     -1.363930  2 C  py                70      0.949807  2 C  px         
    68     -0.808941  2 C  py                89      0.693899  2 C  dyz        
    67      0.563326  2 C  px                87     -0.483214  2 C  dxz        
    34      0.411722  1 O  dyz               32     -0.286713  1 O  dxz        

 Vector   16  Occ=0.000000D+00  E= 1.365096D-01
              MO Center= -7.8D-15, -9.4D-15,  9.4D-02, r^2= 1.1D+01
   Bfn.  Coefficient  Atom+Function         Bfn.  Coefficient  Atom+Function  
  ----- ------------  ---------------      ----- ------------  ---------------
    15      2.239436  1 O  px                16      1.559487  1 O  py         
    70     -1.363930  2 C  px                71     -0.949807  2 C  py         
    67     -0.808941  2 C  px                87      0.693899  2 C  dxz        
    68     -0.563326  2 C  py                89      0.483214  2 C  dyz        
    32      0.411722  1 O  dxz               34      0.286713  1 O  dyz        

 Vector   17  Occ=0.000000D+00  E= 1.859330D-01
              MO Center=  1.8D-14, -1.9D-14,  1.1D-01, r^2= 1.1D+01
   Bfn.  Coefficient  Atom+Function         Bfn.  Coefficient  Atom+Function  
  ----- ------------  ---------------      ----- ------------  ---------------
     5      9.510344  1 O  s                 60     -4.754060  2 C  s          
    59     -4.491776  2 C  s                 72      2.152580  2 C  pz         
    69      2.130881  2 C  pz                 4      1.647758  1 O  s          
    90     -1.196324  2 C  dzz               14      1.079422  1 O  pz         
    17      0.568672  1 O  pz                85      0.358545  2 C  dxx        

 Vector   18  Occ=0.000000D+00  E= 2.069431D-01
              MO Center=  8.9D-18,  2.4D-15,  1.1D+00, r^2= 5.0D+00
   Bfn.  Coefficient  Atom+Function         Bfn.  Coefficient  Atom+Function  
  ----- ------------  ---------------      ----- ------------  ---------------
    86      1.793818  2 C  dxy              105     -0.173511  2 C  fxyz       
    31     -0.078810  1 O  dxy               80     -0.064146  2 C  dxy        
    74      0.058061  2 C  dxy               25      0.055674  1 O  dxy        

 Vector   19  Occ=0.000000D+00  E= 2.069432D-01
              MO Center= -2.4D-14, -2.6D-14,  1.1D+00, r^2= 5.0D+00
   Bfn.  Coefficient  Atom+Function         Bfn.  Coefficient  Atom+Function  
  ----- ------------  ---------------      ----- ------------  ---------------
    85      0.896908  2 C  dxx               88     -0.896908  2 C  dyy        
   103     -0.086752  2 C  fxxz             108      0.086752  2 C  fyyz       
    30     -0.039404  1 O  dxx               33      0.039404  1 O  dyy        
    79     -0.032072  2 C  dxx               82      0.032072  2 C  dyy        
    73      0.029030  2 C  dxx               76     -0.029030  2 C  dyy        

 Vector   20  Occ=0.000000D+00  E= 2.263099D-01
              MO Center=  1.2D-13, -1.6D-14,  2.2D+00, r^2= 9.0D+00
   Bfn.  Coefficient  Atom+Function         Bfn.  Coefficient  Atom+Function  
  ----- ------------  ---------------      ----- ------------  ---------------
     5      6.466944  1 O  s                 60      4.452499  2 C  s          
    90     -4.212851  2 C  dzz               85     -3.517318  2 C  dxx        
    88     -3.517318  2 C  dyy               69      2.106474  2 C  pz         
     4     -1.935461  1 O  s                 14     -1.743102  1 O  pz         
    17      1.729860  1 O  pz                66     -0.898445  2 C  pz         

 Vector   21  Occ=0.000000D+00  E= 2.876595D-01
              MO Center=  4.5D-12, -9.5D-13,  6.9D-01, r^2= 8.1D+00
   Bfn.  Coefficient  Atom+Function         Bfn.  Coefficient  Atom+Function  
  ----- ------------  ---------------      ----- ------------  ---------------
     5      8.285344  1 O  s                  4     -3.932559  1 O  s          
    17      3.541284  1 O  pz                85     -2.650481  2 C  dxx        
    88     -2.650481  2 C  dyy               14     -1.454967  1 O  pz         
    35     -1.432780  1 O  dzz              110     -1.107056  2 C  fzzz       
    30     -1.071501  1 O  dxx               33     -1.071501  1 O  dyy        

 Vector   22  Occ=0.000000D+00  E= 2.880283D-01
              MO Center= -2.8D-12, -1.8D-12,  2.0D+00, r^2= 6.2D+00
   Bfn.  Coefficient  Atom+Function         Bfn.  Coefficient  Atom+Function  
  ----- ------------  ---------------      ----- ------------  ---------------
    87      2.304641  2 C  dxz               89      1.493635  2 C  dyz        
    12      1.342585  1 O  px               106     -1.143817  2 C  fxzz       
    70     -1.095637  2 C  px                15      1.006031  1 O  px         
    67      0.952105  2 C  px                13      0.870128  1 O  py         
   109     -0.741307  2 C  fyzz              71     -0.710081  2 C  py         

 Vector   23  Occ=0.000000D+00  E= 2.880283D-01
              MO Center= -1.8D-12,  2.9D-12,  2.0D+00, r^2= 6.2D+00
   Bfn.  Coefficient  Atom+Function         Bfn.  Coefficient  Atom+Function  
  ----- ------------  ---------------      ----- ------------  ---------------
    89      2.304641  2 C  dyz               87     -1.493635  2 C  dxz        
    13      1.342585  1 O  py               109     -1.143817  2 C  fyzz       
    71     -1.095637  2 C  py                16      1.006031  1 O  py         
    68      0.952105  2 C  py                12     -0.870128  1 O  px         
   106      0.741307  2 C  fxzz              70      0.710081  2 C  px         

 Vector   24  Occ=0.000000D+00  E= 3.471929D-01
              MO Center=  1.0D-14,  9.4D-15,  4.0D-01, r^2= 6.6D+00
   Bfn.  Coefficient  Atom+Function         Bfn.  Coefficient  Atom+Function  
  ----- ------------  ---------------      ----- ------------  ---------------
    67      3.645875  2 C  px                87     -2.743369  2 C  dxz        
    68      2.333334  2 C  py                15     -1.845334  1 O  px         
    89     -1.755736  2 C  dyz               12     -1.502289  1 O  px         
    16     -1.181000  1 O  py                13     -0.961454  1 O  py         
   101     -0.778620  2 C  fxxx             104     -0.778621  2 C  fxyy       

 Vector   25  Occ=0.000000D+00  E= 3.471929D-01
              MO Center=  8.2D-15, -2.0D-14,  4.0D-01, r^2= 6.6D+00
   Bfn.  Coefficient  Atom+Function         Bfn.  Coefficient  Atom+Function  
  ----- ------------  ---------------      ----- ------------  ---------------
    68      3.645875  2 C  py                89     -2.743369  2 C  dyz        
    67     -2.333334  2 C  px                16     -1.845334  1 O  py         
    87      1.755736  2 C  dxz               13     -1.502289  1 O  py         
    15      1.181000  1 O  px                12      0.961454  1 O  px         
   102     -0.778621  2 C  fxxy             107     -0.778620  2 C  fyyy       

 Vector   26  Occ=0.000000D+00  E= 3.998521D-01
              MO Center=  9.8D-14, -8.7D-14,  5.4D-01, r^2= 7.5D+00
   Bfn.  Coefficient  Atom+Function         Bfn.  Coefficient  Atom+Function  
  ----- ------------  ---------------      ----- ------------  ---------------
    59     15.761851  2 C  s                  5    -12.977460  1 O  s          
    69    -11.635941  2 C  pz                90      4.650631  2 C  dzz        
     4     -4.625629  1 O  s                 14     -3.800055  1 O  pz         
    35     -2.908188  1 O  dzz               17     -2.826410  1 O  pz         
    60      2.329693  2 C  s                 30     -1.877778  1 O  dxx        

 Vector   27  Occ=0.000000D+00  E= 5.197574D-01
              MO Center= -1.0D-15,  7.9D-15,  4.9D-01, r^2= 4.6D+00
   Bfn.  Coefficient  Atom+Function         Bfn.  Coefficient  Atom+Function  
  ----- ------------  ---------------      ----- ------------  ---------------
     4      4.865061  1 O  s                  5      3.043109  1 O  s          
    59     -2.345008  2 C  s                 60     -2.165656  2 C  s          
   110      1.848293  2 C  fzzz              66      1.585082  2 C  pz         
    14      1.470482  1 O  pz                35     -1.386730  1 O  dzz        
    72      1.199759  2 C  pz                17     -1.127568  1 O  pz         

 Vector   28  Occ=0.000000D+00  E= 5.776357D-01
              MO Center= -6.8D-14,  6.3D-15,  2.2D-01, r^2= 3.4D+00
   Bfn.  Coefficient  Atom+Function         Bfn.  Coefficient  Atom+Function  
  ----- ------------  ---------------      ----- ------------  ---------------
    30      1.164736  1 O  dxx               33     -1.164736  1 O  dyy        
    85     -0.664273  2 C  dxx               88      0.664273  2 C  dyy        
   103      0.226364  2 C  fxxz             108     -0.226364  2 C  fyyz       
    48      0.123441  1 O  fxxz              53     -0.123441  1 O  fyyz       
    24     -0.058015  1 O  dxx               27      0.058015  1 O  dyy        

 Vector   29  Occ=0.000000D+00  E= 5.776358D-01
              MO Center=  6.6D-14,  5.1D-16,  2.2D-01, r^2= 3.4D+00
   Bfn.  Coefficient  Atom+Function         Bfn.  Coefficient  Atom+Function  
  ----- ------------  ---------------      ----- ------------  ---------------
    31      2.329472  1 O  dxy               86     -1.328548  2 C  dxy        
   105      0.452731  2 C  fxyz              50      0.246881  1 O  fxyz       
    25     -0.116029  1 O  dxy               19      0.066459  1 O  dxy        
    95     -0.044662  2 C  fxyz              40     -0.034451  1 O  fxyz       
    74      0.033977  2 C  dxy        

 Vector   30  Occ=0.000000D+00  E= 5.893199D-01
              MO Center=  1.1D-14,  2.0D-14, -4.5D-01, r^2= 4.2D+00
   Bfn.  Coefficient  Atom+Function         Bfn.  Coefficient  Atom+Function  
  ----- ------------  ---------------      ----- ------------  ---------------
    34      2.555820  1 O  dyz               32     -1.745578  1 O  dxz        
   109     -1.445359  2 C  fyzz              16      1.420265  1 O  py         
    83      1.187152  2 C  dyz               54      1.115556  1 O  fyzz       
   106      0.987153  2 C  fxzz              15     -0.970015  1 O  px         
    65     -0.970865  2 C  py                81     -0.810803  2 C  dxz        

 Vector   31  Occ=0.000000D+00  E= 5.893199D-01
              MO Center=  7.9D-14, -4.1D-14, -4.5D-01, r^2= 4.2D+00
   Bfn.  Coefficient  Atom+Function         Bfn.  Coefficient  Atom+Function  
  ----- ------------  ---------------      ----- ------------  ---------------
    32      2.555820  1 O  dxz               34      1.745578  1 O  dyz        
   106     -1.445359  2 C  fxzz              15      1.420265  1 O  px         
    81      1.187152  2 C  dxz               51      1.115556  1 O  fxzz       
   109     -0.987153  2 C  fyzz              16      0.970015  1 O  py         
    64     -0.970865  2 C  px                83      0.810803  2 C  dyz        

 Vector   32  Occ=0.000000D+00  E= 6.343805D-01
              MO Center=  7.8D-16,  2.8D-14,  1.6D+00, r^2= 6.9D+00
   Bfn.  Coefficient  Atom+Function         Bfn.  Coefficient  Atom+Function  
  ----- ------------  ---------------      ----- ------------  ---------------
     5     11.391155  1 O  s                 59      8.439045  2 C  s          
     4     -7.266486  1 O  s                 69      6.847846  2 C  pz         
    90     -6.265579  2 C  dzz               14     -5.362181  1 O  pz         
    85     -5.285236  2 C  dxx               88     -5.285236  2 C  dyy        
    66     -3.772582  2 C  pz                60      3.423179  2 C  s          

 Vector   33  Occ=0.000000D+00  E= 6.951476D-01
              MO Center=  2.3D-13, -1.4D-13, -1.7D-01, r^2= 4.8D+00
   Bfn.  Coefficient  Atom+Function         Bfn.  Coefficient  Atom+Function  
  ----- ------------  ---------------      ----- ------------  ---------------
     5      9.850973  1 O  s                 35     -3.499464  1 O  dzz        
    60     -3.289590  2 C  s                 30     -3.114806  1 O  dxx        
    33     -3.114806  1 O  dyy               14     -1.484981  1 O  pz         
    17      1.344642  1 O  pz                79      0.897989  2 C  dxx        
    82      0.897989  2 C  dyy               72      0.856173  2 C  pz         

 Vector   34  Occ=0.000000D+00  E= 7.785480D-01
              MO Center= -8.0D-14,  3.8D-13,  1.2D+00, r^2= 4.1D+00
   Bfn.  Coefficient  Atom+Function         Bfn.  Coefficient  Atom+Function  
  ----- ------------  ---------------      ----- ------------  ---------------
    13      5.887402  1 O  py                34      3.863557  1 O  dyz        
    89      3.436042  2 C  dyz              109     -2.916729  2 C  fyzz       
    68     -1.353390  2 C  py                83      1.311948  2 C  dyz        
    65     -1.208797  2 C  py                16      1.156347  1 O  py         
   102     -1.160801  2 C  fxxy             107     -1.160806  2 C  fyyy       

 Vector   35  Occ=0.000000D+00  E= 7.785480D-01
              MO Center= -4.9D-13, -7.3D-14,  1.2D+00, r^2= 4.1D+00
   Bfn.  Coefficient  Atom+Function         Bfn.  Coefficient  Atom+Function  
  ----- ------------  ---------------      ----- ------------  ---------------
    12      5.887402  1 O  px                32      3.863557  1 O  dxz        
    87      3.436042  2 C  dxz              106     -2.916729  2 C  fxzz       
    67     -1.353390  2 C  px                81      1.311948  2 C  dxz        
    64     -1.208797  2 C  px                15      1.156347  1 O  px         
   101     -1.160806  2 C  fxxx             104     -1.160801  2 C  fxyy       

 Vector   36  Occ=0.000000D+00  E= 8.621303D-01
              MO Center=  5.0D-14,  3.0D-15,  1.1D+00, r^2= 2.3D+00
   Bfn.  Coefficient  Atom+Function         Bfn.  Coefficient  Atom+Function  
  ----- ------------  ---------------      ----- ------------  ---------------
    80      2.065825  2 C  dxy               86     -0.894395  2 C  dxy        
   105      0.856376  2 C  fxyz              31     -0.487774  1 O  dxy        
    95     -0.155112  2 C  fxyz              25      0.101186  1 O  dxy        

 Vector   37  Occ=0.000000D+00  E= 8.621306D-01
              MO Center=  2.0D-14, -2.7D-14,  1.1D+00, r^2= 2.3D+00
   Bfn.  Coefficient  Atom+Function         Bfn.  Coefficient  Atom+Function  
  ----- ------------  ---------------      ----- ------------  ---------------
    79      1.032914  2 C  dxx               82     -1.032914  2 C  dyy        
    85     -0.447198  2 C  dxx               88      0.447198  2 C  dyy        
   103      0.428180  2 C  fxxz             108     -0.428180  2 C  fyyz       
    30     -0.243889  1 O  dxx               33      0.243889  1 O  dyy        
    93     -0.077555  2 C  fxxz              98      0.077555  2 C  fyyz       

 Vector   38  Occ=0.000000D+00  E= 8.901061D-01
              MO Center=  9.2D-15,  4.5D-14,  6.0D-01, r^2= 4.8D+00
   Bfn.  Coefficient  Atom+Function         Bfn.  Coefficient  Atom+Function  
  ----- ------------  ---------------      ----- ------------  ---------------
    59     23.161392  2 C  s                 69    -13.008717  2 C  pz         
    14    -10.548569  1 O  pz                 4     -9.803926  1 O  s          
     5     -8.748234  1 O  s                 35     -4.362549  1 O  dzz        
    30     -4.067554  1 O  dxx               33     -4.067554  1 O  dyy        
    90      3.166498  2 C  dzz               60      2.421466  2 C  s          

 Vector   39  Occ=0.000000D+00  E= 9.179277D-01
              MO Center= -4.3D-15, -5.0D-15,  1.1D+00, r^2= 2.5D+00
   Bfn.  Coefficient  Atom+Function         Bfn.  Coefficient  Atom+Function  
  ----- ------------  ---------------      ----- ------------  ---------------
   104      2.441882  2 C  fxyy             101     -0.813994  2 C  fxxx       
   102      0.539870  2 C  fxxy              94     -0.265619  2 C  fxyy       
   107     -0.179964  2 C  fyyy              91      0.088536  2 C  fxxx       
    92     -0.058725  2 C  fxxy              49      0.029823  1 O  fxyy       

 Vector   40  Occ=0.000000D+00  E= 9.179277D-01
              MO Center= -6.1D-15,  4.0D-14,  1.1D+00, r^2= 2.5D+00
   Bfn.  Coefficient  Atom+Function         Bfn.  Coefficient  Atom+Function  
  ----- ------------  ---------------      ----- ------------  ---------------
   102      2.441882  2 C  fxxy             107     -0.813994  2 C  fyyy       
   104     -0.539870  2 C  fxyy              92     -0.265619  2 C  fxxy       
   101      0.179964  2 C  fxxx              97      0.088536  2 C  fyyy       
    94      0.058725  2 C  fxyy              47      0.029823  1 O  fxxy       

 Vector   41  Occ=0.000000D+00  E= 9.530165D-01
              MO Center=  6.7D-14,  2.8D-15,  9.4D-01, r^2= 3.9D+00
   Bfn.  Coefficient  Atom+Function         Bfn.  Coefficient  Atom+Function  
  ----- ------------  ---------------      ----- ------------  ---------------
    67      4.704404  2 C  px               106     -2.308155  2 C  fxzz       
   101     -2.123832  2 C  fxxx             104     -2.123855  2 C  fxyy       
    12     -1.933306  1 O  px                32     -1.604103  1 O  dxz        
    87     -1.043323  2 C  dxz               15     -0.730315  1 O  px         
    81     -0.681707  2 C  dxz               64      0.675953  2 C  px         

 Vector   42  Occ=0.000000D+00  E= 9.530165D-01
              MO Center= -3.0D-14, -1.2D-13,  9.4D-01, r^2= 3.9D+00
   Bfn.  Coefficient  Atom+Function         Bfn.  Coefficient  Atom+Function  
  ----- ------------  ---------------      ----- ------------  ---------------
    68      4.704404  2 C  py               109     -2.308155  2 C  fyzz       
   102     -2.123855  2 C  fxxy             107     -2.123832  2 C  fyyy       
    13     -1.933306  1 O  py                34     -1.604103  1 O  dyz        
    89     -1.043323  2 C  dyz               16     -0.730315  1 O  py         
    83     -0.681707  2 C  dyz               65      0.675953  2 C  py         

 Vector   43  Occ=0.000000D+00  E= 9.678588D-01
              MO Center=  7.8D-14, -1.1D-13,  1.3D+00, r^2= 3.9D+00
   Bfn.  Coefficient  Atom+Function         Bfn.  Coefficient  Atom+Function  
  ----- ------------  ---------------      ----- ------------  ---------------
     4      8.742326  1 O  s                  5     -5.693765  1 O  s          
   110      5.526083  2 C  fzzz              69     -4.960842  2 C  pz         
    84     -2.779334  2 C  dzz              103      2.729480  2 C  fxxz       
   108      2.729480  2 C  fyyz              66      2.635589  2 C  pz         
    17     -2.312007  1 O  pz                85      1.969149  2 C  dxx        

 Vector   44  Occ=0.000000D+00  E= 1.062046D+00
              MO Center= -3.1D-14, -4.4D-14,  1.1D+00, r^2= 3.1D+00
   Bfn.  Coefficient  Atom+Function         Bfn.  Coefficient  Atom+Function  
  ----- ------------  ---------------      ----- ------------  ---------------
    34      2.177669  1 O  dyz              102     -1.532245  2 C  fxxy       
   107     -1.532229  2 C  fyyy              13      1.509713  1 O  py         
    83      1.517186  2 C  dyz               32      1.416201  1 O  dxz        
   109      1.103821  2 C  fyzz             101     -0.996453  2 C  fxxx       
   104     -0.996463  2 C  fxyy              12      0.981810  1 O  px         

 Vector   45  Occ=0.000000D+00  E= 1.062046D+00
              MO Center=  9.1D-14, -6.2D-14,  1.1D+00, r^2= 3.1D+00
   Bfn.  Coefficient  Atom+Function         Bfn.  Coefficient  Atom+Function  
  ----- ------------  ---------------      ----- ------------  ---------------
    32      2.177669  1 O  dxz              101     -1.532229  2 C  fxxx       
   104     -1.532245  2 C  fxyy              12      1.509713  1 O  px         
    81      1.517186  2 C  dxz               34     -1.416201  1 O  dyz        
   106      1.103821  2 C  fxzz             102      0.996463  2 C  fxxy       
   107      0.996453  2 C  fyyy              13     -0.981810  1 O  py         

 Vector   46  Occ=0.000000D+00  E= 1.104107D+00
              MO Center=  1.2D-13, -5.5D-14,  8.8D-01, r^2= 3.7D+00
   Bfn.  Coefficient  Atom+Function         Bfn.  Coefficient  Atom+Function  
  ----- ------------  ---------------      ----- ------------  ---------------
     5      7.823332  1 O  s                 69      7.554094  2 C  pz         
    59     -7.247634  2 C  s                103     -3.343729  2 C  fxxz       
   108     -3.343729  2 C  fyyz              90     -2.938580  2 C  dzz        
    14      2.728766  1 O  pz                35      2.235474  1 O  dzz        
    17      1.505257  1 O  pz                66     -1.309190  2 C  pz         

 Vector   47  Occ=0.000000D+00  E= 1.110193D+00
              MO Center= -9.1D-15,  5.9D-15,  1.1D+00, r^2= 3.1D+00
   Bfn.  Coefficient  Atom+Function         Bfn.  Coefficient  Atom+Function  
  ----- ------------  ---------------      ----- ------------  ---------------
   105      6.027134  2 C  fxyz              31      2.448802  1 O  dxy        
    80     -1.106891  2 C  dxy               86     -0.717411  2 C  dxy        
    50      0.626847  1 O  fxyz              95     -0.360458  2 C  fxyz       
    40     -0.129442  1 O  fxyz              25     -0.067030  1 O  dxy        

 Vector   48  Occ=0.000000D+00  E= 1.110194D+00
              MO Center=  6.9D-16,  1.9D-16,  1.1D+00, r^2= 3.1D+00
   Bfn.  Coefficient  Atom+Function         Bfn.  Coefficient  Atom+Function  
  ----- ------------  ---------------      ----- ------------  ---------------
   103      3.013568  2 C  fxxz             108     -3.013568  2 C  fyyz       
    30      1.224401  1 O  dxx               33     -1.224401  1 O  dyy        
    79     -0.553443  2 C  dxx               82      0.553443  2 C  dyy        
    85     -0.358708  2 C  dxx               88      0.358708  2 C  dyy        
    48      0.313423  1 O  fxxz              53     -0.313423  1 O  fyyz       

 Vector   49  Occ=0.000000D+00  E= 1.380254D+00
              MO Center= -1.5D-13, -6.6D-15,  7.0D-01, r^2= 3.5D+00
   Bfn.  Coefficient  Atom+Function         Bfn.  Coefficient  Atom+Function  
  ----- ------------  ---------------      ----- ------------  ---------------
   106     -6.462939  2 C  fxzz              81      6.286753  2 C  dxz        
    32      5.592915  1 O  dxz               12      5.252574  1 O  px         
    87      2.640676  2 C  dxz               64     -2.478858  2 C  px         
    51      2.013662  1 O  fxzz              67     -1.584285  2 C  px         
    15      1.409430  1 O  px               101     -0.890393  2 C  fxxx       

 Vector   50  Occ=0.000000D+00  E= 1.380254D+00
              MO Center= -6.9D-15,  1.2D-13,  7.0D-01, r^2= 3.5D+00
   Bfn.  Coefficient  Atom+Function         Bfn.  Coefficient  Atom+Function  
  ----- ------------  ---------------      ----- ------------  ---------------
   109     -6.462939  2 C  fyzz              83      6.286753  2 C  dyz        
    34      5.592915  1 O  dyz               13      5.252574  1 O  py         
    89      2.640676  2 C  dyz               65     -2.478858  2 C  py         
    54      2.013662  1 O  fyzz              68     -1.584285  2 C  py         
    16      1.409430  1 O  py               102     -0.890393  2 C  fxxy       

 Vector   51  Occ=0.000000D+00  E= 1.428177D+00
              MO Center= -1.4D-13,  1.4D-13,  1.3D+00, r^2= 4.2D+00
   Bfn.  Coefficient  Atom+Function         Bfn.  Coefficient  Atom+Function  
  ----- ------------  ---------------      ----- ------------  ---------------
    59    -20.012633  2 C  s                 14     19.573563  1 O  pz         
    35     11.475398  1 O  dzz                5     -7.699214  1 O  s          
    84      6.973482  2 C  dzz              103      5.813505  2 C  fxxz       
   108      5.813505  2 C  fyyz              30      4.980558  1 O  dxx        
    33      4.980558  1 O  dyy               11     -4.521730  1 O  pz         

 Vector   52  Occ=0.000000D+00  E= 1.509854D+00
              MO Center= -4.8D-14, -1.2D-13,  8.5D-01, r^2= 3.9D+00
   Bfn.  Coefficient  Atom+Function         Bfn.  Coefficient  Atom+Function  
  ----- ------------  ---------------      ----- ------------  ---------------
     4     11.293496  1 O  s                 14    -11.276525  1 O  pz         
    35     -7.780151  1 O  dzz               69     -6.723818  2 C  pz         
    66      6.637781  2 C  pz                79      6.148216  2 C  dxx        
    82      6.148216  2 C  dyy              110      5.218986  2 C  fzzz       
    30     -4.554174  1 O  dxx               33     -4.554174  1 O  dyy        

 Vector   53  Occ=0.000000D+00  E= 1.801080D+00
              MO Center= -1.0D-14,  2.6D-13,  5.2D-02, r^2= 2.4D+00
   Bfn.  Coefficient  Atom+Function         Bfn.  Coefficient  Atom+Function  
  ----- ------------  ---------------      ----- ------------  ---------------
    13      5.243603  1 O  py                54     -3.057122  1 O  fyzz       
    47     -2.302676  1 O  fxxy              52     -2.302676  1 O  fyyy       
    89      1.365818  2 C  dyz              109     -1.338004  2 C  fyzz       
    68     -1.063287  2 C  py                34      0.680003  1 O  dyz        
    83      0.480333  2 C  dyz               65      0.300194  2 C  py         

 Vector   54  Occ=0.000000D+00  E= 1.801080D+00
              MO Center= -1.6D-13, -9.4D-14,  5.2D-02, r^2= 2.4D+00
   Bfn.  Coefficient  Atom+Function         Bfn.  Coefficient  Atom+Function  
  ----- ------------  ---------------      ----- ------------  ---------------
    12      5.243603  1 O  px                51     -3.057122  1 O  fxzz       
    46     -2.302676  1 O  fxxx              49     -2.302676  1 O  fxyy       
    87      1.365818  2 C  dxz              106     -1.338004  2 C  fxzz       
    67     -1.063287  2 C  px                32      0.680003  1 O  dxz        
    81      0.480333  2 C  dxz               64      0.300194  2 C  px         

 Vector   55  Occ=0.000000D+00  E= 1.863657D+00
              MO Center=  4.3D-14, -3.5D-15, -6.1D-01, r^2= 2.2D+00
   Bfn.  Coefficient  Atom+Function         Bfn.  Coefficient  Atom+Function  
  ----- ------------  ---------------      ----- ------------  ---------------
    59     13.899002  2 C  s                 14    -12.141506  1 O  pz         
     4     -9.693071  1 O  s                  5     -6.916713  1 O  s          
    69     -5.018438  2 C  pz                55      4.535007  1 O  fzzz       
    48      2.987683  1 O  fxxz              53      2.987683  1 O  fyyz       
    35     -2.390619  1 O  dzz               60      2.287127  2 C  s          

 Vector   56  Occ=0.000000D+00  E= 1.892850D+00
              MO Center= -6.2D-14, -1.1D-13,  5.7D-02, r^2= 1.4D+00
   Bfn.  Coefficient  Atom+Function         Bfn.  Coefficient  Atom+Function  
  ----- ------------  ---------------      ----- ------------  ---------------
    24      1.072273  1 O  dxx               27     -1.072273  1 O  dyy        
    30     -0.664016  1 O  dxx               33      0.664016  1 O  dyy        
    48     -0.381647  1 O  fxxz              53      0.381647  1 O  fyyz       
   103      0.319211  2 C  fxxz             108     -0.319211  2 C  fyyz       
    85      0.241701  2 C  dxx               88     -0.241701  2 C  dyy        

 Vector   57  Occ=0.000000D+00  E= 1.892851D+00
              MO Center=  3.9D-13, -7.2D-13,  5.7D-02, r^2= 1.4D+00
   Bfn.  Coefficient  Atom+Function         Bfn.  Coefficient  Atom+Function  
  ----- ------------  ---------------      ----- ------------  ---------------
    25      2.144545  1 O  dxy               31     -1.328032  1 O  dxy        
    50     -0.763290  1 O  fxyz             105      0.638423  2 C  fxyz       
    86      0.483402  2 C  dxy               95     -0.466041  2 C  fxyz       
    80     -0.198617  2 C  dxy               40      0.119022  1 O  fxyz       
    74      0.046066  2 C  dxy               19      0.028849  1 O  dxy        

 Vector   58  Occ=0.000000D+00  E= 1.894434D+00
              MO Center=  1.4D-13,  2.0D-13,  6.0D-02, r^2= 1.6D+00
   Bfn.  Coefficient  Atom+Function         Bfn.  Coefficient  Atom+Function  
  ----- ------------  ---------------      ----- ------------  ---------------
    47      2.056330  1 O  fxxy              49      1.730501  1 O  fxyy       
   102     -0.745049  2 C  fxxy              52     -0.685442  1 O  fyyy       
   104     -0.626995  2 C  fxyy              46     -0.576833  1 O  fxxx       
   107      0.248350  2 C  fyyy              37     -0.211182  1 O  fxxy       
   101      0.208998  2 C  fxxx              39     -0.177720  1 O  fxyy       

 Vector   59  Occ=0.000000D+00  E= 1.894434D+00
              MO Center= -4.6D-13,  7.3D-13,  6.0D-02, r^2= 1.6D+00
   Bfn.  Coefficient  Atom+Function         Bfn.  Coefficient  Atom+Function  
  ----- ------------  ---------------      ----- ------------  ---------------
    49      2.056330  1 O  fxyy              47     -1.730501  1 O  fxxy       
   104     -0.745049  2 C  fxyy              46     -0.685442  1 O  fxxx       
   102      0.626995  2 C  fxxy              52      0.576833  1 O  fyyy       
   101      0.248350  2 C  fxxx              39     -0.211182  1 O  fxyy       
   107     -0.208998  2 C  fyyy              37      0.177720  1 O  fxxy       

 Vector   60  Occ=0.000000D+00  E= 2.090125D+00
              MO Center=  7.7D-14, -3.7D-14,  1.1D+00, r^2= 3.0D+00
   Bfn.  Coefficient  Atom+Function         Bfn.  Coefficient  Atom+Function  
  ----- ------------  ---------------      ----- ------------  ---------------
     4      8.522514  1 O  s                  5     -8.142356  1 O  s          
    14      7.414938  1 O  pz               110      6.226852  2 C  fzzz       
    69     -6.162022  2 C  pz               103      6.004305  2 C  fxxz       
   108      6.004305  2 C  fyyz              84     -5.169470  2 C  dzz        
    35      3.606808  1 O  dzz               79     -3.329046  2 C  dxx        

 Vector   61  Occ=0.000000D+00  E= 2.211974D+00
              MO Center= -1.8D-14, -2.1D-15,  1.6D-01, r^2= 2.0D+00
   Bfn.  Coefficient  Atom+Function         Bfn.  Coefficient  Atom+Function  
  ----- ------------  ---------------      ----- ------------  ---------------
   109      1.960421  2 C  fyzz              13      1.905395  1 O  py         
    34      1.872944  1 O  dyz               47     -1.530817  1 O  fxxy       
    52     -1.530818  1 O  fyyy             106     -1.484044  2 C  fxzz       
    12     -1.442389  1 O  px                32     -1.417824  1 O  dxz        
    54      1.383786  1 O  fyzz              68     -1.207046  2 C  py         

 Vector   62  Occ=0.000000D+00  E= 2.211974D+00
              MO Center=  3.0D-14,  3.5D-14,  1.6D-01, r^2= 2.0D+00
   Bfn.  Coefficient  Atom+Function         Bfn.  Coefficient  Atom+Function  
  ----- ------------  ---------------      ----- ------------  ---------------
   106      1.960421  2 C  fxzz              12      1.905395  1 O  px         
    32      1.872944  1 O  dxz               46     -1.530818  1 O  fxxx       
    49     -1.530817  1 O  fxyy             109      1.484044  2 C  fyzz       
    13      1.442389  1 O  py                34      1.417824  1 O  dyz        
    51      1.383786  1 O  fxzz              67     -1.207046  2 C  px         

 Vector   63  Occ=0.000000D+00  E= 2.317439D+00
              MO Center=  1.0D-14, -9.5D-16,  1.2D-01, r^2= 1.8D+00
   Bfn.  Coefficient  Atom+Function         Bfn.  Coefficient  Atom+Function  
  ----- ------------  ---------------      ----- ------------  ---------------
    48      3.032176  1 O  fxxz              53     -3.032176  1 O  fyyz       
   103      2.009140  2 C  fxxz             108     -2.009140  2 C  fyyz       
    79     -1.119256  2 C  dxx               82      1.119256  2 C  dyy        
    30      0.966404  1 O  dxx               33     -0.966404  1 O  dyy        
    24      0.225511  1 O  dxx               27     -0.225511  1 O  dyy        

 Vector   64  Occ=0.000000D+00  E= 2.317439D+00
              MO Center=  2.2D-15, -1.6D-15,  1.2D-01, r^2= 1.8D+00
   Bfn.  Coefficient  Atom+Function         Bfn.  Coefficient  Atom+Function  
  ----- ------------  ---------------      ----- ------------  ---------------
    50      6.064353  1 O  fxyz             105      4.018280  2 C  fxyz       
    80     -2.238512  2 C  dxy               31      1.932809  1 O  dxy        
    25      0.451020  1 O  dxy               40     -0.448630  1 O  fxyz       
    86     -0.249564  2 C  dxy               74      0.135975  2 C  dxy        
    95     -0.044656  2 C  fxyz       

 Vector   65  Occ=0.000000D+00  E= 2.337154D+00
              MO Center= -7.5D-14,  2.9D-15,  5.5D-01, r^2= 2.2D+00
   Bfn.  Coefficient  Atom+Function         Bfn.  Coefficient  Atom+Function  
  ----- ------------  ---------------      ----- ------------  ---------------
    59     13.640114  2 C  s                 69     -8.219940  2 C  pz         
    14     -6.399412  1 O  pz                35     -4.375488  1 O  dzz        
    30     -3.548583  1 O  dxx               33     -3.548583  1 O  dyy        
    48      2.691527  1 O  fxxz              53      2.691527  1 O  fyyz       
     4     -2.565882  1 O  s                 90      2.290112  2 C  dzz        

 Vector   66  Occ=0.000000D+00  E= 2.581402D+00
              MO Center= -4.6D-13,  4.3D-13,  7.4D-02, r^2= 2.0D+00
   Bfn.  Coefficient  Atom+Function         Bfn.  Coefficient  Atom+Function  
  ----- ------------  ---------------      ----- ------------  ---------------
    14     18.702205  1 O  pz                35     10.311219  1 O  dzz        
    59     -7.081697  2 C  s                 48     -6.847265  1 O  fxxz       
    53     -6.847265  1 O  fyyz              55     -4.872216  1 O  fzzz       
    11     -4.833634  1 O  pz                79     -4.659946  2 C  dxx        
    82     -4.659946  2 C  dyy                4     -4.308798  1 O  s          

 Vector   67  Occ=0.000000D+00  E= 2.633836D+00
              MO Center=  4.3D-14, -1.7D-14,  5.9D-01, r^2= 2.0D+00
   Bfn.  Coefficient  Atom+Function         Bfn.  Coefficient  Atom+Function  
  ----- ------------  ---------------      ----- ------------  ---------------
    81      5.471130  2 C  dxz              106     -4.638158  2 C  fxzz       
    32      4.050014  1 O  dxz               12      4.008755  1 O  px         
    51      3.594514  1 O  fxzz              83     -2.283554  2 C  dyz        
    26      1.977110  1 O  dxz              109      1.935886  2 C  fyzz       
   101     -1.845382  2 C  fxxx             104     -1.845382  2 C  fxyy       

 Vector   68  Occ=0.000000D+00  E= 2.633836D+00
              MO Center= -5.6D-14, -1.4D-13,  5.9D-01, r^2= 2.0D+00
   Bfn.  Coefficient  Atom+Function         Bfn.  Coefficient  Atom+Function  
  ----- ------------  ---------------      ----- ------------  ---------------
    83      5.471130  2 C  dyz              109     -4.638158  2 C  fyzz       
    34      4.050014  1 O  dyz               13      4.008755  1 O  py         
    54      3.594514  1 O  fyzz              81      2.283554  2 C  dxz        
    28      1.977110  1 O  dyz              106     -1.935886  2 C  fxzz       
   102     -1.845382  2 C  fxxy             107     -1.845382  2 C  fyyy       

 Vector   69  Occ=0.000000D+00  E= 2.768979D+00
              MO Center=  2.4D-13,  6.6D-14,  8.3D-01, r^2= 1.9D+00
   Bfn.  Coefficient  Atom+Function         Bfn.  Coefficient  Atom+Function  
  ----- ------------  ---------------      ----- ------------  ---------------
    81      5.777537  2 C  dxz               64     -4.202279  2 C  px         
    12      4.013476  1 O  px                32      3.691386  1 O  dxz        
    67     -3.067321  2 C  px                51      2.763159  1 O  fxzz       
   106     -2.704694  2 C  fxzz              26      2.284960  1 O  dxz        
    87      1.513124  2 C  dxz               83      1.353651  2 C  dyz        

 Vector   70  Occ=0.000000D+00  E= 2.768979D+00
              MO Center=  7.5D-14, -3.8D-13,  8.3D-01, r^2= 1.9D+00
   Bfn.  Coefficient  Atom+Function         Bfn.  Coefficient  Atom+Function  
  ----- ------------  ---------------      ----- ------------  ---------------
    83      5.777537  2 C  dyz               65     -4.202279  2 C  py         
    13      4.013476  1 O  py                34      3.691386  1 O  dyz        
    68     -3.067321  2 C  py                54      2.763159  1 O  fyzz       
   109     -2.704694  2 C  fyzz              28      2.284960  1 O  dyz        
    89      1.513124  2 C  dyz               81     -1.353651  2 C  dxz        

 Vector   71  Occ=0.000000D+00  E= 3.061698D+00
              MO Center=  3.6D-14, -4.2D-15,  1.2D+00, r^2= 8.4D-01
   Bfn.  Coefficient  Atom+Function         Bfn.  Coefficient  Atom+Function  
  ----- ------------  ---------------      ----- ------------  ---------------
    74      2.097137  2 C  dxy               80     -1.417190  2 C  dxy        
    95      0.619477  2 C  fxyz              86      0.449447  2 C  dxy        
    50     -0.297480  1 O  fxyz             105     -0.170967  2 C  fxyz       
    40      0.165700  1 O  fxyz              31      0.114996  1 O  dxy        

 Vector   72  Occ=0.000000D+00  E= 3.061698D+00
              MO Center=  4.5D-15,  1.1D-14,  1.2D+00, r^2= 8.4D-01
   Bfn.  Coefficient  Atom+Function         Bfn.  Coefficient  Atom+Function  
  ----- ------------  ---------------      ----- ------------  ---------------
    73      1.048569  2 C  dxx               76     -1.048569  2 C  dyy        
    79     -0.708595  2 C  dxx               82      0.708595  2 C  dyy        
    93      0.309737  2 C  fxxz              98     -0.309737  2 C  fyyz       
    85      0.224724  2 C  dxx               88     -0.224724  2 C  dyy        
    48     -0.148741  1 O  fxxz              53      0.148741  1 O  fyyz       

 Vector   73  Occ=0.000000D+00  E= 3.131236D+00
              MO Center=  5.8D-15,  5.8D-16,  1.1D+00, r^2= 1.0D+00
   Bfn.  Coefficient  Atom+Function         Bfn.  Coefficient  Atom+Function  
  ----- ------------  ---------------      ----- ------------  ---------------
    94      2.825160  2 C  fxyy             104     -1.305193  2 C  fxyy       
    91     -0.941722  2 C  fxxx             101      0.435061  2 C  fxxx       
    92     -0.283265  2 C  fxxy              49     -0.131127  1 O  fxyy       
   102      0.130865  2 C  fxxy              97      0.094422  2 C  fyyy       
    39      0.063060  1 O  fxyy              46      0.043708  1 O  fxxx       

 Vector   74  Occ=0.000000D+00  E= 3.131236D+00
              MO Center= -2.7D-14, -5.2D-15,  1.1D+00, r^2= 1.0D+00
   Bfn.  Coefficient  Atom+Function         Bfn.  Coefficient  Atom+Function  
  ----- ------------  ---------------      ----- ------------  ---------------
    92      2.825160  2 C  fxxy             102     -1.305193  2 C  fxxy       
    97     -0.941722  2 C  fyyy             107      0.435061  2 C  fyyy       
    94      0.283265  2 C  fxyy              47     -0.131127  1 O  fxxy       
   104     -0.130865  2 C  fxyy              91     -0.094422  2 C  fxxx       
    37      0.063060  1 O  fxxy              52      0.043708  1 O  fyyy       

 Vector   75  Occ=0.000000D+00  E= 3.315693D+00
              MO Center=  2.1D-13, -2.3D-13,  1.2D+00, r^2= 1.1D+00
   Bfn.  Coefficient  Atom+Function         Bfn.  Coefficient  Atom+Function  
  ----- ------------  ---------------      ----- ------------  ---------------
    83      2.145434  2 C  dyz               99     -2.098243  2 C  fyzz       
    81     -1.864593  2 C  dxz               96      1.823579  2 C  fxzz       
    77     -1.069689  2 C  dyz               75      0.929665  2 C  dxz        
    13      0.693646  1 O  py                34      0.663818  1 O  dyz        
   109     -0.633599  2 C  fyzz              12     -0.602846  1 O  px         

 Vector   76  Occ=0.000000D+00  E= 3.315693D+00
              MO Center=  9.3D-14,  6.5D-14,  1.2D+00, r^2= 1.1D+00
   Bfn.  Coefficient  Atom+Function         Bfn.  Coefficient  Atom+Function  
  ----- ------------  ---------------      ----- ------------  ---------------
    81      2.145434  2 C  dxz               96     -2.098243  2 C  fxzz       
    83      1.864593  2 C  dyz               99     -1.823579  2 C  fyzz       
    75     -1.069689  2 C  dxz               77     -0.929665  2 C  dyz        
    12      0.693646  1 O  px                32      0.663818  1 O  dxz        
   106     -0.633599  2 C  fxzz              13      0.602846  1 O  py         

 Vector   77  Occ=0.000000D+00  E= 3.339013D+00
              MO Center= -4.7D-13,  3.3D-13,  1.2D+00, r^2= 1.8D+00
   Bfn.  Coefficient  Atom+Function         Bfn.  Coefficient  Atom+Function  
  ----- ------------  ---------------      ----- ------------  ---------------
    59     10.325724  2 C  s                 14     -8.979534  1 O  pz         
     4      8.147209  1 O  s                 84     -7.154929  2 C  dzz        
    35     -5.849306  1 O  dzz               48      5.006390  1 O  fxxz       
    53      5.006390  1 O  fyyz              66      4.753570  2 C  pz         
     5      3.748585  1 O  s                 11      3.386744  1 O  pz         

 Vector   78  Occ=0.000000D+00  E= 3.407538D+00
              MO Center=  2.5D-15,  3.1D-15,  1.0D+00, r^2= 1.2D+00
   Bfn.  Coefficient  Atom+Function         Bfn.  Coefficient  Atom+Function  
  ----- ------------  ---------------      ----- ------------  ---------------
    95      5.151939  2 C  fxyz              50      2.390913  1 O  fxyz       
   105     -1.588469  2 C  fxyz              25      0.846686  1 O  dxy        
    80     -0.489188  2 C  dxy               74     -0.308555  2 C  dxy        
    40     -0.305733  1 O  fxyz              31     -0.263438  1 O  dxy        
    86      0.189688  2 C  dxy        

 Vector   79  Occ=0.000000D+00  E= 3.407538D+00
              MO Center= -1.4D-14,  5.8D-15,  1.0D+00, r^2= 1.2D+00
   Bfn.  Coefficient  Atom+Function         Bfn.  Coefficient  Atom+Function  
  ----- ------------  ---------------      ----- ------------  ---------------
    93      2.575969  2 C  fxxz              98     -2.575969  2 C  fyyz       
    48      1.195456  1 O  fxxz              53     -1.195456  1 O  fyyz       
   103     -0.794235  2 C  fxxz             108      0.794235  2 C  fyyz       
    24      0.423343  1 O  dxx               27     -0.423343  1 O  dyy        
    79     -0.244594  2 C  dxx               82      0.244594  2 C  dyy        

 Vector   80  Occ=0.000000D+00  E= 3.535631D+00
              MO Center= -3.3D-14,  6.4D-14,  9.5D-01, r^2= 1.8D+00
   Bfn.  Coefficient  Atom+Function         Bfn.  Coefficient  Atom+Function  
  ----- ------------  ---------------      ----- ------------  ---------------
    59      7.961625  2 C  s                  4      7.784723  1 O  s          
    14      7.419190  1 O  pz                84     -7.394438  2 C  dzz        
    58     -7.343121  2 C  s                 79     -6.329306  2 C  dxx        
    82     -6.329306  2 C  dyy               66      4.817136  2 C  pz         
    35      3.594524  1 O  dzz              103      2.058958  2 C  fxxz       

 Vector   81  Occ=0.000000D+00  E= 3.767231D+00
              MO Center= -1.0D-14,  4.8D-15,  2.8D-01, r^2= 2.1D+00
   Bfn.  Coefficient  Atom+Function         Bfn.  Coefficient  Atom+Function  
  ----- ------------  ---------------      ----- ------------  ---------------
     4     12.573287  1 O  s                 29     -5.074355  1 O  dzz        
     5      4.551839  1 O  s                 24     -4.072228  1 O  dxx        
    27     -4.072228  1 O  dyy               14      3.438541  1 O  pz         
     3     -2.646265  1 O  s                 55     -2.618004  1 O  fzzz       
    30     -2.272488  1 O  dxx               33     -2.272488  1 O  dyy        

 Vector   82  Occ=0.000000D+00  E= 4.100715D+00
              MO Center=  1.3D-14, -2.5D-14,  1.0D+00, r^2= 1.6D+00
   Bfn.  Coefficient  Atom+Function         Bfn.  Coefficient  Atom+Function  
  ----- ------------  ---------------      ----- ------------  ---------------
    14     16.151294  1 O  pz                 4     13.345466  1 O  s          
    59     -8.222204  2 C  s                 35      6.724013  1 O  dzz        
   103      6.460212  2 C  fxxz             108      6.460212  2 C  fyyz       
   110      5.841995  2 C  fzzz              84     -4.918981  2 C  dzz        
    55     -3.380144  1 O  fzzz              79     -3.204636  2 C  dxx        

 Vector   83  Occ=0.000000D+00  E= 4.202110D+00
              MO Center=  1.1D-14,  8.6D-15,  5.5D-01, r^2= 1.4D+00
   Bfn.  Coefficient  Atom+Function         Bfn.  Coefficient  Atom+Function  
  ----- ------------  ---------------      ----- ------------  ---------------
    51      3.573724  1 O  fxzz              54      3.440648  1 O  fyzz       
    81      2.585501  2 C  dxz               26      2.553962  1 O  dxz        
    83      2.489223  2 C  dyz               28      2.458859  1 O  dyz        
    96     -2.470641  2 C  fxzz              99     -2.378641  2 C  fyzz       
    64     -2.229169  2 C  px                65     -2.146160  2 C  py         

 Vector   84  Occ=0.000000D+00  E= 4.202110D+00
              MO Center=  3.1D-14, -3.5D-14,  5.5D-01, r^2= 1.4D+00
   Bfn.  Coefficient  Atom+Function         Bfn.  Coefficient  Atom+Function  
  ----- ------------  ---------------      ----- ------------  ---------------
    54     -3.573724  1 O  fyzz              51      3.440648  1 O  fxzz       
    83     -2.585501  2 C  dyz               28     -2.553962  1 O  dyz        
    81      2.489223  2 C  dxz               26      2.458859  1 O  dxz        
    99      2.470641  2 C  fyzz              96     -2.378641  2 C  fxzz       
    65      2.229169  2 C  py                64     -2.146160  2 C  px         

 Vector   85  Occ=0.000000D+00  E= 5.094446D+00
              MO Center= -9.6D-13,  6.7D-13,  2.2D-01, r^2= 2.4D+00
   Bfn.  Coefficient  Atom+Function         Bfn.  Coefficient  Atom+Function  
  ----- ------------  ---------------      ----- ------------  ---------------
     4     11.228755  1 O  s                  5      7.836629  1 O  s          
    24     -5.608081  1 O  dxx               27     -5.608081  1 O  dyy        
    29     -5.416090  1 O  dzz                3     -4.742721  1 O  s          
    30     -4.539654  1 O  dxx               33     -4.539654  1 O  dyy        
    84      3.691144  2 C  dzz              110     -3.403701  2 C  fzzz       

 Vector   86  Occ=0.000000D+00  E= 5.141976D+00
              MO Center= -9.2D-14, -2.7D-13,  1.3D-01, r^2= 9.2D-01
   Bfn.  Coefficient  Atom+Function         Bfn.  Coefficient  Atom+Function  
  ----- ------------  ---------------      ----- ------------  ---------------
    13      3.613614  1 O  py                10      2.136621  1 O  py         
    47     -2.101121  1 O  fxxy              52     -2.101122  1 O  fyyy       
    34      1.469155  1 O  dyz               83      1.444762  2 C  dyz        
    99     -1.443126  2 C  fyzz               7     -1.325550  1 O  py         
    12      1.210664  1 O  px                28      1.084783  1 O  dyz        

 Vector   87  Occ=0.000000D+00  E= 5.141976D+00
              MO Center=  8.2D-13, -2.8D-13,  1.3D-01, r^2= 9.2D-01
   Bfn.  Coefficient  Atom+Function         Bfn.  Coefficient  Atom+Function  
  ----- ------------  ---------------      ----- ------------  ---------------
    12      3.613614  1 O  px                 9      2.136621  1 O  px         
    46     -2.101122  1 O  fxxx              49     -2.101121  1 O  fxyy       
    32      1.469155  1 O  dxz               81      1.444762  2 C  dxz        
    96     -1.443126  2 C  fxzz               6     -1.325550  1 O  px         
    13     -1.210664  1 O  py                26      1.084783  1 O  dxz        

 Vector   88  Occ=0.000000D+00  E= 5.776542D+00
              MO Center=  6.8D-14, -1.4D-14,  6.6D-02, r^2= 1.7D+00
   Bfn.  Coefficient  Atom+Function         Bfn.  Coefficient  Atom+Function  
  ----- ------------  ---------------      ----- ------------  ---------------
     4     14.056305  1 O  s                 59     11.114197  2 C  s          
    69     -8.204970  2 C  pz                29     -5.911604  1 O  dzz        
    30     -5.783509  1 O  dxx               33     -5.783509  1 O  dyy        
    24     -5.165345  1 O  dxx               27     -5.165345  1 O  dyy        
    35     -4.856267  1 O  dzz                3     -4.540001  1 O  s          

 Vector   89  Occ=0.000000D+00  E= 6.005676D+00
              MO Center= -2.8D-15, -2.4D-15,  3.5D-03, r^2= 5.7D-01
   Bfn.  Coefficient  Atom+Function         Bfn.  Coefficient  Atom+Function  
  ----- ------------  ---------------      ----- ------------  ---------------
    39      2.251398  1 O  fxyy              37      1.768235  1 O  fxxy       
    49     -1.152081  1 O  fxyy              47     -0.904838  1 O  fxxy       
    36     -0.750469  1 O  fxxx              42     -0.589414  1 O  fyyy       
    46      0.384025  1 O  fxxx              52      0.301611  1 O  fyyy       
   104      0.269535  2 C  fxyy             102      0.211691  2 C  fxxy       

 Vector   90  Occ=0.000000D+00  E= 6.005676D+00
              MO Center=  1.2D-15, -5.5D-16,  3.5D-03, r^2= 5.7D-01
   Bfn.  Coefficient  Atom+Function         Bfn.  Coefficient  Atom+Function  
  ----- ------------  ---------------      ----- ------------  ---------------
    37      2.251398  1 O  fxxy              39     -1.768235  1 O  fxyy       
    47     -1.152081  1 O  fxxy              49      0.904838  1 O  fxyy       
    42     -0.750469  1 O  fyyy              36      0.589414  1 O  fxxx       
    52      0.384025  1 O  fyyy              46     -0.301611  1 O  fxxx       
   102      0.269535  2 C  fxxy             104     -0.211691  2 C  fxyy       

 Vector   91  Occ=0.000000D+00  E= 6.270732D+00
              MO Center=  1.0D-15, -6.4D-15,  3.0D-02, r^2= 6.7D-01
   Bfn.  Coefficient  Atom+Function         Bfn.  Coefficient  Atom+Function  
  ----- ------------  ---------------      ----- ------------  ---------------
    40      4.922469  1 O  fxyz              50     -3.400031  1 O  fxyz       
   105     -1.801120  2 C  fxyz              31     -0.867012  1 O  dxy        
    80      0.857905  2 C  dxy               95      0.725464  2 C  fxyz       
    86      0.173710  2 C  dxy               74     -0.164551  2 C  dxy        
    19      0.065663  1 O  dxy               25     -0.060806  1 O  dxy        

 Vector   92  Occ=0.000000D+00  E= 6.270732D+00
              MO Center=  1.5D-15,  4.2D-15,  3.0D-02, r^2= 6.7D-01
   Bfn.  Coefficient  Atom+Function         Bfn.  Coefficient  Atom+Function  
  ----- ------------  ---------------      ----- ------------  ---------------
    38      2.461235  1 O  fxxz              43     -2.461235  1 O  fyyz       
    48     -1.700015  1 O  fxxz              53      1.700015  1 O  fyyz       
   103     -0.900560  2 C  fxxz             108      0.900560  2 C  fyyz       
    30     -0.433506  1 O  dxx               33      0.433506  1 O  dyy        
    79      0.428952  2 C  dxx               82     -0.428952  2 C  dyy        

 Vector   93  Occ=0.000000D+00  E= 6.490669D+00
              MO Center= -6.8D-15, -1.6D-14,  1.2D-02, r^2= 4.3D-01
   Bfn.  Coefficient  Atom+Function         Bfn.  Coefficient  Atom+Function  
  ----- ------------  ---------------      ----- ------------  ---------------
    19      2.108355  1 O  dxy               25     -1.608889  1 O  dxy        
    31      0.558910  1 O  dxy               95     -0.439971  2 C  fxyz       
    50     -0.356846  1 O  fxyz              80      0.214469  2 C  dxy        
    86     -0.202039  2 C  dxy              105     -0.198566  2 C  fxyz       
    40     -0.099695  1 O  fxyz              74      0.045263  2 C  dxy        

 Vector   94  Occ=0.000000D+00  E= 6.490670D+00
              MO Center=  2.5D-15,  1.4D-15,  1.2D-02, r^2= 4.3D-01
   Bfn.  Coefficient  Atom+Function         Bfn.  Coefficient  Atom+Function  
  ----- ------------  ---------------      ----- ------------  ---------------
    18      1.054178  1 O  dxx               21     -1.054178  1 O  dyy        
    24     -0.804445  1 O  dxx               27      0.804445  1 O  dyy        
    30      0.279454  1 O  dxx               33     -0.279454  1 O  dyy        
    93     -0.219985  2 C  fxxz              98      0.219985  2 C  fyyz       
    48     -0.178425  1 O  fxxz              53      0.178425  1 O  fyyz       

 Vector   95  Occ=0.000000D+00  E= 6.599580D+00
              MO Center=  5.5D-15,  2.5D-14,  3.1D-01, r^2= 1.3D+00
   Bfn.  Coefficient  Atom+Function         Bfn.  Coefficient  Atom+Function  
  ----- ------------  ---------------      ----- ------------  ---------------
    64      5.355481  2 C  px                91     -3.316683  2 C  fxxx       
    94     -3.316684  2 C  fxyy             106     -3.078447  2 C  fxzz       
    41     -3.029797  1 O  fxzz             101     -2.110169  2 C  fxxx       
   104     -2.110169  2 C  fxyy              96     -1.863669  2 C  fxzz       
    12      1.783316  1 O  px                51      1.742549  1 O  fxzz       

 Vector   96  Occ=0.000000D+00  E= 6.599580D+00
              MO Center=  8.2D-15, -2.2D-14,  3.1D-01, r^2= 1.3D+00
   Bfn.  Coefficient  Atom+Function         Bfn.  Coefficient  Atom+Function  
[...]
     Occ.    1  a   ---  Virt.   12  a       -0.12057
     Occ.    1  a   ---  Virt.   13  a        0.05112
     Occ.    1  a   ---  Virt.   16  a        0.07168
     Occ.    1  a   ---  Virt.   22  a        0.91025
     Occ.    1  a   ---  Virt.   23  a       -0.32550
     Occ.    1  a   ---  Virt.   24  a       -0.05377
     Occ.    1  a   ---  Virt.   25  a        0.16167
     Occ.    1  a   ---  Virt.   34  a       -0.05750
  ----------------------------------------------------------------------------
  Root  16 singlet a             19.915253711 a.u.              541.9219 eV 
  ----------------------------------------------------------------------------
     Transition Moments    X -0.00204   Y -0.00829   Z  0.00000
     Transition Moments   XX  0.00000  XY -0.00000  XZ  0.00032
     Transition Moments   YY  0.00000  YZ  0.00132  ZZ  0.00000
     Dipole Oscillator Strength                    0.0009666920
     Electric Quadrupole                           0.0000000774
     Magnetic Dipole                               0.0000000025
     Total Oscillator Strength                     0.0009667719

     Occ.    1  a   ---  Virt.    8  a        0.08441
     Occ.    1  a   ---  Virt.   12  a       -0.05112
     Occ.    1  a   ---  Virt.   13  a       -0.12057
     Occ.    1  a   ---  Virt.   15  a        0.07168
     Occ.    1  a   ---  Virt.   22  a        0.32550
     Occ.    1  a   ---  Virt.   23  a        0.91025
     Occ.    1  a   ---  Virt.   24  a        0.16167
     Occ.    1  a   ---  Virt.   25  a        0.05377
     Occ.    1  a   ---  Virt.   35  a       -0.05750
  ----------------------------------------------------------------------------
  Root  17 singlet a             19.954626236 a.u.              542.9932 eV 
  ----------------------------------------------------------------------------
     Transition Moments    X -0.00135   Y  0.01538   Z  0.00000
     Transition Moments   XX  0.00000  XY  0.00000  XZ -0.00008
     Transition Moments   YY  0.00000  YZ  0.00091  ZZ -0.00000
     Dipole Oscillator Strength                    0.0031719091
     Electric Quadrupole                           0.0000000354
     Magnetic Dipole                               0.0000000084
     Total Oscillator Strength                     0.0031719529

     Occ.    1  a   ---  Virt.   15  a       -0.10705
     Occ.    1  a   ---  Virt.   23  a       -0.16022
     Occ.    1  a   ---  Virt.   24  a        0.97262
     Occ.    1  a   ---  Virt.   30  a       -0.06076
     Occ.    1  a   ---  Virt.   35  a        0.07764
  ----------------------------------------------------------------------------
  Root  18 singlet a             19.954626236 a.u.              542.9932 eV 
  ----------------------------------------------------------------------------
     Transition Moments    X -0.01538   Y -0.00135   Z  0.00000
     Transition Moments   XX -0.00000  XY -0.00000  XZ -0.00091
     Transition Moments   YY  0.00000  YZ -0.00008  ZZ  0.00000
     Dipole Oscillator Strength                    0.0031719091
     Electric Quadrupole                           0.0000000354
     Magnetic Dipole                               0.0000000084
     Total Oscillator Strength                     0.0031719529

     Occ.    1  a   ---  Virt.   16  a        0.10705
     Occ.    1  a   ---  Virt.   22  a        0.16022
     Occ.    1  a   ---  Virt.   25  a       -0.97262
     Occ.    1  a   ---  Virt.   31  a        0.06076
     Occ.    1  a   ---  Virt.   34  a       -0.07764
  ----------------------------------------------------------------------------
  Root  19 singlet a             19.991429002 a.u.              543.9947 eV 
  ----------------------------------------------------------------------------
     Transition Moments    X  0.00000   Y  0.00000   Z -0.02174
     Transition Moments   XX -0.00029  XY  0.00000  XZ  0.00000
     Transition Moments   YY -0.00029  YZ -0.00000  ZZ -0.00560
     Dipole Oscillator Strength                    0.0063011237
     Electric Quadrupole                           0.0000004004
     Magnetic Dipole                               0.0000000000
     Total Oscillator Strength                     0.0063015241

     Occ.    1  a   ---  Virt.   14  a        0.11514
     Occ.    1  a   ---  Virt.   17  a        0.07690
     Occ.    1  a   ---  Virt.   21  a       -0.21299
     Occ.    1  a   ---  Virt.   26  a       -0.95685
     Occ.    1  a   ---  Virt.   32  a       -0.05294
     Occ.    1  a   ---  Virt.   38  a        0.10736
  ----------------------------------------------------------------------------
  Root  20 singlet a             20.079763267 a.u.              546.3984 eV 
  ----------------------------------------------------------------------------
     Transition Moments    X  0.00000   Y  0.00000   Z -0.03266
     Transition Moments   XX -0.00598  XY  0.00000  XZ  0.00000
     Transition Moments   YY -0.00598  YZ -0.00000  ZZ -0.00110
     Dipole Oscillator Strength                    0.0142779119
     Electric Quadrupole                           0.0000003417
     Magnetic Dipole                               0.0000000000
     Total Oscillator Strength                     0.0142782536

     Occ.    1  a   ---  Virt.   17  a        0.10720
     Occ.    1  a   ---  Virt.   20  a        0.08510
     Occ.    1  a   ---  Virt.   21  a       -0.17521
     Occ.    1  a   ---  Virt.   26  a        0.05709
     Occ.    1  a   ---  Virt.   27  a        0.91824
     Occ.    1  a   ---  Virt.   33  a       -0.24269
     Occ.    1  a   ---  Virt.   43  a       -0.20198
  ----------------------------------------------------------------------------
  Root  21 singlet a             20.142304026 a.u.              548.1002 eV 
  ----------------------------------------------------------------------------
     Transition Moments    X -0.00000   Y  0.00000   Z  0.00000
     Transition Moments   XX -0.00305  XY -0.00000  XZ -0.00000
     Transition Moments   YY  0.00305  YZ  0.00000  ZZ  0.00000
     Dipole Oscillator Strength                    0.0000000000
     Electric Quadrupole                           0.0000004054
     Magnetic Dipole                               0.0000000000
     Total Oscillator Strength                     0.0000004054

     Occ.    1  a   ---  Virt.   19  a       -0.10459
     Occ.    1  a   ---  Virt.   28  a        0.99295
     Occ.    1  a   ---  Virt.   58  a        0.05079
  ----------------------------------------------------------------------------
  Root  22 singlet a             20.142304062 a.u.              548.1002 eV 
  ----------------------------------------------------------------------------
     Transition Moments    X  0.00000   Y -0.00000   Z  0.00000
     Transition Moments   XX  0.00000  XY -0.00305  XZ  0.00000
     Transition Moments   YY -0.00000  YZ -0.00000  ZZ  0.00000
     Dipole Oscillator Strength                    0.0000000000
     Electric Quadrupole                           0.0000004054
     Magnetic Dipole                               0.0000000000
     Total Oscillator Strength                     0.0000004054

     Occ.    1  a   ---  Virt.   18  a       -0.10459
     Occ.    1  a   ---  Virt.   29  a        0.99295
     Occ.    1  a   ---  Virt.   59  a        0.05079
  ----------------------------------------------------------------------------
  Root  23 singlet a             20.145755040 a.u.              548.1941 eV 
  ----------------------------------------------------------------------------
     Transition Moments    X -0.00637   Y  0.03223   Z -0.00000
     Transition Moments   XX  0.00000  XY -0.00000  XZ -0.00049
     Transition Moments   YY -0.00000  YZ  0.00246  ZZ  0.00000
     Dipole Oscillator Strength                    0.0144933656
     Electric Quadrupole                           0.0000002747
     Magnetic Dipole                               0.0000000459
     Total Oscillator Strength                     0.0144936862

     Occ.    1  a   ---  Virt.    8  a       -0.05432
     Occ.    1  a   ---  Virt.   15  a       -0.11546
     Occ.    1  a   ---  Virt.   24  a       -0.08469
     Occ.    1  a   ---  Virt.   30  a       -0.95909
     Occ.    1  a   ---  Virt.   31  a       -0.18672
     Occ.    1  a   ---  Virt.   35  a        0.11765
     Occ.    1  a   ---  Virt.   54  a       -0.06760
  ----------------------------------------------------------------------------
  Root  24 singlet a             20.145755040 a.u.              548.1941 eV 
  ----------------------------------------------------------------------------
     Transition Moments    X -0.03223   Y -0.00637   Z  0.00000
     Transition Moments   XX  0.00000  XY -0.00000  XZ -0.00246
     Transition Moments   YY -0.00000  YZ -0.00049  ZZ  0.00000
     Dipole Oscillator Strength                    0.0144933656
     Electric Quadrupole                           0.0000002747
     Magnetic Dipole                               0.0000000459
     Total Oscillator Strength                     0.0144936862

     Occ.    1  a   ---  Virt.    9  a        0.05432
     Occ.    1  a   ---  Virt.   16  a        0.11546
     Occ.    1  a   ---  Virt.   25  a        0.08469
     Occ.    1  a   ---  Virt.   30  a       -0.18672
     Occ.    1  a   ---  Virt.   31  a        0.95909
     Occ.    1  a   ---  Virt.   34  a       -0.11765
     Occ.    1  a   ---  Virt.   53  a        0.06760
  ----------------------------------------------------------------------------
  Root  25 singlet a             20.237366970 a.u.              550.6870 eV 
  ----------------------------------------------------------------------------
     Transition Moments    X  0.00000   Y  0.00000   Z -0.04093
     Transition Moments   XX -0.00012  XY  0.00000  XZ -0.00000
     Transition Moments   YY -0.00012  YZ -0.00000  ZZ -0.00029
     Dipole Oscillator Strength                    0.0226018098
     Electric Quadrupole                           0.0000000004
     Magnetic Dipole                               0.0000000000
     Total Oscillator Strength                     0.0226018102

     Occ.    1  a   ---  Virt.   17  a       -0.09336
     Occ.    1  a   ---  Virt.   21  a       -0.10852
     Occ.    1  a   ---  Virt.   26  a        0.06287
     Occ.    1  a   ---  Virt.   27  a       -0.29391
     Occ.    1  a   ---  Virt.   32  a       -0.05781
     Occ.    1  a   ---  Virt.   33  a       -0.92314
     Occ.    1  a   ---  Virt.   38  a        0.07451
     Occ.    1  a   ---  Virt.   43  a       -0.12700
     Occ.    1  a   ---  Virt.   51  a       -0.05080
     Occ.    1  a   ---  Virt.   52  a        0.05237
     Occ.    1  a   ---  Virt.   55  a       -0.06032
  ----------------------------------------------------------------------------
  Root  26 singlet a             20.260782466 a.u.              551.3242 eV 
  ----------------------------------------------------------------------------
     Transition Moments    X  0.00000   Y -0.00000   Z  0.00196
     Transition Moments   XX -0.00083  XY -0.00000  XZ  0.00000
     Transition Moments   YY -0.00083  YZ  0.00000  ZZ  0.00199
     Dipole Oscillator Strength                    0.0000516763
     Electric Quadrupole                           0.0000001175
     Magnetic Dipole                               0.0000000000
     Total Oscillator Strength                     0.0000517938

     Occ.    1  a   ---  Virt.   20  a        0.05542
     Occ.    1  a   ---  Virt.   26  a       -0.06549
     Occ.    1  a   ---  Virt.   32  a        0.99185
     Occ.    1  a   ---  Virt.   33  a       -0.05942
  ----------------------------------------------------------------------------
  Root  27 singlet a             20.359047409 a.u.              553.9981 eV 
  ----------------------------------------------------------------------------
     Transition Moments    X -0.03202   Y  0.00173   Z -0.00000
     Transition Moments   XX -0.00000  XY  0.00000  XZ  0.00182
     Transition Moments   YY -0.00000  YZ -0.00010  ZZ  0.00000
     Dipole Oscillator Strength                    0.0139597401
     Electric Quadrupole                           0.0000001492
     Magnetic Dipole                               0.0000000433
     Total Oscillator Strength                     0.0139599326

     Occ.    1  a   ---  Virt.    9  a        0.05905
     Occ.    1  a   ---  Virt.   22  a       -0.08496
     Occ.    1  a   ---  Virt.   25  a        0.06614
     Occ.    1  a   ---  Virt.   30  a        0.05794
     Occ.    1  a   ---  Virt.   31  a       -0.12258
     Occ.    1  a   ---  Virt.   34  a       -0.96458
     Occ.    1  a   ---  Virt.   35  a        0.11436
     Occ.    1  a   ---  Virt.   42  a        0.09970
     Occ.    1  a   ---  Virt.   49  a        0.06501
     Occ.    1  a   ---  Virt.   53  a        0.06188
  ----------------------------------------------------------------------------
  Root  28 singlet a             20.359047409 a.u.              553.9981 eV 
  ----------------------------------------------------------------------------
     Transition Moments    X -0.00173   Y -0.03202   Z -0.00000
     Transition Moments   XX  0.00000  XY  0.00000  XZ  0.00010
     Transition Moments   YY -0.00000  YZ  0.00182  ZZ -0.00000
     Dipole Oscillator Strength                    0.0139597401
     Electric Quadrupole                           0.0000001492
     Magnetic Dipole                               0.0000000433
     Total Oscillator Strength                     0.0139599326

     Occ.    1  a   ---  Virt.    8  a        0.05905
     Occ.    1  a   ---  Virt.   23  a       -0.08496
     Occ.    1  a   ---  Virt.   24  a        0.06614
     Occ.    1  a   ---  Virt.   30  a       -0.12258
     Occ.    1  a   ---  Virt.   31  a       -0.05794
     Occ.    1  a   ---  Virt.   34  a       -0.11436
     Occ.    1  a   ---  Virt.   35  a       -0.96458
     Occ.    1  a   ---  Virt.   41  a        0.09970
     Occ.    1  a   ---  Virt.   50  a        0.06501
     Occ.    1  a   ---  Virt.   54  a        0.06188
  ----------------------------------------------------------------------------
  Root  29 singlet a             20.463097999 a.u.              556.8295 eV 
  ----------------------------------------------------------------------------
     Transition Moments    X -0.00000   Y -0.00000   Z -0.03224
     Transition Moments   XX -0.00213  XY -0.00000  XZ -0.00000
     Transition Moments   YY -0.00213  YZ  0.00000  ZZ -0.00441
     Dipole Oscillator Strength                    0.0141837579
     Electric Quadrupole                           0.0000000790
     Magnetic Dipole                               0.0000000000
     Total Oscillator Strength                     0.0141838370

     Occ.    1  a   ---  Virt.   26  a        0.12002
     Occ.    1  a   ---  Virt.   27  a       -0.06998
     Occ.    1  a   ---  Virt.   32  a        0.05098
     Occ.    1  a   ---  Virt.   33  a        0.14513
     Occ.    1  a   ---  Virt.   38  a        0.93492
     Occ.    1  a   ---  Virt.   43  a       -0.27008
     Occ.    1  a   ---  Virt.   46  a       -0.05158
     Occ.    1  a   ---  Virt.   55  a       -0.06732
  ----------------------------------------------------------------------------
  Root  30 singlet a             20.464243158 a.u.              556.8606 eV 
  ----------------------------------------------------------------------------
     Transition Moments    X  0.00000   Y  0.00000   Z  0.00000
     Transition Moments   XX  0.00000  XY  0.00066  XZ -0.00000
     Transition Moments   YY -0.00000  YZ -0.00000  ZZ  0.00000
     Dipole Oscillator Strength                    0.0000000000
     Electric Quadrupole                           0.0000000200
     Magnetic Dipole                               0.0000000000
     Total Oscillator Strength                     0.0000000200

     Occ.    1  a   ---  Virt.   36  a       -0.99384
     Occ.    1  a   ---  Virt.   47  a        0.10638

              Target root =      1
          Target symmetry = none
      Ground state energy =   -112.616925193745
        Excitation energy =     19.446988681704
     Excited state energy =    -93.169936512040

  stored tddft:energy   -93.169936512040323     

 Task  times  cpu:       28.5s     wall:       28.5s


                                NWChem Input Module
                                -------------------


 Summary of allocated global arrays
-----------------------------------
  No active global arrays



                         GA Statistics for process    0
                         ------------------------------

       create   destroy   get      put      acc     scatter   gather  read&inc
calls: 1487     1487     1.13e+06 1.00e+05 9.93e+05  442        0     2164     
number of processes/call 1.04e+00 1.27e+00 1.00e+00 0.00e+00 0.00e+00
bytes total:             1.79e+09 1.23e+08 2.64e+09 2.46e+04 0.00e+00 1.73e+04
bytes remote:            4.52e+08 2.22e+07 3.38e+08 0.00e+00 0.00e+00 0.00e+00
Max memory consumed for GA by this process: 38514040 bytes

MA_summarize_allocated_blocks: starting scan ...
heap block 'gridpts', handle 71, address 0x55b2925bea18:
	type of elements:		double precision
	number of elements:		13001543
	address of client space:	0x55b2925bea80
	index for client space:		13846883
	total number of bytes:		104012456
MA_summarize_allocated_blocks: scan completed: 1 heap block, 0 stack blocks
MA usage statistics:

	allocation statistics:
					      heap	     stack
					      ----	     -----
	current number of blocks	         1	         0
	maximum number of blocks	        24	        53
	current total bytes		 104012456	         0
	maximum total bytes		 104530080	  42220936
	maximum total K-bytes		    104531	     42221
	maximum total M-bytes		       105	        43


                                     CITATION
                                     --------
                Please cite the following reference when publishing
                           results obtained with NWChem:

                 M. Valiev, E.J. Bylaska, N. Govind, K. Kowalski,
              T.P. Straatsma, H.J.J. van Dam, D. Wang, J. Nieplocha,
                        E. Apra, T.L. Windus, W.A. de Jong
                 "NWChem: a comprehensive and scalable open-source
                  solution for large scale molecular simulations"
                      Comput. Phys. Commun. 181, 1477 (2010)
                           doi:10.1016/j.cpc.2010.04.018

                                      AUTHORS
                                      -------
          E. Apra, E. J. Bylaska, W. A. de Jong, N. Govind, K. Kowalski,
       T. P. Straatsma, M. Valiev, H. J. J. van Dam, D. Wang, T. L. Windus,
        J. Hammond, J. Autschbach, K. Bhaskaran-Nair, J. Brabec, K. Lopata,
    S. A. Fischer, S. Krishnamoorthy, M. Jacquelin, W. Ma, M. Klemm, O. Villa,
      Y. Chen, V. Anisimov, F. Aquino, S. Hirata, M. T. Hackler, V. Konjkov,
            D. Mejia-Rodriguez, T. Risthaus, M. Malagoli, A. Marenich,
   A. Otero-de-la-Roza, J. Mullin, P. Nichols, R. Peverati, J. Pittner, Y. Zhao,
        P.-D. Fan, A. Fonari, M. J. Williamson, R. J. Harrison, J. R. Rehr,
      M. Dupuis, D. Silverstein, D. M. A. Smith, J. Nieplocha, V. Tipparaju,
    M. Krishnan, B. E. Van Kuiken, A. Vazquez-Mayagoitia, L. Jensen, M. Swart,
      Q. Wu, T. Van Voorhis, A. A. Auer, M. Nooijen, L. D. Crosby, E. Brown,
      G. Cisneros, G. I. Fann, H. Fruchtl, J. Garza, K. Hirao, R. A. Kendall,
      J. A. Nichols, K. Tsemekhman, K. Wolinski, J. Anchell, D. E. Bernholdt,
      P. Borowski, T. Clark, D. Clerc, H. Dachsel, M. J. O. Deegan, K. Dyall,
    D. Elwood, E. Glendening, M. Gutowski, A. C. Hess, J. Jaffe, B. G. Johnson,
     J. Ju, R. Kobayashi, R. Kutteh, Z. Lin, R. Littlefield, X. Long, B. Meng,
      T. Nakajima, S. Niu, L. Pollack, M. Rosing, K. Glaesemann, G. Sandrone,
      M. Stave, H. Taylor, G. Thomas, J. H. van Lenthe, A. T. Wong, Z. Zhang.

 Total times  cpu:       51.7s     wall:       51.8s
