 argument  1 = /home/list1234/source/nwchem-6.8.1-release/QA/tests/cosmo_h2o/cosmo_h2o.nw



============================== echo of input deck ==============================
start cosmo_h2o_dat
echo
 title "h2o"
geometry nocenter noautosym
o                  .0000000000         .0000000000        -.0486020332
h                  .7545655371         .0000000000         .5243010666
h                 -.7545655371         .0000000000         .5243010666
end
basis segment
  o library 6-31g**
  h library 6-31g**
end
cosmo
   dielec 78.0
   radius 1.40
          1.16
          1.16
   rsolv  0.50
   lineq  0
end
scf
  print cosmo_energies
end
task scf energy
================================================================================


                                         
                                         


              Northwest Computational Chemistry Package (NWChem) 6.8
              ------------------------------------------------------


                    Environmental Molecular Sciences Laboratory
                       Pacific Northwest National Laboratory
                                Richland, WA 99352

                              Copyright (c) 1994-2018
                       Pacific Northwest National Laboratory
                            Battelle Memorial Institute

             NWChem is an open-source computational chemistry package
                        distributed under the terms of the
                      Educational Community License (ECL) 2.0
             A copy of the license is included with this distribution
                              in the LICENSE.TXT file

                                  ACKNOWLEDGMENT
                                  --------------

            This software and its documentation were developed at the
            EMSL at Pacific Northwest National Laboratory, a multiprogram
            national laboratory, operated for the U.S. Department of Energy
            by Battelle under Contract Number DE-AC05-76RL01830. Support
            for this work was provided by the Department of Energy Office
            of Biological and Environmental Research, Office of Basic
            Energy Sciences, and the Office of Advanced Scientific Computing.


           Job information
           ---------------

    hostname        = list1234-B360M-H
    program         = /home/list1234/source/nwchem-6.8.1-release/bin/LINUX64/nwchem
    date            = Sun Jun 30 05:42:35 2019

    compiled        = Sun_Jun_30_05:21:11_2019
    source          = /home/list1234/source/nwchem-6.8.1-release
    nwchem branch   = Development
    nwchem revision = N/A
    ga revision     = 5.6.5
    use scalapack   = T
    input           = /home/list1234/source/nwchem-6.8.1-release/QA/tests/cosmo_h2o/cosmo_h2o.nw
    prefix          = cosmo_h2o_dat.
    data base       = ./cosmo_h2o_dat.db
    status          = startup
    nproc           =        4
    time left       =     -1s



           Memory information
           ------------------

    heap     =   86247166 doubles =    658.0 Mbytes
    stack    =   86247163 doubles =    658.0 Mbytes
    global   =  172494336 doubles =   1316.0 Mbytes (distinct from heap & stack)
    total    =  344988665 doubles =   2632.1 Mbytes
    verify   = yes
    hardfail = no 


           Directory information
           ---------------------

  0 permanent = .
  0 scratch   = .




                                NWChem Input Module
                                -------------------


                                        h2o
                                        ---

 Scaling coordinates for geometry "geometry" by  1.889725989
 (inverse scale =  0.529177249)


          ------
          auto-z
          ------
  no constraints, skipping    0.0000000000000000     
  no constraints, skipping    0.0000000000000000     


                             Geometry "geometry" -> ""
                             -------------------------

 Output coordinates in angstroms (scale by  1.889725989 to convert to a.u.)

  No.       Tag          Charge          X              Y              Z
 ---- ---------------- ---------- -------------- -------------- --------------
    1 o                    8.0000     0.00000000     0.00000000    -0.04860203
    2 h                    1.0000     0.75456554     0.00000000     0.52430107
    3 h                    1.0000    -0.75456554     0.00000000     0.52430107

      Atomic Mass 
      ----------- 

      o                 15.994910
      h                  1.007825


 Effective nuclear repulsion energy (a.u.)       9.2874668371

            Nuclear Dipole moment (a.u.) 
            ----------------------------
        X                 Y               Z
 ---------------- ---------------- ----------------
     0.0000000000     0.0000000000     1.2468145009



                                Z-matrix (autoz)
                                -------- 

 Units are Angstrom for bonds and degrees for angles

      Type          Name      I     J     K     L     M      Value
      ----------- --------  ----- ----- ----- ----- ----- ----------
    1 Stretch                  1     2                       0.94741
    2 Stretch                  1     3                       0.94741
    3 Bend                     2     1     3               105.58490


            XYZ format geometry
            -------------------
     3
 geometry
 o                     0.00000000     0.00000000    -0.04860203
 h                     0.75456554     0.00000000     0.52430107
 h                    -0.75456554     0.00000000     0.52430107

 ==============================================================================
                                internuclear distances
 ------------------------------------------------------------------------------
       center one      |      center two      | atomic units |  angstroms
 ------------------------------------------------------------------------------
    2 h                |   1 o                |     1.79035  |     0.94741
    3 h                |   1 o                |     1.79035  |     0.94741
 ------------------------------------------------------------------------------
                         number of included internuclear distances:          2
 ==============================================================================



 ==============================================================================
                                 internuclear angles
 ------------------------------------------------------------------------------
        center 1       |       center 2       |       center 3       |  degrees
 ------------------------------------------------------------------------------
    2 h                |   1 o                |   3 h                |   105.58
 ------------------------------------------------------------------------------
                            number of included internuclear angles:          1
 ==============================================================================



                      Basis "ao basis" -> "" (cartesian)
                      -----
  o (Oxygen)
  ----------
            Exponent  Coefficients 
       -------------- ---------------------------------------------------------
  1 S  5.48467170E+03  0.001831
  1 S  8.25234950E+02  0.013950
  1 S  1.88046960E+02  0.068445
  1 S  5.29645000E+01  0.232714
  1 S  1.68975700E+01  0.470193
  1 S  5.79963530E+00  0.358521

  2 S  1.55396160E+01 -0.110778
  2 S  3.59993360E+00 -0.148026
  2 S  1.01376180E+00  1.130767

  3 P  1.55396160E+01  0.070874
  3 P  3.59993360E+00  0.339753
  3 P  1.01376180E+00  0.727159

  4 S  2.70005800E-01  1.000000

  5 P  2.70005800E-01  1.000000

  6 D  8.00000000E-01  1.000000

  h (Hydrogen)
  ------------
            Exponent  Coefficients 
       -------------- ---------------------------------------------------------
  1 S  1.87311370E+01  0.033495
  1 S  2.82539370E+00  0.234727
  1 S  6.40121700E-01  0.813757

  2 S  1.61277800E-01  1.000000

  3 P  1.10000000E+00  1.000000



 Summary of "ao basis" -> "" (cartesian)
 ------------------------------------------------------------------------------
       Tag                 Description            Shells   Functions and Types
 ---------------- ------------------------------  ------  ---------------------
 o                          6-31g**                  6       15   3s2p1d
 h                          6-31g**                  3        5   2s1p



 solvent parameters
 solvname_short: h2o     
 solvname_long:  water                              
 dielec:       78.0000
 dielecinf:     1.7769

          ---------------
          -cosmo- solvent
          ---------------
 Cosmo: York-Karplus, doi: 10.1021/jp992097l
 dielectric constant -eps-     =  78.00
 screen = (eps-1)/(eps    )    =   0.98718
 surface charge correction     = lagrangian
 -lineq- algorithm             =   0
 -bem- low  level              =   2
 -bem- from -octahedral-
 gaussian surface charge width =   0.98000
 degree of switching           =   1.00000
 switching function tolerance  =   0.00010
 atomic radii = 
 --------------
    1  8.000  1.400
    2  1.000  1.160
    3  1.000  1.160

 solvent accessible surface
 --------------------------

 ---------- ATOMIC COORDINATES (A.U.) ------------ VDWR(ANG.) --
     1    0.00000000    0.00000000   -0.09184453     1.400
     2    1.42592211    0.00000000    0.99078535     1.160
     3   -1.42592211    0.00000000    0.99078535     1.160
 number of segments per atom =         32
 number of   points per atom =         32
 atom (   nspa,  nppa )
 ----------------------
    1 (     20,     0 )       0
    2 (     20,     0 )       0
    3 (     20,     0 )       0
 number of -cosmo- surface points =       60
 molecular surface =     33.557 angstrom**2
 molecular volume  =     14.080 angstrom**3
 G(cav/disp)       =      1.028 kcal/mol
 ...... end of -cosmo- initialization ......


                                 NWChem SCF Module
                                 -----------------


                                        h2o



  ao basis        = "ao basis"
  functions       =    25
  atoms           =     3
  closed shells   =     5
  open shells     =     0
  charge          =   0.00
  wavefunction    = RHF 
  input vectors   = atomic
  output vectors  = ./cosmo_h2o_dat.movecs
  use symmetry    = F
  symmetry adapt  = F


 Summary of "ao basis" -> "ao basis" (cartesian)
 ------------------------------------------------------------------------------
       Tag                 Description            Shells   Functions and Types
 ---------------- ------------------------------  ------  ---------------------
 o                          6-31g**                  6       15   3s2p1d
 h                          6-31g**                  3        5   2s1p



 Forming initial guess at       0.0s


      Superposition of Atomic Density Guess
      -------------------------------------

 Sum of atomic energies:         -75.75081731

      Non-variational initial energy
      ------------------------------

 Total energy =     -75.937479
 1-e energy   =    -121.880910
 2-e energy   =      36.655964
 HOMO         =      -0.474852
 LUMO         =       0.117559


 Starting SCF solution at       0.1s



 ----------------------------------------------
         Quadratically convergent ROHF

 Convergence threshold     :          1.000E-04
 Maximum no. of iterations :           30
 Final Fock-matrix accuracy:          1.000E-07
 ----------------------------------------------

     COSMO gas phase

              iter       energy          gnorm     gmax       time
             ----- ------------------- --------- --------- --------
                 1      -75.9892268445  8.38D-01  3.47D-01      0.1
                 2      -76.0214334273  1.75D-01  9.15D-02      0.2
                 3      -76.0235574625  1.41D-02  7.51D-03      0.2
                 4      -76.0235721772  1.96D-04  7.59D-05      0.2
                 5      -76.0235721798  7.16D-06  3.64D-06      0.3
     COSMO solvation phase
 Alternative 1
 -atmefc- energy =       0.153473779395
 -elcefc- energy =      -0.186171559392
 -efcefc- energy =       0.016348889999
 -lambda- energy =      -0.000000000000
 -solnrg- energy =      -0.016348889999
 -allefc- energy =      -0.032697779997     -0.032697779997
 -ecos  - energy =       0.169822669393
 Alternative 2
 -atmefc- energy =       0.153473779395
 -elcefc- energy =      -0.186171559392
 -allefc- energy =      -0.032697779997
 -solnrg- energy =      -0.016348889999
 -ecos  - energy =       0.169822669393

              iter       energy          gnorm     gmax       time
             ----- ------------------- --------- --------- --------
                 1      -76.0399210698  1.53D-01  6.90D-02      0.3
 Alternative 1
 -atmefc- energy =       0.170157576329
 -elcefc- energy =      -0.211896325266
 -efcefc- energy =       0.020869374468
 -lambda- energy =      -0.000000000000
 -solnrg- energy =      -0.020869374468
 -allefc- energy =      -0.041738748937     -0.041738748937
 -ecos  - energy =       0.191026950797
 Alternative 2
 -atmefc- energy =       0.170157576329
 -elcefc- energy =      -0.211896325266
 -allefc- energy =      -0.041738748937
 -solnrg- energy =      -0.020869374468
 -ecos  - energy =       0.191026950797
                 2      -76.0424646047  2.89D-02  1.60D-02      0.3
 Alternative 1
 -atmefc- energy =       0.174078646815
 -elcefc- energy =      -0.217930077062
 -efcefc- energy =       0.021925715124
 -lambda- energy =      -0.000000000000
 -solnrg- energy =      -0.021925715124
 -allefc- energy =      -0.043851430248     -0.043851430248
 -ecos  - energy =       0.196004361939
 Alternative 2
 -atmefc- energy =       0.174078646815
 -elcefc- energy =      -0.217930077062
 -allefc- energy =      -0.043851430248
 -solnrg- energy =      -0.021925715124
 -ecos  - energy =       0.196004361939
                 3      -76.0425926628  5.05D-03  2.50D-03      0.3
 Alternative 1
 -atmefc- energy =       0.174583139606
 -elcefc- energy =      -0.218758209543
 -efcefc- energy =       0.022087534968
 -lambda- energy =      -0.000000000000
 -solnrg- energy =      -0.022087534968
 -allefc- energy =      -0.044175069936     -0.044175069936
 -ecos  - energy =       0.196670674575
 Alternative 2
 -atmefc- energy =       0.174583139606
 -elcefc- energy =      -0.218758209543
 -allefc- energy =      -0.044175069936
 -solnrg- energy =      -0.022087534968
 -ecos  - energy =       0.196670674575
                 4      -76.0425952408  7.90D-04  3.93D-04      0.4
 Alternative 1
 -atmefc- energy =       0.174657838155
 -elcefc- energy =      -0.218882745737
 -efcefc- energy =       0.022112453791
 -lambda- energy =      -0.000000000000
 -solnrg- energy =      -0.022112453791
 -allefc- energy =      -0.044224907582     -0.044224907582
 -ecos  - energy =       0.196770291946
 Alternative 2
 -atmefc- energy =       0.174657838155
 -elcefc- energy =      -0.218882745737
 -allefc- energy =      -0.044224907582
 -solnrg- energy =      -0.022112453791
 -ecos  - energy =       0.196770291946
                 5      -76.0425953022  1.24D-04  6.17D-05      0.5
 Alternative 1
 -atmefc- energy =       0.174669296257
 -elcefc- energy =      -0.218901928461
 -efcefc- energy =       0.022116316102
 -lambda- energy =       0.000000000000
 -solnrg- energy =      -0.022116316102
 -allefc- energy =      -0.044232632203     -0.044232632203
 -ecos  - energy =       0.196785612359
 Alternative 2
 -atmefc- energy =       0.174669296257
 -elcefc- energy =      -0.218901928461
 -allefc- energy =      -0.044232632203
 -solnrg- energy =      -0.022116316102
 -ecos  - energy =       0.196785612359
                 6      -76.0425953036  1.94D-05  9.45D-06      0.5
 
                  COSMO solvation results
                  -----------------------
 
                 gas phase energy =       -76.0235721798
                 sol phase energy =       -76.0425953036
 (electrostatic) solvation energy =         0.0190231239 (   11.94 kcal/mol)


       Final RHF  results 
       ------------------ 

         Total SCF energy =    -76.042595303649
      One-electron energy =   -123.582140632823
      Two-electron energy =     38.055292879738
 Nuclear repulsion energy =      9.287466837077
             COSMO energy =      0.196785612359

        Time for solution =      0.4s


             Final eigenvalues
             -----------------

              1      
    1  -20.5658
    2   -1.3525
    3   -0.7158
    4   -0.5878
    5   -0.5139
    6    0.2368
    7    0.3319
    8    1.0117
    9    1.0747
   10    1.1226
   11    1.1474
   12    1.2849
   13    1.4123
   14    1.7968
   15    1.8127

                       ROHF Final Molecular Orbital Analysis
                       -------------------------------------

 Vector    2  Occ=2.000000D+00  E=-1.352528D+00
              MO Center= -1.1D-16, -7.4D-17,  1.1D-01, r^2= 5.0D-01
   Bfn.  Coefficient  Atom+Function         Bfn.  Coefficient  Atom+Function  
  ----- ------------  ---------------      ----- ------------  ---------------
     2      0.472026  1 O  s                  6      0.433673  1 O  s          
     1     -0.212219  1 O  s          

 Vector    3  Occ=2.000000D+00  E=-7.157948D-01
              MO Center= -8.5D-16,  8.2D-17,  1.5D-01, r^2= 7.4D-01
   Bfn.  Coefficient  Atom+Function         Bfn.  Coefficient  Atom+Function  
  ----- ------------  ---------------      ----- ------------  ---------------
     3      0.511000  1 O  px                 7      0.295653  1 O  px         
    16      0.234096  2 H  s                 21     -0.234096  3 H  s          

 Vector    4  Occ=2.000000D+00  E=-5.878201D-01
              MO Center=  4.8D-16,  5.2D-17, -1.2D-01, r^2= 6.7D-01
   Bfn.  Coefficient  Atom+Function         Bfn.  Coefficient  Atom+Function  
  ----- ------------  ---------------      ----- ------------  ---------------
     5      0.560801  1 O  pz                 9      0.411161  1 O  pz         
     6     -0.310174  1 O  s          

 Vector    5  Occ=2.000000D+00  E=-5.138739D-01
              MO Center=  1.1D-16,  1.9D-16, -2.9D-02, r^2= 6.1D-01
   Bfn.  Coefficient  Atom+Function         Bfn.  Coefficient  Atom+Function  
  ----- ------------  ---------------      ----- ------------  ---------------
     4      0.631063  1 O  py                 8      0.509879  1 O  py         

 Vector    6  Occ=0.000000D+00  E= 2.367590D-01
              MO Center=  1.1D-13, -1.2D-17,  7.1D-01, r^2= 2.6D+00
   Bfn.  Coefficient  Atom+Function         Bfn.  Coefficient  Atom+Function  
  ----- ------------  ---------------      ----- ------------  ---------------
     6      1.392335  1 O  s                 17     -1.045593  2 H  s          
    22     -1.045593  3 H  s                  9      0.500192  1 O  pz         
     5      0.187075  1 O  pz         

 Vector    7  Occ=0.000000D+00  E= 3.319242D-01
              MO Center= -9.6D-14, -9.0D-18,  6.9D-01, r^2= 2.8D+00
   Bfn.  Coefficient  Atom+Function         Bfn.  Coefficient  Atom+Function  
  ----- ------------  ---------------      ----- ------------  ---------------
    17      1.422548  2 H  s                 22     -1.422548  3 H  s          
     7     -0.847987  1 O  px                 3     -0.325016  1 O  px         

 Vector    8  Occ=0.000000D+00  E= 1.011703D+00
              MO Center= -5.6D-16,  1.0D-17,  1.9D-01, r^2= 1.5D+00
   Bfn.  Coefficient  Atom+Function         Bfn.  Coefficient  Atom+Function  
  ----- ------------  ---------------      ----- ------------  ---------------
    16      0.774165  2 H  s                 21     -0.774165  3 H  s          
    17     -0.551825  2 H  s                 22      0.551825  3 H  s          
     7     -0.472683  1 O  px                12      0.473741  1 O  dxz        

 Vector    9  Occ=0.000000D+00  E= 1.074666D+00
              MO Center=  2.9D-15,  1.0D-15, -3.2D-01, r^2= 1.2D+00
   Bfn.  Coefficient  Atom+Function         Bfn.  Coefficient  Atom+Function  
  ----- ------------  ---------------      ----- ------------  ---------------
     6      0.919472  1 O  s                  5      0.783362  1 O  pz         
     9     -0.772103  1 O  pz                 2     -0.469826  1 O  s          
    10     -0.418598  1 O  dxx               15     -0.273563  1 O  dzz        
    16     -0.235693  2 H  s                 21     -0.235693  3 H  s          
    17      0.182491  2 H  s                 22      0.182491  3 H  s          

 Vector   10  Occ=0.000000D+00  E= 1.122618D+00
              MO Center=  1.2D-14,  3.4D-16,  3.1D-01, r^2= 1.6D+00
   Bfn.  Coefficient  Atom+Function         Bfn.  Coefficient  Atom+Function  
  ----- ------------  ---------------      ----- ------------  ---------------
     6      1.350140  1 O  s                  2     -0.771432  1 O  s          
    16      0.698210  2 H  s                 21      0.698210  3 H  s          
    17     -0.612046  2 H  s                 22     -0.612046  3 H  s          
     9     -0.410868  1 O  pz                13     -0.377095  1 O  dyy        
    15     -0.206174  1 O  dzz        

 Vector   11  Occ=0.000000D+00  E= 1.147387D+00
              MO Center= -5.1D-16, -3.0D-15, -5.4D-02, r^2= 1.1D+00
   Bfn.  Coefficient  Atom+Function         Bfn.  Coefficient  Atom+Function  
  ----- ------------  ---------------      ----- ------------  ---------------
     8     -1.042919  1 O  py                 4      0.966775  1 O  py         

 Vector   12  Occ=0.000000D+00  E= 1.284886D+00
              MO Center=  1.3D-14, -3.3D-17,  2.8D-02, r^2= 1.6D+00
   Bfn.  Coefficient  Atom+Function         Bfn.  Coefficient  Atom+Function  
  ----- ------------  ---------------      ----- ------------  ---------------
     7      1.778675  1 O  px                17     -1.028978  2 H  s          
    22      1.028978  3 H  s                  3     -0.877231  1 O  px         
    12      0.304881  1 O  dxz               18      0.178869  2 H  px         
    23      0.178869  3 H  px         

 Vector   13  Occ=0.000000D+00  E= 1.412345D+00
              MO Center= -3.8D-14,  1.8D-15,  4.7D-01, r^2= 1.4D+00
   Bfn.  Coefficient  Atom+Function         Bfn.  Coefficient  Atom+Function  
  ----- ------------  ---------------      ----- ------------  ---------------
     6      3.569300  1 O  s                  2     -1.391481  1 O  s          
     9      1.095982  1 O  pz                17     -0.808530  2 H  s          
    22     -0.808530  3 H  s                 10     -0.586956  1 O  dxx        
     5     -0.434780  1 O  pz                15     -0.350652  1 O  dzz        
    16     -0.322626  2 H  s                 21     -0.322626  3 H  s          

 Vector   14  Occ=0.000000D+00  E= 1.796842D+00
              MO Center=  2.8D-15, -6.8D-17,  1.8D-01, r^2= 7.6D-01
   Bfn.  Coefficient  Atom+Function         Bfn.  Coefficient  Atom+Function  
  ----- ------------  ---------------      ----- ------------  ---------------
    11      1.180765  1 O  dxy               19      0.342728  2 H  py         
    24     -0.342728  3 H  py         

 Vector   15  Occ=0.000000D+00  E= 1.812696D+00
              MO Center= -6.5D-16, -1.7D-16,  5.3D-02, r^2= 8.1D-01
   Bfn.  Coefficient  Atom+Function         Bfn.  Coefficient  Atom+Function  
  ----- ------------  ---------------      ----- ------------  ---------------
    15     -0.793915  1 O  dzz                6      0.789261  1 O  s          
     9      0.441263  1 O  pz                13      0.278193  1 O  dyy        
     2     -0.273090  1 O  s                 20     -0.254581  2 H  pz         
    25     -0.254581  3 H  pz                10      0.248903  1 O  dxx        
    16     -0.217793  2 H  s                 21     -0.217793  3 H  s          


 center of mass
 --------------
 x =   0.00000000 y =   0.00000000 z =   0.02931789

 moments of inertia (a.u.)
 ------------------
           2.098117097590           0.000000000000           0.000000000000
           0.000000000000           6.196445222521           0.000000000000
           0.000000000000           0.000000000000           4.098328124931

  Mulliken analysis of the total density
  --------------------------------------

    Atom       Charge   Shell Charges
 -----------   ------   -------------------------------------------------------
    1 O    8     8.78   2.00  0.88  2.91  0.90  2.06  0.03
    2 H    1     0.61   0.47  0.10  0.04
    3 H    1     0.61   0.47  0.10  0.04

       Multipole analysis of the density wrt the origin
       ------------------------------------------------

     L   x y z        total         open         nuclear
     -   - - -        -----         ----         -------
     0   0 0 0     -0.000000      0.000000     10.000000

     1   1 0 0      0.000000      0.000000      0.000000
     1   0 1 0     -0.000000      0.000000      0.000000
     1   0 0 1      1.017721      0.000000      1.246815

     2   2 0 0     -2.859309      0.000000      4.066508
     2   1 1 0     -0.000000      0.000000      0.000000
     2   1 0 1      0.000000      0.000000      0.000000
     2   0 2 0     -5.336752      0.000000      0.000000
     2   0 1 1     -0.000000      0.000000      0.000000
     2   0 0 2     -4.146301      0.000000      2.030795


 Task  times  cpu:        0.4s     wall:        0.4s


                                NWChem Input Module
                                -------------------


 Summary of allocated global arrays
-----------------------------------
  No active global arrays



                         GA Statistics for process    0
                         ------------------------------

       create   destroy   get      put      acc     scatter   gather  read&inc
calls:  602      602     2744     1046     2424        0        0     1768     
number of processes/call 1.30e+00 1.23e+00 1.16e+00 0.00e+00 0.00e+00
bytes total:             2.61e+06 1.46e+06 5.35e+05 0.00e+00 0.00e+00 1.41e+04
bytes remote:            4.34e+05 1.50e+05 2.46e+05 0.00e+00 0.00e+00 0.00e+00
Max memory consumed for GA by this process: 41000 bytes

MA_summarize_allocated_blocks: starting scan ...
MA_summarize_allocated_blocks: scan completed: 0 heap blocks, 0 stack blocks
MA usage statistics:

	allocation statistics:
					      heap	     stack
					      ----	     -----
	current number of blocks	         0	         0
	maximum number of blocks	        20	        23
	current total bytes		         0	         0
	maximum total bytes		     80120	  22509624
	maximum total K-bytes		        81	     22510
	maximum total M-bytes		         1	        23


                                     CITATION
                                     --------
                Please cite the following reference when publishing
                           results obtained with NWChem:

                 M. Valiev, E.J. Bylaska, N. Govind, K. Kowalski,
              T.P. Straatsma, H.J.J. van Dam, D. Wang, J. Nieplocha,
                        E. Apra, T.L. Windus, W.A. de Jong
                 "NWChem: a comprehensive and scalable open-source
                  solution for large scale molecular simulations"
                      Comput. Phys. Commun. 181, 1477 (2010)
                           doi:10.1016/j.cpc.2010.04.018

                                      AUTHORS
                                      -------
          E. Apra, E. J. Bylaska, W. A. de Jong, N. Govind, K. Kowalski,
       T. P. Straatsma, M. Valiev, H. J. J. van Dam, D. Wang, T. L. Windus,
        J. Hammond, J. Autschbach, K. Bhaskaran-Nair, J. Brabec, K. Lopata,
    S. A. Fischer, S. Krishnamoorthy, M. Jacquelin, W. Ma, M. Klemm, O. Villa,
      Y. Chen, V. Anisimov, F. Aquino, S. Hirata, M. T. Hackler, V. Konjkov,
            D. Mejia-Rodriguez, T. Risthaus, M. Malagoli, A. Marenich,
   A. Otero-de-la-Roza, J. Mullin, P. Nichols, R. Peverati, J. Pittner, Y. Zhao,
        P.-D. Fan, A. Fonari, M. J. Williamson, R. J. Harrison, J. R. Rehr,
      M. Dupuis, D. Silverstein, D. M. A. Smith, J. Nieplocha, V. Tipparaju,
    M. Krishnan, B. E. Van Kuiken, A. Vazquez-Mayagoitia, L. Jensen, M. Swart,
      Q. Wu, T. Van Voorhis, A. A. Auer, M. Nooijen, L. D. Crosby, E. Brown,
      G. Cisneros, G. I. Fann, H. Fruchtl, J. Garza, K. Hirao, R. A. Kendall,
      J. A. Nichols, K. Tsemekhman, K. Wolinski, J. Anchell, D. E. Bernholdt,
      P. Borowski, T. Clark, D. Clerc, H. Dachsel, M. J. O. Deegan, K. Dyall,
    D. Elwood, E. Glendening, M. Gutowski, A. C. Hess, J. Jaffe, B. G. Johnson,
     J. Ju, R. Kobayashi, R. Kutteh, Z. Lin, R. Littlefield, X. Long, B. Meng,
      T. Nakajima, S. Niu, L. Pollack, M. Rosing, K. Glaesemann, G. Sandrone,
      M. Stave, H. Taylor, G. Thomas, J. H. van Lenthe, A. T. Wong, Z. Zhang.

 Total times  cpu:        0.4s     wall:        0.4s
