 argument  1 = /home/list1234/source/nwchem-6.8.1-release/QA/tests/cosmo_trichloroethene/cosmo_trichloroethene.nw



============================== echo of input deck ==============================
echo
title "Trichloroethene BLYP/DZVP2 solvated (UA Radii)"

start trichloro_dat

charge 0

geometry  nocenter noautosym
C                      -0.432708   -0.106760   -0.000110
C                       0.651851   -0.916931    0.000102
Cl                     -2.050484   -0.814197   -0.000276
Cl                     -0.368033    1.642387   -0.000113
Cl                      2.309119   -0.349158    0.000383
H                       0.544897   -2.001406    0.000149
end

basis "ao basis" print
H  library "DZVP2 (DFT Orbital)"
C  library "DZVP2 (DFT Orbital)"
Cl library "DZVP2 (DFT Orbital)"
end

dft
   mult 1
   xc becke88 lyp
   convergence lshift 0.05
   iterations 5000
   print cosmo_energies
end
task dft optimize
cosmo
  lineq  0
  radius 1.962
         2.178
         2.376
         2.376
         2.376
         0.000
end
task dft energy


================================================================================


                                         
                                         


              Northwest Computational Chemistry Package (NWChem) 6.8
              ------------------------------------------------------


                    Environmental Molecular Sciences Laboratory
                       Pacific Northwest National Laboratory
                                Richland, WA 99352

                              Copyright (c) 1994-2018
                       Pacific Northwest National Laboratory
                            Battelle Memorial Institute

             NWChem is an open-source computational chemistry package
                        distributed under the terms of the
                      Educational Community License (ECL) 2.0
             A copy of the license is included with this distribution
                              in the LICENSE.TXT file

                                  ACKNOWLEDGMENT
                                  --------------

            This software and its documentation were developed at the
            EMSL at Pacific Northwest National Laboratory, a multiprogram
            national laboratory, operated for the U.S. Department of Energy
            by Battelle under Contract Number DE-AC05-76RL01830. Support
            for this work was provided by the Department of Energy Office
            of Biological and Environmental Research, Office of Basic
            Energy Sciences, and the Office of Advanced Scientific Computing.


           Job information
           ---------------

    hostname        = list1234-B360M-H
    program         = /home/list1234/source/nwchem-6.8.1-release/bin/LINUX64/nwchem
    date            = Sun Jun 30 05:44:45 2019

    compiled        = Sun_Jun_30_05:21:11_2019
    source          = /home/list1234/source/nwchem-6.8.1-release
    nwchem branch   = Development
    nwchem revision = N/A
    ga revision     = 5.6.5
    use scalapack   = T
    input           = /home/list1234/source/nwchem-6.8.1-release/QA/tests/cosmo_trichloroethene/cosmo_trichloroethene.nw
    prefix          = trichloro_dat.
    data base       = ./trichloro_dat.db
    status          = startup
    nproc           =        4
    time left       =     -1s



           Memory information
           ------------------

    heap     =   86247168 doubles =    658.0 Mbytes
    stack    =   86247165 doubles =    658.0 Mbytes
    global   =  172494336 doubles =   1316.0 Mbytes (distinct from heap & stack)
    total    =  344988669 doubles =   2632.1 Mbytes
    verify   = yes
    hardfail = no 


           Directory information
           ---------------------

  0 permanent = .
  0 scratch   = .




                                NWChem Input Module
                                -------------------


                  Trichloroethene BLYP/DZVP2 solvated (UA Radii)
                  ----------------------------------------------

 Scaling coordinates for geometry "geometry" by  1.889725989
 (inverse scale =  0.529177249)


          ------
          auto-z
          ------
  no constraints, skipping    0.0000000000000000     
  no constraints, skipping    0.0000000000000000     


                             Geometry "geometry" -> ""
                             -------------------------

 Output coordinates in angstroms (scale by  1.889725989 to convert to a.u.)

  No.       Tag          Charge          X              Y              Z
 ---- ---------------- ---------- -------------- -------------- --------------
    1 C                    6.0000    -0.43270800    -0.10676000    -0.00011000
    2 C                    6.0000     0.65185100    -0.91693100     0.00010200
    3 Cl                  17.0000    -2.05048400    -0.81419700    -0.00027600
    4 Cl                  17.0000    -0.36803300     1.64238700    -0.00011300
    5 Cl                  17.0000     2.30911900    -0.34915800     0.00038300
    6 H                    1.0000     0.54489700    -2.00140600     0.00014900

      Atomic Mass 
      ----------- 

      C                 12.000000
      Cl                34.968850
      H                  1.007825


 Effective nuclear repulsion energy (a.u.)     311.2008159772

            Nuclear Dipole moment (a.u.) 
            ----------------------------
        X                 Y               Z
 ---------------- ---------------- ----------------
    -0.0000207870    -0.0000151178    -0.0000018897



                                Z-matrix (autoz)
                                -------- 

 Units are Angstrom for bonds and degrees for angles

      Type          Name      I     J     K     L     M      Value
      ----------- --------  ----- ----- ----- ----- ----- ----------
    1 Stretch                  1     2                       1.35375
    2 Stretch                  1     3                       1.76569
    3 Stretch                  1     4                       1.75034
    4 Stretch                  2     5                       1.75183
    5 Stretch                  2     6                       1.08974
    6 Bend                     1     2     5               124.32884
    7 Bend                     1     2     6               121.12746
    8 Bend                     2     1     3               119.62082
    9 Bend                     2     1     4               124.64236
   10 Bend                     3     1     4               115.73683
   11 Bend                     5     2     6               114.54370
   12 Torsion                  3     1     2     5        -179.99609
   13 Torsion                  3     1     2     6           0.00144
   14 Torsion                  4     1     2     5          -0.00108
   15 Torsion                  4     1     2     6         179.99645


            XYZ format geometry
            -------------------
     6
 geometry
 C                    -0.43270800    -0.10676000    -0.00011000
 C                     0.65185100    -0.91693100     0.00010200
 Cl                   -2.05048400    -0.81419700    -0.00027600
 Cl                   -0.36803300     1.64238700    -0.00011300
 Cl                    2.30911900    -0.34915800     0.00038300
 H                     0.54489700    -2.00140600     0.00014900

 ==============================================================================
                                internuclear distances
 ------------------------------------------------------------------------------
       center one      |      center two      | atomic units |  angstroms
 ------------------------------------------------------------------------------
    2 C                |   1 C                |     2.55822  |     1.35375
    3 Cl               |   1 C                |     3.33667  |     1.76569
    4 Cl               |   1 C                |     3.30767  |     1.75034
    5 Cl               |   2 C                |     3.31048  |     1.75183
    6 H                |   2 C                |     2.05930  |     1.08974
 ------------------------------------------------------------------------------
                         number of included internuclear distances:          5
 ==============================================================================



 ==============================================================================
                                 internuclear angles
 ------------------------------------------------------------------------------
        center 1       |       center 2       |       center 3       |  degrees
 ------------------------------------------------------------------------------
    2 C                |   1 C                |   3 Cl               |   119.62
    2 C                |   1 C                |   4 Cl               |   124.64
    3 Cl               |   1 C                |   4 Cl               |   115.74
    1 C                |   2 C                |   5 Cl               |   124.33
    1 C                |   2 C                |   6 H                |   121.13
    5 Cl               |   2 C                |   6 H                |   114.54
 ------------------------------------------------------------------------------
                            number of included internuclear angles:          6
 ==============================================================================



                      Basis "ao basis" -> "" (cartesian)
                      -----
  H (Hydrogen)
  ------------
            Exponent  Coefficients 
       -------------- ---------------------------------------------------------
  1 S  5.09991780E+01  0.009661
  1 S  7.48321810E+00  0.073729
  1 S  1.77746760E+00  0.295858
  1 S  5.19329500E-01  0.715905

  2 S  1.54110000E-01  1.000000

  3 P  7.50000000E-01  1.000000

  C (Carbon)
  ----------
            Exponent  Coefficients 
       -------------- ---------------------------------------------------------
  1 S  5.78415710E+03  0.000819
  1 S  8.69303500E+02  0.006294
  1 S  1.98511640E+02  0.031781
  1 S  5.64299010E+01  0.117273
  1 S  1.82854570E+01  0.303476
  1 S  6.44871460E+00  0.453521
  1 S  2.34185960E+00  0.243059

  2 S  5.45953280E+00 -0.077804
  2 S  4.78196800E-01  0.571495

  3 S  1.45730100E-01  1.000000

  4 P  3.42585630E+01  0.005804
  4 P  7.86389540E+00  0.040640
  4 P  2.34451930E+00  0.155022
  4 P  7.96171500E-01  0.353144
  4 P  2.72680400E-01  0.455006

  5 P  8.92605000E-02  1.000000

  6 D  6.00000000E-01  1.000000

  Cl (Chlorine)
  -------------
            Exponent  Coefficients 
       -------------- ---------------------------------------------------------
  1 S  6.39236260E+04 -0.000574
  1 S  9.52598700E+03 -0.004485
  1 S  2.14631160E+03 -0.023394
  1 S  5.98027410E+02 -0.092805
  1 S  1.90028550E+02 -0.269320
  1 S  6.62619630E+01 -0.462961
  1 S  2.40966080E+01 -0.293712

  2 S  5.29332530E+01  0.095477
  2 S  5.59230800E+00 -0.593016
  2 S  2.09395600E+00 -0.481690

  3 S  3.55768590E+00 -0.180750
  3 S  4.84746900E-01  0.688959

  4 S  1.73304600E-01  1.000000

  5 P  5.83201150E+02 -0.003051
  5 P  1.35447250E+02 -0.024912
  5 P  4.23356250E+01 -0.114711
  5 P  1.51542700E+01 -0.314748
  5 P  5.68306770E+00 -0.478101
  5 P  2.09023900E+00 -0.271770

  6 P  1.09799700E+00 -0.278579
  6 P  3.82276100E-01 -0.545183

  7 P  1.24998500E-01  1.000000

  8 D  7.50000000E-01  1.000000



 Summary of "ao basis" -> "" (cartesian)
 ------------------------------------------------------------------------------
       Tag                 Description            Shells   Functions and Types
 ---------------- ------------------------------  ------  ---------------------
 H                    DZVP2 (DFT Orbital)            3        5   2s1p
 C                    DZVP2 (DFT Orbital)            6       15   3s2p1d
 Cl                   DZVP2 (DFT Orbital)            8       19   4s3p1d




                           NWChem Geometry Optimization
                           ----------------------------




                  Trichloroethene BLYP/DZVP2 solvated (UA Radii)


  no constraints, skipping    0.0000000000000000     
 maximum gradient threshold         (gmax) =   0.000450
 rms gradient threshold             (grms) =   0.000300
 maximum cartesian step threshold   (xmax) =   0.001800
 rms cartesian step threshold       (xrms) =   0.001200
 fixed trust radius                (trust) =   0.300000
 maximum step size to saddle      (sadstp) =   0.100000
 energy precision                  (eprec) =   5.0D-06
 maximum number of steps          (nptopt) =   20
 initial hessian option           (inhess) =    0
 line search option               (linopt) =    1
 hessian update option            (modupd) =    1
 saddle point option              (modsad) =    0
 initial eigen-mode to follow     (moddir) =    0
 initial variable to follow       (vardir) =    0
 follow first negative mode     (firstneg) =    T
 apply conjugacy                    (opcg) =    F
 source of zmatrix                         =   autoz   


          -------------------
          Energy Minimization
          -------------------


 Names of Z-matrix variables 
    1              2              3              4              5         
    6              7              8              9             10         
   11             12             13             14             15         

 Variables with the same non-blank name are constrained to be equal


 Using diagonal initial Hessian 
 Scaling for Hessian diagonals: bonds = 1.00  angles = 0.25  torsions = 0.10

          --------
          Step   0
          --------


                         Geometry "geometry" -> "geometry"
                         ---------------------------------

 Output coordinates in angstroms (scale by  1.889725989 to convert to a.u.)

  No.       Tag          Charge          X              Y              Z
 ---- ---------------- ---------- -------------- -------------- --------------
    1 C                    6.0000    -0.43270800    -0.10676000    -0.00011000
    2 C                    6.0000     0.65185100    -0.91693100     0.00010200
    3 Cl                  17.0000    -2.05048400    -0.81419700    -0.00027600
    4 Cl                  17.0000    -0.36803300     1.64238700    -0.00011300
    5 Cl                  17.0000     2.30911900    -0.34915800     0.00038300
    6 H                    1.0000     0.54489700    -2.00140600     0.00014900

      Atomic Mass 
      ----------- 

      C                 12.000000
      Cl                34.968850
      H                  1.007825


 Effective nuclear repulsion energy (a.u.)     311.2008159772

            Nuclear Dipole moment (a.u.) 
            ----------------------------
        X                 Y               Z
 ---------------- ---------------- ----------------
    -0.0000207870    -0.0000151178    -0.0000018897


                                 NWChem DFT Module
                                 -----------------


                  Trichloroethene BLYP/DZVP2 solvated (UA Radii)




 Summary of "ao basis" -> "ao basis" (cartesian)
 ------------------------------------------------------------------------------
       Tag                 Description            Shells   Functions and Types
 ---------------- ------------------------------  ------  ---------------------
 H                    DZVP2 (DFT Orbital)            3        5   2s1p
 C                    DZVP2 (DFT Orbital)            6       15   3s2p1d
 Cl                   DZVP2 (DFT Orbital)            8       19   4s3p1d


  Caching 1-el integrals 

            General Information
            -------------------
          SCF calculation type: DFT
          Wavefunction type:  closed shell.
          No. of atoms     :     6
          No. of electrons :    64
           Alpha electrons :    32
            Beta electrons :    32
          Charge           :     0
          Spin multiplicity:     1
          Use of symmetry is: off; symmetry adaption is: off
          Maximum number of iterations: ***
          AO basis - number of functions:    92
                     number of shells:    39
          Convergence on energy requested:  1.00D-06
          Convergence on density requested:  1.00D-05
          Convergence on gradient requested:  5.00D-04

              XC Information
              --------------
                    Becke 1988 Exchange Functional  1.000          
              Lee-Yang-Parr Correlation Functional  1.000          

             Grid Information
             ----------------
          Grid used for XC integration:  medium    
          Radial quadrature: Mura-Knowles        
          Angular quadrature: Lebedev. 
          Tag              B.-S. Rad. Rad. Pts. Rad. Cut. Ang. Pts.
          ---              ---------- --------- --------- ---------
          C                   0.70       49           9.0       434
          Cl                  1.00       88          11.0       590
          H                   0.35       45          10.0       434
          Grid pruning is: on 
          Number of quadrature shells:   407
          Spatial weights used:  Erf1

          Convergence Information
          -----------------------
          Convergence aids based upon iterative change in 
          total energy or number of iterations. 
          Levelshifting, if invoked, occurs when the 
          HOMO/LUMO gap drops below (HL_TOL):  1.00D-02
          DIIS, if invoked, will attempt to extrapolate 
          using up to (NFOCK): 10 stored Fock matrices.

                    Damping( 0%)  Levelshifting(0.1)       DIIS
                  --------------- ------------------- ---------------
          dE  on:    start            ASAP                start   
          dE off:    2 iters        *** iters           *** iters 


      Screening Tolerance Information
      -------------------------------
          Density screening/tol_rho:  1.00D-10
          AO Gaussian exp screening on grid/accAOfunc:  14
          CD Gaussian exp screening on grid/accCDfunc:  20
          XC Gaussian exp screening on grid/accXCfunc:  20
          Schwarz screening/accCoul:  1.00D-08


      Superposition of Atomic Density Guess
      -------------------------------------

 Sum of atomic energies:       -1454.14620161

      Non-variational initial energy
      ------------------------------

 Total energy =   -1455.753680
 1-e energy   =   -2626.529178
 2-e energy   =     859.574682
 HOMO         =      -0.238917
 LUMO         =       0.023867

   Time after variat. SCF:      0.4
   Time prior to 1st pass:      0.4

 Grid_pts file          = ./trichloro_dat.gridpts.0
 Record size in doubles =  12289        No. of grid_pts per rec  =   3070
 Max. records in memory =     23        Max. recs in file   = 253312716


           Memory utilization after 1st SCF pass: 
           Heap Space remaining (MW):       51.53            51525936
          Stack Space remaining (MW):       86.25            86246524

   convergence    iter        energy       DeltaE   RMS-Dens  Diis-err    time
 ---------------- ----- ----------------- --------- --------- ---------  ------
 d= 0,ls=0.0,diis     1  -1457.2112694156 -1.77D+03  2.54D-02  1.32D+00     1.1
 d= 0,ls=0.0,diis     2  -1456.7467855441  4.64D-01  2.09D-02  4.45D+00     1.8
 d= 0,ls=0.0,diis     3  -1457.3078056035 -5.61D-01  6.57D-03  2.01D-01     2.5
 d= 0,ls=0.0,diis     4  -1457.3200940187 -1.23D-02  3.93D-03  1.09D-01     3.2
 d= 0,ls=0.0,diis     5  -1457.3349117386 -1.48D-02  1.05D-03  1.02D-02     3.9
  Resetting Diis
 d= 0,ls=0.0,diis     6  -1457.3362592534 -1.35D-03  2.60D-04  4.38D-04     4.7
 d= 0,ls=0.0,diis     7  -1457.3363121153 -5.29D-05  2.35D-04  4.63D-05     5.4
 d= 0,ls=0.0,diis     8  -1457.3362987435  1.34D-05  1.51D-04  1.25D-04     6.1
 d= 0,ls=0.0,diis     9  -1457.3363193168 -2.06D-05  2.00D-05  4.28D-06     6.8
 d= 0,ls=0.0,diis    10  -1457.3363198333 -5.17D-07  6.02D-06  3.01D-07     7.5


         Total DFT energy =    -1457.336319833341
      One electron energy =    -2628.055695326304
           Coulomb energy =      955.218143096468
    Exchange-Corr. energy =      -95.699583580670
 Nuclear repulsion energy =      311.200815977165

 Numeric. integr. density =       63.999999318509

     Total iterative time =      7.1s



                       DFT Final Molecular Orbital Analysis
                       ------------------------------------

 Vector    1  Occ=2.000000D+00  E=-1.007925D+02
              MO Center= -3.7D-01,  1.6D+00, -1.1D-04, r^2= 3.2D-03
   Bfn.  Coefficient  Atom+Function         Bfn.  Coefficient  Atom+Function  
  ----- ------------  ---------------      ----- ------------  ---------------
    50      0.997583  4 Cl s          

 Vector    2  Occ=2.000000D+00  E=-1.007917D+02
              MO Center= -2.1D+00, -8.1D-01, -2.8D-04, r^2= 3.2D-03
   Bfn.  Coefficient  Atom+Function         Bfn.  Coefficient  Atom+Function  
  ----- ------------  ---------------      ----- ------------  ---------------
    31      0.997583  3 Cl s          

 Vector    3  Occ=2.000000D+00  E=-1.007854D+02
              MO Center=  2.3D+00, -3.5D-01,  3.8D-04, r^2= 3.2D-03
   Bfn.  Coefficient  Atom+Function         Bfn.  Coefficient  Atom+Function  
  ----- ------------  ---------------      ----- ------------  ---------------
    69      0.997584  5 Cl s          

 Vector    4  Occ=2.000000D+00  E=-1.006243D+01
              MO Center= -4.3D-01, -1.1D-01, -1.1D-04, r^2= 2.8D-02
   Bfn.  Coefficient  Atom+Function         Bfn.  Coefficient  Atom+Function  
  ----- ------------  ---------------      ----- ------------  ---------------
     1      1.002081  1 C  s          

 Vector    5  Occ=2.000000D+00  E=-1.001741D+01
              MO Center=  6.5D-01, -9.2D-01,  1.0D-04, r^2= 2.8D-02
   Bfn.  Coefficient  Atom+Function         Bfn.  Coefficient  Atom+Function  
  ----- ------------  ---------------      ----- ------------  ---------------
    16      1.002043  2 C  s          

 Vector    6  Occ=2.000000D+00  E=-9.209896D+00
              MO Center= -3.7D-01,  1.6D+00, -1.1D-04, r^2= 6.7D-02
   Bfn.  Coefficient  Atom+Function         Bfn.  Coefficient  Atom+Function  
  ----- ------------  ---------------      ----- ------------  ---------------
    51      1.044703  4 Cl s                 50     -0.307117  4 Cl s          

 Vector    7  Occ=2.000000D+00  E=-9.209170D+00
              MO Center= -2.0D+00, -8.1D-01, -2.8D-04, r^2= 6.7D-02
   Bfn.  Coefficient  Atom+Function         Bfn.  Coefficient  Atom+Function  
  ----- ------------  ---------------      ----- ------------  ---------------
    32      1.044689  3 Cl s                 31     -0.307116  3 Cl s          

 Vector    8  Occ=2.000000D+00  E=-9.202504D+00
              MO Center=  2.3D+00, -3.5D-01,  3.8D-04, r^2= 6.6D-02
   Bfn.  Coefficient  Atom+Function         Bfn.  Coefficient  Atom+Function  
  ----- ------------  ---------------      ----- ------------  ---------------
    70      1.044671  5 Cl s                 69     -0.307121  5 Cl s          

 Vector    9  Occ=2.000000D+00  E=-7.049096D+00
              MO Center= -3.7D-01,  1.6D+00, -1.1D-04, r^2= 5.8D-02
   Bfn.  Coefficient  Atom+Function         Bfn.  Coefficient  Atom+Function  
  ----- ------------  ---------------      ----- ------------  ---------------
    55      0.996038  4 Cl py                54      0.041265  4 Cl px         

 Vector   10  Occ=2.000000D+00  E=-7.048388D+00
              MO Center= -2.1D+00, -8.1D-01, -2.8D-04, r^2= 5.8D-02
   Bfn.  Coefficient  Atom+Function         Bfn.  Coefficient  Atom+Function  
  ----- ------------  ---------------      ----- ------------  ---------------
    35      0.910341  3 Cl px                36      0.406280  3 Cl py         

 Vector   11  Occ=2.000000D+00  E=-7.041478D+00
              MO Center=  2.3D+00, -3.5D-01,  3.8D-04, r^2= 5.8D-02
   Bfn.  Coefficient  Atom+Function         Bfn.  Coefficient  Atom+Function  
  ----- ------------  ---------------      ----- ------------  ---------------
    73      0.949312  5 Cl px                74      0.304336  5 Cl py         

 Vector   12  Occ=2.000000D+00  E=-7.036724D+00
              MO Center= -3.7D-01,  1.6D+00, -1.1D-04, r^2= 5.8D-02
   Bfn.  Coefficient  Atom+Function         Bfn.  Coefficient  Atom+Function  
  ----- ------------  ---------------      ----- ------------  ---------------
    56      0.997076  4 Cl pz         

 Vector   13  Occ=2.000000D+00  E=-7.036000D+00
              MO Center= -3.7D-01,  1.6D+00, -1.1D-04, r^2= 5.8D-02
   Bfn.  Coefficient  Atom+Function         Bfn.  Coefficient  Atom+Function  
  ----- ------------  ---------------      ----- ------------  ---------------
    54      0.996229  4 Cl px                55     -0.041272  4 Cl py         

 Vector   14  Occ=2.000000D+00  E=-7.035731D+00
              MO Center= -2.1D+00, -8.1D-01, -2.8D-04, r^2= 5.8D-02
   Bfn.  Coefficient  Atom+Function         Bfn.  Coefficient  Atom+Function  
  ----- ------------  ---------------      ----- ------------  ---------------
    37      0.997078  3 Cl pz         

 Vector   15  Occ=2.000000D+00  E=-7.035538D+00
              MO Center= -2.1D+00, -8.1D-01, -2.8D-04, r^2= 5.8D-02
   Bfn.  Coefficient  Atom+Function         Bfn.  Coefficient  Atom+Function  
  ----- ------------  ---------------      ----- ------------  ---------------
    36      0.910515  3 Cl py                35     -0.406357  3 Cl px         

 Vector   16  Occ=2.000000D+00  E=-7.029591D+00
              MO Center=  2.3D+00, -3.5D-01,  3.8D-04, r^2= 5.8D-02
   Bfn.  Coefficient  Atom+Function         Bfn.  Coefficient  Atom+Function  
  ----- ------------  ---------------      ----- ------------  ---------------
    75      0.997076  5 Cl pz         

 Vector   17  Occ=2.000000D+00  E=-7.028637D+00
              MO Center=  2.3D+00, -3.5D-01,  3.8D-04, r^2= 5.8D-02
   Bfn.  Coefficient  Atom+Function         Bfn.  Coefficient  Atom+Function  
  ----- ------------  ---------------      ----- ------------  ---------------
    74      0.949490  5 Cl py                73     -0.304395  5 Cl px         

 Vector   18  Occ=2.000000D+00  E=-8.503382D-01
              MO Center= -4.6D-01,  7.5D-02, -8.5D-05, r^2= 2.5D+00
   Bfn.  Coefficient  Atom+Function         Bfn.  Coefficient  Atom+Function  
  ----- ------------  ---------------      ----- ------------  ---------------
    52      0.311145  4 Cl s                 33      0.291904  3 Cl s          
     2      0.283884  1 C  s                 51      0.189546  4 Cl s          
    32      0.177696  3 Cl s                 53      0.176757  4 Cl s          
    17      0.169508  2 C  s                 71      0.164364  5 Cl s          
    34      0.163169  3 Cl s                  1     -0.132563  1 C  s          

 Vector   19  Occ=2.000000D+00  E=-7.985252D-01
              MO Center=  1.2D+00, -4.4D-01,  2.1D-04, r^2= 3.0D+00
   Bfn.  Coefficient  Atom+Function         Bfn.  Coefficient  Atom+Function  
  ----- ------------  ---------------      ----- ------------  ---------------
    71      0.498464  5 Cl s                 70      0.300810  5 Cl s          
    72      0.300407  5 Cl s                 33     -0.230070  3 Cl s          
    17      0.181505  2 C  s                 34     -0.141278  3 Cl s          
    32     -0.138862  3 Cl s                 52     -0.124097  4 Cl s          
    19      0.122123  2 C  px                76      0.107632  5 Cl px         

 Vector   20  Occ=2.000000D+00  E=-7.737273D-01
              MO Center= -9.7D-01,  4.1D-01, -1.7D-04, r^2= 2.7D+00
   Bfn.  Coefficient  Atom+Function         Bfn.  Coefficient  Atom+Function  
  ----- ------------  ---------------      ----- ------------  ---------------
    52      0.458216  4 Cl s                 33     -0.413114  3 Cl s          
    53      0.290331  4 Cl s                 51      0.274117  4 Cl s          
    34     -0.265576  3 Cl s                 32     -0.247754  3 Cl s          
     5      0.171749  1 C  py                 4      0.087339  1 C  px         
    50     -0.069282  4 Cl s                 58      0.067319  4 Cl py         

 Vector   21  Occ=2.000000D+00  E=-6.681539D-01
              MO Center=  2.4D-01, -4.5D-01,  3.6D-05, r^2= 3.0D+00
   Bfn.  Coefficient  Atom+Function         Bfn.  Coefficient  Atom+Function  
  ----- ------------  ---------------      ----- ------------  ---------------
    71     -0.298734  5 Cl s                 17      0.297088  2 C  s          
     2      0.241345  1 C  s                 33     -0.238653  3 Cl s          
    72     -0.210794  5 Cl s                  4      0.190655  1 C  px         
    19     -0.189185  2 C  px                52     -0.182553  4 Cl s          
    34     -0.178662  3 Cl s                 70     -0.174367  5 Cl s          

 Vector   22  Occ=2.000000D+00  E=-5.237006D-01
              MO Center=  1.0D-01, -2.7D-01,  1.8D-05, r^2= 4.1D+00
   Bfn.  Coefficient  Atom+Function         Bfn.  Coefficient  Atom+Function  
  ----- ------------  ---------------      ----- ------------  ---------------
     2      0.274604  1 C  s                 58      0.261480  4 Cl py         
    20      0.237999  2 C  py                 3      0.219884  1 C  s          
    17     -0.216617  2 C  s                 18     -0.211399  2 C  s          
    52     -0.211273  4 Cl s                 53     -0.187287  4 Cl s          
    88     -0.186648  6 H  s                 38     -0.161958  3 Cl px         

 Vector   23  Occ=2.000000D+00  E=-4.592158D-01
              MO Center= -4.6D-01, -6.8D-01, -5.6D-05, r^2= 3.4D+00
   Bfn.  Coefficient  Atom+Function         Bfn.  Coefficient  Atom+Function  
  ----- ------------  ---------------      ----- ------------  ---------------
     4      0.382272  1 C  px                20      0.376361  2 C  py         
    38      0.354365  3 Cl px                76      0.184833  5 Cl px         
    34      0.178480  3 Cl s                 33      0.170528  3 Cl s          
    88     -0.163517  6 H  s                 39      0.161812  3 Cl py         
    35     -0.142435  3 Cl px                57     -0.136822  4 Cl px         

 Vector   24  Occ=2.000000D+00  E=-4.425867D-01
              MO Center=  5.2D-01,  1.8D-01,  6.7D-05, r^2= 3.7D+00
   Bfn.  Coefficient  Atom+Function         Bfn.  Coefficient  Atom+Function  
  ----- ------------  ---------------      ----- ------------  ---------------
     5      0.373499  1 C  py                58      0.366805  4 Cl py         
    19      0.362623  2 C  px                76      0.307441  5 Cl px         
    53     -0.178058  4 Cl s                 77      0.174038  5 Cl py         
    72     -0.167557  5 Cl s                  4     -0.155972  1 C  px         
    55     -0.147087  4 Cl py                39     -0.133363  3 Cl py         

 Vector   25  Occ=2.000000D+00  E=-3.864541D-01
              MO Center=  3.1D-01, -3.1D-01,  6.1D-05, r^2= 4.8D+00
   Bfn.  Coefficient  Atom+Function         Bfn.  Coefficient  Atom+Function  
  ----- ------------  ---------------      ----- ------------  ---------------
    76      0.416759  5 Cl px                58     -0.338021  4 Cl py         
    38     -0.323424  3 Cl px                20      0.272921  2 C  py         
     5     -0.214940  1 C  py                19      0.212779  2 C  px         
     4     -0.175363  1 C  px                88     -0.169633  6 H  s          
    73     -0.163474  5 Cl px                39     -0.146439  3 Cl py         

 Vector   26  Occ=2.000000D+00  E=-3.774460D-01
              MO Center= -3.1D-01, -3.0D-02, -7.1D-05, r^2= 3.1D+00
   Bfn.  Coefficient  Atom+Function         Bfn.  Coefficient  Atom+Function  
  ----- ------------  ---------------      ----- ------------  ---------------
     6      0.427894  1 C  pz                59     -0.345057  4 Cl pz         
    40     -0.329893  3 Cl pz                21      0.289985  2 C  pz         
    78     -0.219832  5 Cl pz                56      0.134183  4 Cl pz         
    37      0.128304  3 Cl pz                62      0.115579  4 Cl pz         
    43      0.110385  3 Cl pz                75      0.085770  5 Cl pz         

 Vector   27  Occ=2.000000D+00  E=-3.184471D-01
              MO Center=  1.2D+00, -3.3D-01,  2.0D-04, r^2= 4.2D+00
   Bfn.  Coefficient  Atom+Function         Bfn.  Coefficient  Atom+Function  
  ----- ------------  ---------------      ----- ------------  ---------------
    78      0.629882  5 Cl pz                40     -0.317917  3 Cl pz         
    81     -0.251869  5 Cl pz                75     -0.242128  5 Cl pz         
    21     -0.236036  2 C  pz                59     -0.223821  4 Cl pz         
    43      0.128599  3 Cl pz                37      0.122072  3 Cl pz         
    56      0.085601  4 Cl pz                62      0.080991  4 Cl pz         

 Vector   28  Occ=2.000000D+00  E=-3.117473D-01
              MO Center= -1.1D+00,  3.4D-01, -1.8D-04, r^2= 3.5D+00
   Bfn.  Coefficient  Atom+Function         Bfn.  Coefficient  Atom+Function  
  ----- ------------  ---------------      ----- ------------  ---------------
    57      0.508186  4 Cl px                39     -0.419013  3 Cl py         
    38      0.349960  3 Cl px                60     -0.208316  4 Cl px         
    54     -0.194759  4 Cl px                42      0.176016  3 Cl py         
    36      0.160795  3 Cl py                58     -0.152678  4 Cl py         
    41     -0.139878  3 Cl px                18      0.133389  2 C  s          

 Vector   29  Occ=2.000000D+00  E=-2.997685D-01
              MO Center= -1.1D+00,  5.0D-01, -1.8D-04, r^2= 3.4D+00
   Bfn.  Coefficient  Atom+Function         Bfn.  Coefficient  Atom+Function  
  ----- ------------  ---------------      ----- ------------  ---------------
    59     -0.593182  4 Cl pz                40      0.542166  3 Cl pz         
    62      0.257250  4 Cl pz                43     -0.240790  3 Cl pz         
    56      0.226596  4 Cl pz                37     -0.207329  3 Cl pz         
    78      0.055723  5 Cl pz                14      0.044773  1 C  dyz        
    21     -0.039444  2 C  pz         

 Vector   30  Occ=2.000000D+00  E=-2.926980D-01
              MO Center=  6.0D-01, -2.4D-01,  1.1D-04, r^2= 5.4D+00
   Bfn.  Coefficient  Atom+Function         Bfn.  Coefficient  Atom+Function  
  ----- ------------  ---------------      ----- ------------  ---------------
    77      0.560309  5 Cl py                39      0.429342  3 Cl py         
    57      0.307268  4 Cl px                80     -0.246343  5 Cl py         
    74     -0.214300  5 Cl py                42     -0.186255  3 Cl py         
    36     -0.163565  3 Cl py                60     -0.133161  4 Cl px         
    20      0.130529  2 C  py                54     -0.117237  4 Cl px         

 Vector   31  Occ=2.000000D+00  E=-2.809224D-01
              MO Center=  3.6D-01,  2.2D-01,  5.6D-05, r^2= 5.4D+00
   Bfn.  Coefficient  Atom+Function         Bfn.  Coefficient  Atom+Function  
  ----- ------------  ---------------      ----- ------------  ---------------
    57      0.501723  4 Cl px                77     -0.489756  5 Cl py         
    39      0.379150  3 Cl py                60     -0.215886  4 Cl px         
    80      0.213864  5 Cl py                54     -0.190438  4 Cl px         
    74      0.186690  5 Cl py                76      0.186907  5 Cl px         
    42     -0.165411  3 Cl py                36     -0.143992  3 Cl py         

 Vector   32  Occ=2.000000D+00  E=-2.272601D-01
              MO Center=  2.3D-01, -2.6D-01,  2.5D-05, r^2= 3.9D+00
   Bfn.  Coefficient  Atom+Function         Bfn.  Coefficient  Atom+Function  
  ----- ------------  ---------------      ----- ------------  ---------------
    21      0.442081  2 C  pz                 6      0.414842  1 C  pz         
    78      0.401129  5 Cl pz                40      0.338242  3 Cl pz         
    59      0.304676  4 Cl pz                81     -0.225648  5 Cl pz         
    43     -0.189155  3 Cl pz                62     -0.178503  4 Cl pz         
    75     -0.151535  5 Cl pz                37     -0.127516  3 Cl pz         

 Vector   33  Occ=0.000000D+00  E=-6.436913D-02
              MO Center=  1.4D-01, -4.5D-01, -1.8D-04, r^2= 2.8D+00
   Bfn.  Coefficient  Atom+Function         Bfn.  Coefficient  Atom+Function  
  ----- ------------  ---------------      ----- ------------  ---------------
     6      0.650327  1 C  pz                 9      0.625066  1 C  pz         
    24     -0.628024  2 C  pz                21     -0.588257  2 C  pz         
    81      0.237252  5 Cl pz                62     -0.235406  4 Cl pz         
    43     -0.225252  3 Cl pz                78     -0.198947  5 Cl pz         
    59      0.193626  4 Cl pz                40      0.162912  3 Cl pz         

 Vector   34  Occ=0.000000D+00  E=-5.687415D-02
              MO Center= -9.4D-01, -1.6D-01,  2.3D-05, r^2= 4.3D+00
   Bfn.  Coefficient  Atom+Function         Bfn.  Coefficient  Atom+Function  
  ----- ------------  ---------------      ----- ------------  ---------------
     3      1.355498  1 C  s                 34     -0.572452  3 Cl s          
    41     -0.557736  3 Cl px                18     -0.546916  2 C  s          
    38      0.452481  3 Cl px                 4     -0.427679  1 C  px         
    61      0.379165  4 Cl py                 2      0.335974  1 C  s          
    58     -0.286017  4 Cl py                 7     -0.279539  1 C  px         

 Vector   35  Occ=0.000000D+00  E=-4.257628D-02
              MO Center=  5.5D-01,  2.5D-01,  6.7D-05, r^2= 4.2D+00
   Bfn.  Coefficient  Atom+Function         Bfn.  Coefficient  Atom+Function  
  ----- ------------  ---------------      ----- ------------  ---------------
     3      0.654312  1 C  s                  5      0.536110  1 C  py         
    53     -0.517280  4 Cl s                 61      0.508290  4 Cl py         
    18      0.488184  2 C  s                 19      0.456302  2 C  px         
    79      0.438471  5 Cl px                72     -0.433692  5 Cl s          
    58     -0.407215  4 Cl py                 8      0.401201  1 C  py         

 Vector   36  Occ=0.000000D+00  E= 2.783366D-02
              MO Center=  4.7D-01, -7.9D-01,  9.4D-05, r^2= 5.2D+00
   Bfn.  Coefficient  Atom+Function         Bfn.  Coefficient  Atom+Function  
  ----- ------------  ---------------      ----- ------------  ---------------
    18      1.622307  2 C  s                  7     -0.855243  1 C  px         
    72     -0.603749  5 Cl s                 34     -0.588771  3 Cl s          
    89     -0.570961  6 H  s                 79      0.545605  5 Cl px         
    23      0.509767  2 C  py                 3     -0.487098  1 C  s          
     4     -0.459609  1 C  px                 5     -0.358243  1 C  py         

 Vector   37  Occ=0.000000D+00  E= 1.028544D-01
              MO Center=  5.7D-01, -8.5D-01,  1.0D-04, r^2= 7.3D+00
   Bfn.  Coefficient  Atom+Function         Bfn.  Coefficient  Atom+Function  
  ----- ------------  ---------------      ----- ------------  ---------------
    22      1.631183  2 C  px                 3      1.542434  1 C  s          
    18     -1.337969  2 C  s                  7      1.252399  1 C  px         
    23     -1.086193  2 C  py                 8     -0.988590  1 C  py         
    72     -0.718472  5 Cl s                 53      0.643005  4 Cl s          
    34      0.397571  3 Cl s                 61     -0.390218  4 Cl py         

 Vector   38  Occ=0.000000D+00  E= 1.453070D-01
              MO Center=  1.5D-01, -1.2D+00,  2.2D-05, r^2= 5.4D+00
   Bfn.  Coefficient  Atom+Function         Bfn.  Coefficient  Atom+Function  
  ----- ------------  ---------------      ----- ------------  ---------------
    22      1.343433  2 C  px                23      1.256268  2 C  py         
    72     -0.940356  5 Cl s                 20     -0.584450  2 C  py         
     8     -0.487807  1 C  py                41      0.441751  3 Cl px         
    19     -0.375310  2 C  px                 7      0.304315  1 C  px         
    61      0.291728  4 Cl py                34      0.284018  3 Cl s          

 Vector   39  Occ=0.000000D+00  E= 1.760017D-01
              MO Center= -4.1D-01,  4.4D-01, -1.6D-04, r^2= 5.9D+00
   Bfn.  Coefficient  Atom+Function         Bfn.  Coefficient  Atom+Function  
  ----- ------------  ---------------      ----- ------------  ---------------
     8      3.196506  1 C  py                53     -1.537031  4 Cl s          
    18      0.993758  2 C  s                 23     -0.953000  2 C  py         
    34      0.704050  3 Cl s                 22     -0.608638  2 C  px         
    61      0.571624  4 Cl py                 5     -0.492168  1 C  py         
    72      0.402377  5 Cl s                 41      0.384449  3 Cl px         

 Vector   40  Occ=0.000000D+00  E= 1.837363D-01
              MO Center=  2.3D-01, -7.0D-01, -1.7D-05, r^2= 4.5D+00
   Bfn.  Coefficient  Atom+Function         Bfn.  Coefficient  Atom+Function  
  ----- ------------  ---------------      ----- ------------  ---------------
    24      0.852021  2 C  pz                21     -0.615383  2 C  pz         
     9      0.480940  1 C  pz                 6     -0.377695  1 C  pz         
    40      0.214668  3 Cl pz                59      0.181803  4 Cl pz         
    78      0.172119  5 Cl pz                81     -0.090107  5 Cl pz         
    37     -0.065193  3 Cl pz                56     -0.055686  4 Cl pz         

 Vector   41  Occ=0.000000D+00  E= 2.121930D-01
              MO Center= -4.6D-01, -4.3D-01, -1.0D-04, r^2= 6.7D+00
   Bfn.  Coefficient  Atom+Function         Bfn.  Coefficient  Atom+Function  
  ----- ------------  ---------------      ----- ------------  ---------------
     7      2.966419  1 C  px                22     -1.980747  2 C  px         
    34      1.364611  3 Cl s                 18     -0.964773  2 C  s          
     3     -0.905546  1 C  s                 72      0.707259  5 Cl s          
     8      0.647376  1 C  py                60     -0.606137  4 Cl px         
    42      0.505197  3 Cl py                41      0.472531  3 Cl px         

 Vector   42  Occ=0.000000D+00  E= 2.231980D-01
              MO Center=  4.3D-01, -5.6D-01,  3.8D-05, r^2= 7.8D+00
   Bfn.  Coefficient  Atom+Function         Bfn.  Coefficient  Atom+Function  
  ----- ------------  ---------------      ----- ------------  ---------------
    23      3.696926  2 C  py                89      2.977929  6 H  s          
     8     -2.119026  1 C  py                18     -1.308092  2 C  s          
     7     -1.251379  1 C  px                22      1.171450  2 C  px         
    53      1.002286  4 Cl s                 34     -0.780882  3 Cl s          
    72     -0.764219  5 Cl s                 61     -0.572046  4 Cl py         

 Vector   43  Occ=0.000000D+00  E= 2.570037D-01
              MO Center= -8.5D-02, -4.2D-01, -3.2D-05, r^2= 5.4D+00
   Bfn.  Coefficient  Atom+Function         Bfn.  Coefficient  Atom+Function  
  ----- ------------  ---------------      ----- ------------  ---------------
     9      1.910742  1 C  pz                24     -1.681529  2 C  pz         
     6     -0.608942  1 C  pz                21      0.500366  2 C  pz         
    59      0.285588  4 Cl pz                81      0.222781  5 Cl pz         
    43     -0.205502  3 Cl pz                40      0.166572  3 Cl pz         
    62     -0.098048  4 Cl pz                56     -0.083514  4 Cl pz         

 Vector   44  Occ=0.000000D+00  E= 2.874747D-01
              MO Center=  3.6D-01, -2.7D-01,  9.7D-05, r^2= 9.4D+00
   Bfn.  Coefficient  Atom+Function         Bfn.  Coefficient  Atom+Function  
  ----- ------------  ---------------      ----- ------------  ---------------
    18      1.260430  2 C  s                  3     -1.039758  1 C  s          
    41      1.006480  3 Cl px                79      0.996848  5 Cl px         
    76      0.611931  5 Cl px                38      0.602362  3 Cl px         
     7     -0.489316  1 C  px                80      0.443396  5 Cl py         
    60      0.404254  4 Cl px                72     -0.346697  5 Cl s          

 Vector   45  Occ=0.000000D+00  E= 3.001164D-01
              MO Center= -2.1D-01,  8.2D-01, -4.2D-05, r^2= 7.3D+00
   Bfn.  Coefficient  Atom+Function         Bfn.  Coefficient  Atom+Function  
  ----- ------------  ---------------      ----- ------------  ---------------
    61      1.079363  4 Cl py                 3      1.039921  1 C  s          
    58      0.704748  4 Cl py                41     -0.605878  3 Cl px         
    89      0.541534  6 H  s                 79      0.486175  5 Cl px         
    23      0.441214  2 C  py                18     -0.429340  2 C  s          
    39     -0.371852  3 Cl py                80      0.367397  5 Cl py         

 Vector   46  Occ=0.000000D+00  E= 3.286338D-01
              MO Center=  6.1D-01,  4.0D-01,  8.8D-05, r^2= 6.9D+00
   Bfn.  Coefficient  Atom+Function         Bfn.  Coefficient  Atom+Function  
  ----- ------------  ---------------      ----- ------------  ---------------
    23      1.022913  2 C  py                60     -0.924092  4 Cl px         
    89      0.866494  6 H  s                 79      0.770281  5 Cl px         
    57     -0.660122  4 Cl px                80     -0.618444  5 Cl py         
    18     -0.571626  2 C  s                  7      0.566194  1 C  px         
    76      0.490840  5 Cl px                42      0.481726  3 Cl py         

 Vector   47  Occ=0.000000D+00  E= 3.382039D-01
              MO Center=  2.6D-01, -3.8D-02,  6.9D-05, r^2= 7.8D+00
   Bfn.  Coefficient  Atom+Function         Bfn.  Coefficient  Atom+Function  
  ----- ------------  ---------------      ----- ------------  ---------------
    81      0.904587  5 Cl pz                43     -0.733818  3 Cl pz         
    78      0.710767  5 Cl pz                40     -0.621291  3 Cl pz         
    62      0.621734  4 Cl pz                59      0.528064  4 Cl pz         
    24     -0.363354  2 C  pz                75     -0.192181  5 Cl pz         
    37      0.168125  3 Cl pz                56     -0.142592  4 Cl pz         

 Vector   48  Occ=0.000000D+00  E= 3.425405D-01
              MO Center= -5.3D-01, -3.6D-01, -4.0D-05, r^2= 4.9D+00
   Bfn.  Coefficient  Atom+Function         Bfn.  Coefficient  Atom+Function  
  ----- ------------  ---------------      ----- ------------  ---------------
     3      1.022449  1 C  s                 42      0.798924  3 Cl py         
     8     -0.750849  1 C  py                53      0.710433  4 Cl s          
    17     -0.513980  2 C  s                 39      0.437823  3 Cl py         
    23     -0.420309  2 C  py                89     -0.407892  6 H  s          
    80      0.372468  5 Cl py                52     -0.348368  4 Cl s          

 Vector   49  Occ=0.000000D+00  E= 3.568675D-01
              MO Center=  7.4D-01, -2.2D-01,  1.3D-04, r^2= 4.8D+00
   Bfn.  Coefficient  Atom+Function         Bfn.  Coefficient  Atom+Function  
  ----- ------------  ---------------      ----- ------------  ---------------
    80      0.697332  5 Cl py                61     -0.583514  4 Cl py         
     2      0.559923  1 C  s                  3     -0.557617  1 C  s          
    77      0.468768  5 Cl py                23     -0.397526  2 C  py         
    19      0.372072  2 C  px                 4      0.362609  1 C  px         
    58     -0.362429  4 Cl py                18     -0.344721  2 C  s          

 Vector   50  Occ=0.000000D+00  E= 3.759110D-01
              MO Center= -1.3D+00, -1.2D-01, -8.6D-05, r^2= 6.5D+00
   Bfn.  Coefficient  Atom+Function         Bfn.  Coefficient  Atom+Function  
  ----- ------------  ---------------      ----- ------------  ---------------
     9      1.377319  1 C  pz                43     -1.334560  3 Cl pz         
    62     -0.948870  4 Cl pz                40     -0.822973  3 Cl pz         
    59     -0.512593  4 Cl pz                81     -0.361022  5 Cl pz         
    24     -0.308699  2 C  pz                78     -0.293700  5 Cl pz         
     6     -0.265926  1 C  pz                37      0.216552  3 Cl pz         

 Vector   51  Occ=0.000000D+00  E= 3.769126D-01
              MO Center= -1.0D+00, -4.9D-01, -2.8D-04, r^2= 5.8D+00
   Bfn.  Coefficient  Atom+Function         Bfn.  Coefficient  Atom+Function  
  ----- ------------  ---------------      ----- ------------  ---------------
    42     -1.128064  3 Cl py                 8      1.082445  1 C  py         
    39     -0.786514  3 Cl py                18      0.781605  2 C  s          
    23     -0.735816  2 C  py                89     -0.686885  6 H  s          
     3      0.606880  1 C  s                 60     -0.520756  4 Cl px         
    34      0.508862  3 Cl s                 20     -0.336958  2 C  py         

 Vector   52  Occ=0.000000D+00  E= 3.917339D-01
              MO Center=  9.3D-01,  6.2D-01,  1.3D-04, r^2= 6.7D+00
   Bfn.  Coefficient  Atom+Function         Bfn.  Coefficient  Atom+Function  
  ----- ------------  ---------------      ----- ------------  ---------------
    81     -1.119207  5 Cl pz                62      1.099458  4 Cl pz         
    24      0.899859  2 C  pz                 9     -0.874367  1 C  pz         
    78     -0.746743  5 Cl pz                59      0.726480  4 Cl pz         
    40     -0.227531  3 Cl pz                75      0.196917  5 Cl pz         
    67      0.192385  4 Cl dyz               56     -0.190975  4 Cl pz         

 Vector   53  Occ=0.000000D+00  E= 4.088672D-01
              MO Center=  5.7D-01,  2.0D-01,  8.2D-05, r^2= 6.4D+00
   Bfn.  Coefficient  Atom+Function         Bfn.  Coefficient  Atom+Function  
  ----- ------------  ---------------      ----- ------------  ---------------
    23      1.235440  2 C  py                80     -1.051340  5 Cl py         
     7     -1.013585  1 C  px                89      0.951852  6 H  s          
    18     -0.931257  2 C  s                 60      0.932260  4 Cl px         
    77     -0.685218  5 Cl py                57      0.600870  4 Cl px         
    34     -0.570316  3 Cl s                 19      0.396971  2 C  px         

 Vector   54  Occ=0.000000D+00  E= 4.587563D-01
              MO Center=  4.3D-02, -1.4D-01, -1.7D-05, r^2= 7.2D+00
   Bfn.  Coefficient  Atom+Function         Bfn.  Coefficient  Atom+Function  
  ----- ------------  ---------------      ----- ------------  ---------------
    23      2.765933  2 C  py                89      2.237564  6 H  s          
     8     -2.076770  1 C  py                22      1.810167  2 C  px         
    18     -1.744662  2 C  s                  7     -1.522578  1 C  px         
    72     -0.958816  5 Cl s                 34     -0.833694  3 Cl s          
    41      0.636879  3 Cl px                38      0.603550  3 Cl px         

 Vector   55  Occ=0.000000D+00  E= 6.504860D-01
              MO Center= -6.8D-01,  2.5D-01, -1.1D-04, r^2= 3.4D+00
   Bfn.  Coefficient  Atom+Function         Bfn.  Coefficient  Atom+Function  
  ----- ------------  ---------------      ----- ------------  ---------------
    67      0.975239  4 Cl dyz               46      0.890934  3 Cl dxz        
    14     -0.569285  1 C  dyz               84      0.440937  5 Cl dxz        
    12     -0.343224  1 C  dxz               48      0.252240  3 Cl dyz        
    27     -0.229799  2 C  dxz               29     -0.163972  2 C  dyz        
    59     -0.120261  4 Cl pz                86      0.118349  5 Cl dyz        

 Vector   56  Occ=0.000000D+00  E= 7.054874D-01
              MO Center=  1.0D+00, -4.8D-01,  1.7D-04, r^2= 4.0D+00
   Bfn.  Coefficient  Atom+Function         Bfn.  Coefficient  Atom+Function  
  ----- ------------  ---------------      ----- ------------  ---------------
    84      1.177360  5 Cl dxz               46     -0.576188  3 Cl dxz        
    27     -0.511386  2 C  dxz               86      0.467320  5 Cl dyz        
    48     -0.436346  3 Cl dyz               12      0.325953  1 C  dxz        
    65      0.238131  4 Cl dxz               81     -0.187883  5 Cl pz         
    78     -0.179259  5 Cl pz                43     -0.170208  3 Cl pz         

 Vector   57  Occ=0.000000D+00  E= 7.124879D-01
              MO Center= -3.7D-01, -3.7D-01, -5.0D-05, r^2= 4.9D+00
   Bfn.  Coefficient  Atom+Function         Bfn.  Coefficient  Atom+Function  
  ----- ------------  ---------------      ----- ------------  ---------------
     3      3.594487  1 C  s                 72     -1.902383  5 Cl s          
    22      1.400021  2 C  px                34     -1.375106  3 Cl s          
    53     -1.280075  4 Cl s                  2     -1.048347  1 C  s          
    71      0.761122  5 Cl s                  7     -0.667697  1 C  px         
    45      0.586183  3 Cl dxy               61      0.562038  4 Cl py         

 Vector   58  Occ=0.000000D+00  E= 7.407365D-01
              MO Center= -6.3D-02, -3.0D-01, -1.2D-05, r^2= 5.7D+00
   Bfn.  Coefficient  Atom+Function         Bfn.  Coefficient  Atom+Function  
  ----- ------------  ---------------      ----- ------------  ---------------
    34      2.462541  3 Cl s                  7      1.499757  1 C  px         
    18     -1.362209  2 C  s                 72     -1.141081  5 Cl s          
    33     -0.954987  3 Cl s                 53     -0.767083  4 Cl s          
    22      0.624331  2 C  px                89      0.566892  6 H  s          
     8      0.551122  1 C  py                44     -0.472463  3 Cl dxx        

 Vector   59  Occ=0.000000D+00  E= 7.484811D-01
              MO Center=  6.1D-01,  3.2D-01,  7.0D-05, r^2= 4.9D+00
   Bfn.  Coefficient  Atom+Function         Bfn.  Coefficient  Atom+Function  
  ----- ------------  ---------------      ----- ------------  ---------------
    18      2.629005  2 C  s                 72     -2.126537  5 Cl s          
    53      2.090155  4 Cl s                  3     -1.655120  1 C  s          
    89     -1.243491  6 H  s                 22      1.045590  2 C  px         
     8     -1.012925  1 C  py                71      0.797391  5 Cl s          
    52     -0.741286  4 Cl s                 17     -0.654540  2 C  s          

 Vector   60  Occ=0.000000D+00  E= 7.606200D-01
              MO Center=  3.2D-01,  8.7D-02,  5.7D-05, r^2= 4.4D+00
   Bfn.  Coefficient  Atom+Function         Bfn.  Coefficient  Atom+Function  
  ----- ------------  ---------------      ----- ------------  ---------------
    84      0.731366  5 Cl dxz               48      0.708232  3 Cl dyz        
    67     -0.707557  4 Cl dyz               86     -0.638819  5 Cl dyz        
    65     -0.634885  4 Cl dxz                9     -0.368385  1 C  pz         
    29     -0.367143  2 C  dyz               12     -0.311338  1 C  dxz        
    14      0.243643  1 C  dyz               62      0.230720  4 Cl pz         

 Vector   61  Occ=0.000000D+00  E= 7.838411D-01
              MO Center= -8.5D-01,  7.4D-01, -1.5D-04, r^2= 3.0D+00
   Bfn.  Coefficient  Atom+Function         Bfn.  Coefficient  Atom+Function  
  ----- ------------  ---------------      ----- ------------  ---------------
    65      1.368982  4 Cl dxz               48      0.979378  3 Cl dyz        
    86     -0.299120  5 Cl dyz               46     -0.244438  3 Cl dxz        
    84      0.088461  5 Cl dxz               67      0.064275  4 Cl dyz        
    43      0.054121  3 Cl pz                62     -0.044620  4 Cl pz         
    40      0.042040  3 Cl pz                59     -0.030185  4 Cl pz         

 Vector   62  Occ=0.000000D+00  E= 7.856065D-01
              MO Center=  1.4D-02, -7.5D-02, -1.4D-06, r^2= 5.2D+00
   Bfn.  Coefficient  Atom+Function         Bfn.  Coefficient  Atom+Function  
  ----- ------------  ---------------      ----- ------------  ---------------
    18      1.534219  2 C  s                 72     -0.955923  5 Cl s          
    53     -0.625746  4 Cl s                  8      0.621382  1 C  py         
    45     -0.610438  3 Cl dxy               17     -0.494566  2 C  s          
    85     -0.444242  5 Cl dyy               87      0.445196  5 Cl dzz        
    64      0.413390  4 Cl dxy               63     -0.388166  4 Cl dxx        

 Vector   63  Occ=0.000000D+00  E= 7.883941D-01
              MO Center= -3.5D-01, -2.6D-01, -3.1D-05, r^2= 5.2D+00
   Bfn.  Coefficient  Atom+Function         Bfn.  Coefficient  Atom+Function  
  ----- ------------  ---------------      ----- ------------  ---------------
    48      1.029787  3 Cl dyz               86      0.949622  5 Cl dyz        
    46     -0.674909  3 Cl dxz               65     -0.644541  4 Cl dxz        
    67      0.281506  4 Cl dyz               84     -0.244175  5 Cl dxz        
    24      0.171959  2 C  pz                27     -0.087175  2 C  dxz        
    29      0.081121  2 C  dyz                9     -0.069330  1 C  pz         

 Vector   64  Occ=0.000000D+00  E= 7.922130D-01
              MO Center= -7.3D-01,  1.9D-01, -1.3D-04, r^2= 4.3D+00
   Bfn.  Coefficient  Atom+Function         Bfn.  Coefficient  Atom+Function  
  ----- ------------  ---------------      ----- ------------  ---------------
    18      1.849083  2 C  s                 53     -1.485599  4 Cl s          
     7     -1.108989  1 C  px                34     -1.092530  3 Cl s          
     8      0.823893  1 C  py                23      0.666302  2 C  py         
    17     -0.642071  2 C  s                 52      0.568332  4 Cl s          
    47      0.509882  3 Cl dyy               89      0.492250  6 H  s          

 Vector   65  Occ=0.000000D+00  E= 8.021990D-01
              MO Center=  8.4D-01, -3.8D-01,  1.4D-04, r^2= 5.2D+00
   Bfn.  Coefficient  Atom+Function         Bfn.  Coefficient  Atom+Function  
  ----- ------------  ---------------      ----- ------------  ---------------
    89      1.968228  6 H  s                 18     -1.607069  2 C  s          
    23      1.444813  2 C  py                 3     -1.123774  1 C  s          
    83      0.904663  5 Cl dxy               22     -0.683816  2 C  px         
    80     -0.672854  5 Cl py                64     -0.603787  4 Cl dxy        
    72      0.545948  5 Cl s                 17      0.400093  2 C  s          

 Vector   66  Occ=0.000000D+00  E= 8.095471D-01
              MO Center=  4.5D-01,  7.3D-02,  1.1D-04, r^2= 4.8D+00
   Bfn.  Coefficient  Atom+Function         Bfn.  Coefficient  Atom+Function  
  ----- ------------  ---------------      ----- ------------  ---------------
    86      1.124596  5 Cl dyz               67     -0.792833  4 Cl dyz        
    46      0.774946  3 Cl dxz                9     -0.593652  1 C  pz         
    65      0.448107  4 Cl dxz               62      0.300022  4 Cl pz         
    43      0.272748  3 Cl pz                24      0.262965  2 C  pz         
    12     -0.259454  1 C  dxz               14      0.173876  1 C  dyz        

 Vector   67  Occ=0.000000D+00  E= 8.300217D-01
              MO Center=  8.3D-01,  3.5D-02,  1.2D-04, r^2= 4.5D+00
   Bfn.  Coefficient  Atom+Function         Bfn.  Coefficient  Atom+Function  
  ----- ------------  ---------------      ----- ------------  ---------------
    18      2.489535  2 C  s                  3     -2.041107  1 C  s          
    72     -1.140498  5 Cl s                  7     -0.847479  1 C  px         
    23      0.839183  2 C  py                53      0.813339  4 Cl s          
     8     -0.647690  1 C  py                85      0.634098  5 Cl dyy        
    17     -0.547660  2 C  s                 68      0.453161  4 Cl dzz        

 Vector   68  Occ=0.000000D+00  E= 8.380919D-01
              MO Center= -7.1D-02, -1.6D-01, -8.1D-06, r^2= 5.4D+00
   Bfn.  Coefficient  Atom+Function         Bfn.  Coefficient  Atom+Function  
  ----- ------------  ---------------      ----- ------------  ---------------
    23      1.626666  2 C  py                89      1.623444  6 H  s          
     3     -0.979456  1 C  s                 72     -0.860306  5 Cl s          
    83      0.814259  5 Cl dxy               64      0.699052  4 Cl dxy        
    45     -0.622004  3 Cl dxy               47     -0.412859  3 Cl dyy        
    80     -0.373607  5 Cl py                42     -0.360279  3 Cl py         

 Vector   69  Occ=0.000000D+00  E= 8.478204D-01
              MO Center= -7.8D-01,  2.5D-01, -1.5D-04, r^2= 4.3D+00
   Bfn.  Coefficient  Atom+Function         Bfn.  Coefficient  Atom+Function  
  ----- ------------  ---------------      ----- ------------  ---------------
    18      2.967211  2 C  s                  7     -1.845944  1 C  px         
     8      1.470372  1 C  py                 3     -0.882998  1 C  s          
    53     -0.777820  4 Cl s                 64     -0.726661  4 Cl dxy        
    34     -0.703936  3 Cl s                 60      0.607571  4 Cl px         
    89     -0.541979  6 H  s                 44      0.512416  3 Cl dxx        

 Vector   70  Occ=0.000000D+00  E= 8.963721D-01
              MO Center= -1.6D-01, -4.5D-01, -4.4D-05, r^2= 5.0D+00
   Bfn.  Coefficient  Atom+Function         Bfn.  Coefficient  Atom+Function  
  ----- ------------  ---------------      ----- ------------  ---------------
    18      5.193480  2 C  s                  3     -4.445868  1 C  s          
     8      2.868410  1 C  py                22     -2.129513  2 C  px         
    53     -1.645967  4 Cl s                 34      1.326571  3 Cl s          
    89     -1.088615  6 H  s                  2      1.080165  1 C  s          
    17     -1.081307  2 C  s                 23     -0.817264  2 C  py         

 Vector   71  Occ=0.000000D+00  E= 9.408947D-01
              MO Center=  2.0D-01, -1.3D-01,  2.5D-05, r^2= 4.9D+00
   Bfn.  Coefficient  Atom+Function         Bfn.  Coefficient  Atom+Function  
  ----- ------------  ---------------      ----- ------------  ---------------
    53      1.874903  4 Cl s                  8     -1.562330  1 C  py         
     3     -1.496040  1 C  s                 23      1.177674  2 C  py         
    45      0.859674  3 Cl dxy               89      0.861585  6 H  s          
    18     -0.608085  2 C  s                 52     -0.607002  4 Cl s          
    64      0.556890  4 Cl dxy               61     -0.484777  4 Cl py         

 Vector   72  Occ=0.000000D+00  E= 1.006811D+00
              MO Center=  1.7D-01, -6.3D-01,  1.3D-05, r^2= 5.2D+00
   Bfn.  Coefficient  Atom+Function         Bfn.  Coefficient  Atom+Function  
  ----- ------------  ---------------      ----- ------------  ---------------
    89      3.176258  6 H  s                 23      3.058253  2 C  py         
    34     -2.668206  3 Cl s                  7     -2.654272  1 C  px         
     8     -1.666310  1 C  py                22      1.394294  2 C  px         
    72     -1.375372  5 Cl s                 33      0.913387  3 Cl s          
    88     -0.703792  6 H  s                 53      0.572471  4 Cl s          

 Vector   73  Occ=0.000000D+00  E= 1.044906D+00
              MO Center= -3.3D-01, -6.5D-01, -8.7D-05, r^2= 5.7D+00
   Bfn.  Coefficient  Atom+Function         Bfn.  Coefficient  Atom+Function  
  ----- ------------  ---------------      ----- ------------  ---------------
    34      2.629297  3 Cl s                 72     -2.272620  5 Cl s          
    89      1.574534  6 H  s                 23      1.304750  2 C  py         
     7      1.174667  1 C  px                33     -1.119464  3 Cl s          
    71      1.002878  5 Cl s                 18     -0.928615  2 C  s          
     3     -0.880129  1 C  s                 41      0.882281  3 Cl px         

 Vector   74  Occ=0.000000D+00  E= 1.052115D+00
              MO Center=  4.5D-02, -8.1D-01,  8.2D-05, r^2= 2.8D+00
   Bfn.  Coefficient  Atom+Function         Bfn.  Coefficient  Atom+Function  
  ----- ------------  ---------------      ----- ------------  ---------------
    29      0.938841  2 C  dyz                9     -0.643118  1 C  pz         
    46      0.609124  3 Cl dxz               24      0.581145  2 C  pz         
    12      0.519933  1 C  dxz               67     -0.419353  4 Cl dyz        
    48      0.401873  3 Cl dyz               92     -0.380469  6 H  pz         
    84      0.356039  5 Cl dxz               43      0.287144  3 Cl pz         

 Vector   75  Occ=0.000000D+00  E= 1.086452D+00
              MO Center=  7.2D-02,  7.3D-01, -2.2D-05, r^2= 4.9D+00
   Bfn.  Coefficient  Atom+Function         Bfn.  Coefficient  Atom+Function  
  ----- ------------  ---------------      ----- ------------  ---------------
    53      3.759973  4 Cl s                  8     -2.846267  1 C  py         
    72     -1.952425  5 Cl s                 34     -1.855955  3 Cl s          
    22      1.503675  2 C  px                52     -1.446096  4 Cl s          
    23      1.246712  2 C  py                61     -1.098418  4 Cl py         
     7     -0.940036  1 C  px                71      0.745331  5 Cl s          

 Vector   76  Occ=0.000000D+00  E= 1.204381D+00
              MO Center=  4.4D-01, -3.1D-01,  4.9D-05, r^2= 2.4D+00
   Bfn.  Coefficient  Atom+Function         Bfn.  Coefficient  Atom+Function  
  ----- ------------  ---------------      ----- ------------  ---------------
    27      0.977663  2 C  dxz               14      0.957738  1 C  dyz        
    84      0.743609  5 Cl dxz               67      0.649689  4 Cl dyz        
    29      0.298826  2 C  dyz               86      0.268781  5 Cl dyz        
    81     -0.191539  5 Cl pz                12     -0.173192  1 C  dxz        
    21      0.168122  2 C  pz                24      0.164931  2 C  pz         

 Vector   77  Occ=0.000000D+00  E= 1.324268D+00
              MO Center=  5.7D-01, -1.1D+00,  1.1D-04, r^2= 2.5D+00
   Bfn.  Coefficient  Atom+Function         Bfn.  Coefficient  Atom+Function  
  ----- ------------  ---------------      ----- ------------  ---------------
    72      1.537477  5 Cl s                 22     -1.100486  2 C  px         
    26     -0.816329  2 C  dxy               90      0.640201  6 H  px         
    89     -0.585506  6 H  s                  7      0.540019  1 C  px         
    18     -0.533812  2 C  s                 11     -0.528586  1 C  dxy        
    19     -0.450853  2 C  px                23     -0.441213  2 C  py         

 Vector   78  Occ=0.000000D+00  E= 1.374600D+00
              MO Center= -2.5D-01, -5.6D-01, -4.5D-05, r^2= 2.3D+00
   Bfn.  Coefficient  Atom+Function         Bfn.  Coefficient  Atom+Function  
  ----- ------------  ---------------      ----- ------------  ---------------
    12      1.213467  1 C  dxz               14      0.783938  1 C  dyz        
    46      0.605499  3 Cl dxz               92      0.511467  6 H  pz         
    67      0.427161  4 Cl dyz               84     -0.265254  5 Cl dxz        
    24     -0.261041  2 C  pz                27     -0.242505  2 C  dxz        
    48      0.222049  3 Cl dyz               21     -0.207560  2 C  pz         

 Vector   79  Occ=0.000000D+00  E= 1.506610D+00
              MO Center= -2.8D-02, -6.7D-01, -5.1D-06, r^2= 2.8D+00
   Bfn.  Coefficient  Atom+Function         Bfn.  Coefficient  Atom+Function  
  ----- ------------  ---------------      ----- ------------  ---------------
     3      1.749592  1 C  s                 34     -1.681238  3 Cl s          
    89      0.887680  6 H  s                  7     -0.848775  1 C  px         
    53     -0.850205  4 Cl s                 23      0.776720  2 C  py         
    72     -0.778576  5 Cl s                 18      0.762968  2 C  s          
    15     -0.725210  1 C  dzz               30     -0.697267  2 C  dzz        

 Vector   80  Occ=0.000000D+00  E= 1.581250D+00
              MO Center= -3.0D-02, -5.8D-01, -1.3D-05, r^2= 2.5D+00
   Bfn.  Coefficient  Atom+Function         Bfn.  Coefficient  Atom+Function  
  ----- ------------  ---------------      ----- ------------  ---------------
    89      1.570717  6 H  s                 23      1.269705  2 C  py         
    18     -1.101390  2 C  s                  8     -0.998517  1 C  py         
    34     -0.988683  3 Cl s                 53      0.873532  4 Cl s          
     7     -0.840684  1 C  px                13     -0.649039  1 C  dyy        
    10      0.645531  1 C  dxx               22      0.630052  2 C  px         

 Vector   81  Occ=0.000000D+00  E= 1.700582D+00
              MO Center=  1.3D-02, -6.0D-01, -2.3D-05, r^2= 2.4D+00
   Bfn.  Coefficient  Atom+Function         Bfn.  Coefficient  Atom+Function  
  ----- ------------  ---------------      ----- ------------  ---------------
    18      2.012054  2 C  s                 11     -1.427569  1 C  dxy        
    72     -0.921983  5 Cl s                 17     -0.799532  2 C  s          
    53     -0.687738  4 Cl s                 89     -0.642404  6 H  s          
     8      0.582592  1 C  py                19      0.580936  2 C  px         
     3      0.559629  1 C  s                 90     -0.520660  6 H  px         

 Vector   82  Occ=0.000000D+00  E= 1.706293D+00
              MO Center=  2.5D-01, -7.7D-01,  4.5D-05, r^2= 1.9D+00
   Bfn.  Coefficient  Atom+Function         Bfn.  Coefficient  Atom+Function  
  ----- ------------  ---------------      ----- ------------  ---------------
    27      1.437324  2 C  dxz               14     -1.235058  1 C  dyz        
    12      0.643424  1 C  dxz               92      0.573554  6 H  pz         
    21     -0.356614  2 C  pz                84      0.355234  5 Cl dxz        
    29      0.348563  2 C  dyz               67     -0.339469  4 Cl dyz        
    24     -0.206575  2 C  pz                 6      0.196998  1 C  pz         

 Vector   83  Occ=0.000000D+00  E= 1.843447D+00
              MO Center=  2.3D-02, -5.9D-01, -1.8D-05, r^2= 2.3D+00
   Bfn.  Coefficient  Atom+Function         Bfn.  Coefficient  Atom+Function  
  ----- ------------  ---------------      ----- ------------  ---------------
     3      3.645768  1 C  s                 18     -2.400284  2 C  s          
    15     -1.030831  1 C  dzz               23     -1.007259  2 C  py         
    72      0.889042  5 Cl s                 89     -0.848490  6 H  s          
    30      0.812277  2 C  dzz               53     -0.725477  4 Cl s          
    20     -0.635825  2 C  py                34     -0.631477  3 Cl s          

 Vector   84  Occ=0.000000D+00  E= 1.864053D+00
              MO Center=  3.9D-01, -1.0D+00,  7.8D-05, r^2= 1.7D+00
   Bfn.  Coefficient  Atom+Function         Bfn.  Coefficient  Atom+Function  
  ----- ------------  ---------------      ----- ------------  ---------------
    29      1.721721  2 C  dyz               12     -1.163594  1 C  dxz        
    92      0.769378  6 H  pz                27     -0.702657  2 C  dxz        
    14      0.422199  1 C  dyz                6     -0.265455  1 C  pz         
    46     -0.166735  3 Cl dxz               48     -0.130548  3 Cl dyz        
    86     -0.117936  5 Cl dyz               65      0.073603  4 Cl dxz        

 Vector   85  Occ=0.000000D+00  E= 2.048295D+00
              MO Center=  3.8D-01, -8.6D-01,  6.1D-05, r^2= 2.0D+00
   Bfn.  Coefficient  Atom+Function         Bfn.  Coefficient  Atom+Function  
  ----- ------------  ---------------      ----- ------------  ---------------
    26     -1.455838  2 C  dxy               11      1.439806  1 C  dxy        
    89     -1.366016  6 H  s                 18      1.101558  2 C  s          
    23     -0.911292  2 C  py                 2     -0.818994  1 C  s          
     4     -0.740429  1 C  px                25      0.723838  2 C  dxx        
    19     -0.676008  2 C  px                17      0.637443  2 C  s          

 Vector   86  Occ=0.000000D+00  E= 2.235484D+00
              MO Center=  3.2D-01, -9.5D-01,  5.5D-05, r^2= 2.1D+00
   Bfn.  Coefficient  Atom+Function         Bfn.  Coefficient  Atom+Function  
  ----- ------------  ---------------      ----- ------------  ---------------
    26      1.710913  2 C  dxy                3     -1.324945  1 C  s          
    18      1.230713  2 C  s                 10      0.904508  1 C  dxx        
    20     -0.825805  2 C  py                89     -0.820408  6 H  s          
    91     -0.707349  6 H  py                13     -0.603742  1 C  dyy        
    90      0.539396  6 H  px                53      0.475045  4 Cl s          

 Vector   87  Occ=0.000000D+00  E= 2.546624D+00
              MO Center=  5.2D-01, -1.3D+00,  1.0D-04, r^2= 1.5D+00
   Bfn.  Coefficient  Atom+Function         Bfn.  Coefficient  Atom+Function  
  ----- ------------  ---------------      ----- ------------  ---------------
    18      2.209033  2 C  s                 89     -1.344151  6 H  s          
    91     -1.343964  6 H  py                25     -1.188392  2 C  dxx        
    88     -1.145032  6 H  s                 20     -1.127126  2 C  py         
    28      1.017555  2 C  dyy               17      0.824822  2 C  s          
     3     -0.763864  1 C  s                 30     -0.761239  2 C  dzz        

 Vector   88  Occ=0.000000D+00  E= 2.707401D+00
              MO Center= -5.4D-02, -3.6D-01, -3.4D-05, r^2= 1.6D+00
   Bfn.  Coefficient  Atom+Function         Bfn.  Coefficient  Atom+Function  
  ----- ------------  ---------------      ----- ------------  ---------------
     3      1.954873  1 C  s                  2      1.334791  1 C  s          
    13     -1.320111  1 C  dyy               15     -1.182346  1 C  dzz        
    28     -1.157090  2 C  dyy               10     -1.069706  1 C  dxx        
    17      1.047014  2 C  s                 18      1.029080  2 C  s          
    30     -0.754699  2 C  dzz               89     -0.660631  6 H  s          

 Vector   89  Occ=0.000000D+00  E= 3.065421D+00
              MO Center=  2.5D-01, -5.9D-01,  2.1D-05, r^2= 2.1D+00
   Bfn.  Coefficient  Atom+Function         Bfn.  Coefficient  Atom+Function  
  ----- ------------  ---------------      ----- ------------  ---------------
    18      3.396532  2 C  s                  3     -2.863289  1 C  s          
    28     -1.967863  2 C  dyy               10      1.428951  1 C  dxx        
    25     -1.407115  2 C  dxx               13      1.101725  1 C  dyy        
    30     -1.035240  2 C  dzz               15      0.844481  1 C  dzz        
     7     -0.822780  1 C  px                 8      0.780360  1 C  py         

 Vector   90  Occ=0.000000D+00  E= 4.005394D+00
              MO Center=  3.0D-02,  2.8D-01,  6.6D-07, r^2= 4.9D+00
   Bfn.  Coefficient  Atom+Function         Bfn.  Coefficient  Atom+Function  
  ----- ------------  ---------------      ----- ------------  ---------------
    52      2.662982  4 Cl s                 71      2.371600  5 Cl s          
    33      2.183317  3 Cl s                 66     -1.462367  4 Cl dyy        
    63     -1.445442  4 Cl dxx               68     -1.440649  4 Cl dzz        
    82     -1.298657  5 Cl dxx               85     -1.286327  5 Cl dyy        
    87     -1.284880  5 Cl dzz               44     -1.212582  3 Cl dxx        

 Vector   91  Occ=0.000000D+00  E= 4.142183D+00
              MO Center= -2.5D-02, -6.0D-01,  2.5D-05, r^2= 5.6D+00
   Bfn.  Coefficient  Atom+Function         Bfn.  Coefficient  Atom+Function  
  ----- ------------  ---------------      ----- ------------  ---------------
    33      2.993880  3 Cl s                 71     -2.805918  5 Cl s          
    44     -1.734069  3 Cl dxx               47     -1.725216  3 Cl dyy        
    49     -1.728914  3 Cl dzz               34      1.654107  3 Cl s          
    82      1.620688  5 Cl dxx               85      1.599663  5 Cl dyy        
    87      1.600233  5 Cl dzz               72     -1.434592  5 Cl s          

 Vector   92  Occ=0.000000D+00  E= 4.222710D+00
              MO Center= -1.3D-01,  7.3D-01, -4.3D-05, r^2= 4.2D+00
   Bfn.  Coefficient  Atom+Function         Bfn.  Coefficient  Atom+Function  
  ----- ------------  ---------------      ----- ------------  ---------------
    52      3.101518  4 Cl s                 53      2.205143  4 Cl s          
    66     -1.883699  4 Cl dyy               71     -1.873912  5 Cl s          
    63     -1.855887  4 Cl dxx               68     -1.846515  4 Cl dzz        
     8     -1.733988  1 C  py                33     -1.742632  3 Cl s          
    34     -1.397386  3 Cl s                 72     -1.290584  5 Cl s          


 center of mass
 --------------
 x =  -0.00940606 y =   0.03563520 z =  -0.00000226

 moments of inertia (a.u.)
 ------------------
         485.619892866209          -4.802683739175          -0.191482623359
          -4.802683739175        1235.085508017877           0.016380550691
          -0.191482623359           0.016380550691        1720.705339946829

     Multipole analysis of the density
     ---------------------------------

     L   x y z        total         alpha         beta         nuclear
     -   - - -        -----         -----         ----         -------
     0   0 0 0     -0.000000    -32.000000    -32.000000     64.000000

     1   1 0 0     -0.020160     -0.010070     -0.010070     -0.000021
     1   0 1 0     -0.345402     -0.172693     -0.172693     -0.000015
     1   0 0 1      0.000027      0.000014      0.000014     -0.000002

     2   2 0 0    -37.328432   -319.335632   -319.335632    601.342831
     2   1 1 0      0.160815      0.080468      0.080468     -0.000122
     2   1 0 1      0.000024     -0.046641     -0.046641      0.093306
     2   0 2 0    -34.345314   -139.154964   -139.154964    243.964615
     2   0 1 1     -0.000091      0.004235      0.004235     -0.008560
     2   0 0 2    -37.564598    -18.782306    -18.782306      0.000015


            General Information
            -------------------
          SCF calculation type: DFT
          Wavefunction type:  closed shell.
          No. of atoms     :     6
          No. of electrons :    64
           Alpha electrons :    32
            Beta electrons :    32
          Charge           :     0
          Spin multiplicity:     1
          Use of symmetry is: off; symmetry adaption is: off
          Maximum number of iterations: ***
          AO basis - number of functions:    92
                     number of shells:    39
          Convergence on energy requested:  1.00D-06
          Convergence on density requested:  1.00D-05
          Convergence on gradient requested:  5.00D-04

              XC Information
              --------------
                    Becke 1988 Exchange Functional  1.000          
              Lee-Yang-Parr Correlation Functional  1.000          

             Grid Information
             ----------------
          Grid used for XC integration:  medium    
          Radial quadrature: Mura-Knowles        
          Angular quadrature: Lebedev. 
          Tag              B.-S. Rad. Rad. Pts. Rad. Cut. Ang. Pts.
          ---              ---------- --------- --------- ---------
          C                   0.70       49           9.0       434
          Cl                  1.00       88          11.0       590
          H                   0.35       45          10.0       434
          Grid pruning is: on 
          Number of quadrature shells:   407
          Spatial weights used:  Erf1

          Convergence Information
          -----------------------
          Convergence aids based upon iterative change in 
          total energy or number of iterations. 
          Levelshifting, if invoked, occurs when the 
          HOMO/LUMO gap drops below (HL_TOL):  1.00D-02
[...]
     2      1.085972  1 C  s                 23     -0.818770  2 C  py         

 Vector   71  Occ=0.000000D+00  E= 9.423962D-01
              MO Center=  1.8D-01, -1.3D-01,  2.3D-05, r^2= 4.9D+00
   Bfn.  Coefficient  Atom+Function         Bfn.  Coefficient  Atom+Function  
  ----- ------------  ---------------      ----- ------------  ---------------
    53      1.850788  4 Cl s                  3     -1.526238  1 C  s          
     8     -1.508356  1 C  py                23      1.123890  2 C  py         
    45      0.872136  3 Cl dxy               89      0.818527  6 H  s          
    52     -0.602257  4 Cl s                 18     -0.596769  2 C  s          
    64      0.554778  4 Cl dxy               72      0.524475  5 Cl s          

 Vector   72  Occ=0.000000D+00  E= 1.013126D+00
              MO Center=  5.8D-02, -6.3D-01,  6.8D-06, r^2= 5.2D+00
   Bfn.  Coefficient  Atom+Function         Bfn.  Coefficient  Atom+Function  
  ----- ------------  ---------------      ----- ------------  ---------------
    89      3.106158  6 H  s                 23      2.964911  2 C  py         
    34     -2.860021  3 Cl s                  7     -2.708935  1 C  px         
     8     -1.599472  1 C  py                22      1.275275  2 C  px         
    72     -1.110656  5 Cl s                 33      1.005408  3 Cl s          
    88     -0.679611  6 H  s                 53      0.531333  4 Cl s          

 Vector   73  Occ=0.000000D+00  E= 1.048056D+00
              MO Center= -2.3D-01, -7.0D-01, -3.1D-05, r^2= 5.7D+00
   Bfn.  Coefficient  Atom+Function         Bfn.  Coefficient  Atom+Function  
  ----- ------------  ---------------      ----- ------------  ---------------
    34      2.399921  3 Cl s                 72     -2.358252  5 Cl s          
    89      1.875852  6 H  s                 23      1.567267  2 C  py         
    33     -1.037688  3 Cl s                 71      1.021659  5 Cl s          
    18     -0.993348  2 C  s                  7      0.952770  1 C  px         
    22      0.917564  2 C  px                 3     -0.893569  1 C  s          

 Vector   74  Occ=0.000000D+00  E= 1.057715D+00
              MO Center=  3.9D-02, -8.1D-01,  4.1D-05, r^2= 2.8D+00
   Bfn.  Coefficient  Atom+Function         Bfn.  Coefficient  Atom+Function  
  ----- ------------  ---------------      ----- ------------  ---------------
    29      0.947548  2 C  dyz                9     -0.631816  1 C  pz         
    46      0.607992  3 Cl dxz               24      0.570805  2 C  pz         
    12      0.536382  1 C  dxz               67     -0.411730  4 Cl dyz        
    48      0.400260  3 Cl dyz               92     -0.370838  6 H  pz         
    84      0.342359  5 Cl dxz               43      0.284405  3 Cl pz         

 Vector   75  Occ=0.000000D+00  E= 1.086509D+00
              MO Center=  8.3D-02,  7.2D-01, -2.0D-05, r^2= 5.0D+00
   Bfn.  Coefficient  Atom+Function         Bfn.  Coefficient  Atom+Function  
  ----- ------------  ---------------      ----- ------------  ---------------
    53      3.746545  4 Cl s                  8     -2.842780  1 C  py         
    72     -1.972820  5 Cl s                 34     -1.863004  3 Cl s          
    22      1.511555  2 C  px                52     -1.438395  4 Cl s          
    23      1.273290  2 C  py                61     -1.094319  4 Cl py         
     7     -0.956847  1 C  px                71      0.752022  5 Cl s          

 Vector   76  Occ=0.000000D+00  E= 1.206954D+00
              MO Center=  4.3D-01, -3.1D-01,  5.9D-05, r^2= 2.4D+00
   Bfn.  Coefficient  Atom+Function         Bfn.  Coefficient  Atom+Function  
  ----- ------------  ---------------      ----- ------------  ---------------
    27      0.975598  2 C  dxz               14      0.963848  1 C  dyz        
    84      0.740284  5 Cl dxz               67      0.648494  4 Cl dyz        
    29      0.308659  2 C  dyz               86      0.266366  5 Cl dyz        
    81     -0.190844  5 Cl pz                21      0.166352  2 C  pz         
    24      0.166044  2 C  pz                12     -0.163792  1 C  dxz        

 Vector   77  Occ=0.000000D+00  E= 1.332659D+00
              MO Center=  5.6D-01, -1.1D+00,  1.1D-04, r^2= 2.5D+00
   Bfn.  Coefficient  Atom+Function         Bfn.  Coefficient  Atom+Function  
  ----- ------------  ---------------      ----- ------------  ---------------
    72      1.513127  5 Cl s                 22     -1.087752  2 C  px         
    26     -0.833749  2 C  dxy               90      0.626595  6 H  px         
    89     -0.591579  6 H  s                  7      0.539341  1 C  px         
    11     -0.540823  1 C  dxy               18     -0.515061  2 C  s          
    19     -0.443643  2 C  px                23     -0.440180  2 C  py         

 Vector   78  Occ=0.000000D+00  E= 1.379988D+00
              MO Center= -2.4D-01, -5.5D-01, -3.6D-05, r^2= 2.3D+00
   Bfn.  Coefficient  Atom+Function         Bfn.  Coefficient  Atom+Function  
  ----- ------------  ---------------      ----- ------------  ---------------
    12      1.212417  1 C  dxz               14      0.787778  1 C  dyz        
    46      0.602142  3 Cl dxz               92      0.503871  6 H  pz         
    67      0.426575  4 Cl dyz               84     -0.273948  5 Cl dxz        
    24     -0.261777  2 C  pz                27     -0.255931  2 C  dxz        
    48      0.220470  3 Cl dyz               21     -0.205203  2 C  pz         

 Vector   79  Occ=0.000000D+00  E= 1.511963D+00
              MO Center= -3.0D-02, -6.7D-01,  1.6D-06, r^2= 2.8D+00
   Bfn.  Coefficient  Atom+Function         Bfn.  Coefficient  Atom+Function  
  ----- ------------  ---------------      ----- ------------  ---------------
     3      1.785398  1 C  s                 34     -1.674814  3 Cl s          
    53     -0.863014  4 Cl s                 89      0.857826  6 H  s          
     7     -0.832394  1 C  px                18      0.762292  2 C  s          
    72     -0.765503  5 Cl s                 23      0.750482  2 C  py         
    15     -0.736614  1 C  dzz               30     -0.699016  2 C  dzz        

 Vector   80  Occ=0.000000D+00  E= 1.587025D+00
              MO Center= -3.7D-02, -5.9D-01, -4.2D-06, r^2= 2.5D+00
   Bfn.  Coefficient  Atom+Function         Bfn.  Coefficient  Atom+Function  
  ----- ------------  ---------------      ----- ------------  ---------------
    89      1.590678  6 H  s                 23      1.276573  2 C  py         
    18     -1.134489  2 C  s                  8     -0.999098  1 C  py         
    34     -1.002060  3 Cl s                 53      0.858407  4 Cl s          
     7     -0.844215  1 C  px                10      0.652090  1 C  dxx        
    13     -0.645400  1 C  dyy               22      0.634994  2 C  px         

 Vector   81  Occ=0.000000D+00  E= 1.706172D+00
              MO Center=  7.5D-03, -6.0D-01, -4.9D-06, r^2= 2.4D+00
   Bfn.  Coefficient  Atom+Function         Bfn.  Coefficient  Atom+Function  
  ----- ------------  ---------------      ----- ------------  ---------------
    18      1.999853  2 C  s                 11     -1.433391  1 C  dxy        
    72     -0.919941  5 Cl s                 17     -0.803834  2 C  s          
    53     -0.671583  4 Cl s                 89     -0.639472  6 H  s          
    19      0.589511  2 C  px                 8      0.575678  1 C  py         
     3      0.544662  1 C  s                 90     -0.527301  6 H  px         

 Vector   82  Occ=0.000000D+00  E= 1.712624D+00
              MO Center=  2.5D-01, -7.6D-01,  4.9D-05, r^2= 1.9D+00
   Bfn.  Coefficient  Atom+Function         Bfn.  Coefficient  Atom+Function  
  ----- ------------  ---------------      ----- ------------  ---------------
    27      1.453719  2 C  dxz               14     -1.237907  1 C  dyz        
    12      0.682860  1 C  dxz               92      0.559797  6 H  pz         
    21     -0.360593  2 C  pz                84      0.350639  5 Cl dxz        
    67     -0.335726  4 Cl dyz               29      0.295895  2 C  dyz        
    24     -0.208186  2 C  pz                 6      0.205049  1 C  pz         

 Vector   83  Occ=0.000000D+00  E= 1.848592D+00
              MO Center=  3.2D-02, -5.9D-01,  1.1D-06, r^2= 2.3D+00
   Bfn.  Coefficient  Atom+Function         Bfn.  Coefficient  Atom+Function  
  ----- ------------  ---------------      ----- ------------  ---------------
     3      3.633392  1 C  s                 18     -2.428973  2 C  s          
    15     -1.026916  1 C  dzz               23     -1.004707  2 C  py         
    72      0.896548  5 Cl s                 89     -0.838992  6 H  s          
    30      0.826326  2 C  dzz               53     -0.722708  4 Cl s          
    20     -0.623021  2 C  py                34     -0.614379  3 Cl s          

 Vector   84  Occ=0.000000D+00  E= 1.872934D+00
              MO Center=  4.0D-01, -1.1D+00,  8.4D-05, r^2= 1.7D+00
   Bfn.  Coefficient  Atom+Function         Bfn.  Coefficient  Atom+Function  
  ----- ------------  ---------------      ----- ------------  ---------------
    29      1.724899  2 C  dyz               12     -1.136246  1 C  dxz        
    92      0.791113  6 H  pz                27     -0.667867  2 C  dxz        
    14      0.395105  1 C  dyz                6     -0.259692  1 C  pz         
    46     -0.164601  3 Cl dxz               48     -0.127648  3 Cl dyz        
    86     -0.115043  5 Cl dyz               65      0.071555  4 Cl dxz        

 Vector   85  Occ=0.000000D+00  E= 2.055607D+00
              MO Center=  3.9D-01, -8.6D-01,  7.1D-05, r^2= 2.0D+00
   Bfn.  Coefficient  Atom+Function         Bfn.  Coefficient  Atom+Function  
  ----- ------------  ---------------      ----- ------------  ---------------
    26     -1.460953  2 C  dxy               11      1.430961  1 C  dxy        
    89     -1.373488  6 H  s                 18      1.068771  2 C  s          
    23     -0.921849  2 C  py                 2     -0.822289  1 C  s          
     4     -0.733300  1 C  px                25      0.729805  2 C  dxx        
    19     -0.665847  2 C  px                17      0.626327  2 C  s          

 Vector   86  Occ=0.000000D+00  E= 2.244234D+00
              MO Center=  3.2D-01, -9.5D-01,  6.4D-05, r^2= 2.1D+00
   Bfn.  Coefficient  Atom+Function         Bfn.  Coefficient  Atom+Function  
  ----- ------------  ---------------      ----- ------------  ---------------
    26      1.705155  2 C  dxy                3     -1.305054  1 C  s          
    18      1.189865  2 C  s                 10      0.911527  1 C  dxx        
    20     -0.810472  2 C  py                89     -0.810161  6 H  s          
    91     -0.695901  6 H  py                13     -0.601906  1 C  dyy        
    90      0.548042  6 H  px                25      0.491494  2 C  dxx        

 Vector   87  Occ=0.000000D+00  E= 2.558898D+00
              MO Center=  5.2D-01, -1.3D+00,  1.1D-04, r^2= 1.5D+00
   Bfn.  Coefficient  Atom+Function         Bfn.  Coefficient  Atom+Function  
  ----- ------------  ---------------      ----- ------------  ---------------
    18      2.235730  2 C  s                 89     -1.367424  6 H  s          
    91     -1.357828  6 H  py                25     -1.182202  2 C  dxx        
    20     -1.137913  2 C  py                88     -1.138609  6 H  s          
    28      1.000708  2 C  dyy               17      0.832851  2 C  s          
     3     -0.772631  1 C  s                 30     -0.767010  2 C  dzz        

 Vector   88  Occ=0.000000D+00  E= 2.710690D+00
              MO Center= -5.7D-02, -3.6D-01, -2.0D-05, r^2= 1.6D+00
   Bfn.  Coefficient  Atom+Function         Bfn.  Coefficient  Atom+Function  
  ----- ------------  ---------------      ----- ------------  ---------------
     3      1.966180  1 C  s                  2      1.336907  1 C  s          
    13     -1.326247  1 C  dyy               15     -1.185353  1 C  dzz        
    28     -1.151790  2 C  dyy               10     -1.072450  1 C  dxx        
    17      1.042514  2 C  s                 18      1.013913  2 C  s          
    30     -0.748950  2 C  dzz               89     -0.664857  6 H  s          

 Vector   89  Occ=0.000000D+00  E= 3.069657D+00
              MO Center=  2.6D-01, -6.0D-01,  3.6D-05, r^2= 2.1D+00
   Bfn.  Coefficient  Atom+Function         Bfn.  Coefficient  Atom+Function  
  ----- ------------  ---------------      ----- ------------  ---------------
    18      3.392857  2 C  s                  3     -2.854120  1 C  s          
    28     -1.975055  2 C  dyy               10      1.425209  1 C  dxx        
    25     -1.406139  2 C  dxx               13      1.095951  1 C  dyy        
    30     -1.035532  2 C  dzz               15      0.839562  1 C  dzz        
     7     -0.823323  1 C  px                 8      0.778299  1 C  py         

 Vector   90  Occ=0.000000D+00  E= 4.005649D+00
              MO Center=  3.5D-02,  2.9D-01, -5.9D-06, r^2= 4.8D+00
   Bfn.  Coefficient  Atom+Function         Bfn.  Coefficient  Atom+Function  
  ----- ------------  ---------------      ----- ------------  ---------------
    52      2.673042  4 Cl s                 71      2.371755  5 Cl s          
    33      2.170209  3 Cl s                 66     -1.468781  4 Cl dyy        
    63     -1.451544  4 Cl dxx               68     -1.446794  4 Cl dzz        
    82     -1.298791  5 Cl dxx               85     -1.286503  5 Cl dyy        
    87     -1.285081  5 Cl dzz               44     -1.204893  3 Cl dxx        

 Vector   91  Occ=0.000000D+00  E= 4.142989D+00
              MO Center= -2.1D-02, -6.0D-01,  1.7D-05, r^2= 5.6D+00
   Bfn.  Coefficient  Atom+Function         Bfn.  Coefficient  Atom+Function  
  ----- ------------  ---------------      ----- ------------  ---------------
    33      2.991702  3 Cl s                 71     -2.808069  5 Cl s          
    44     -1.732488  3 Cl dxx               47     -1.723372  3 Cl dyy        
    49     -1.727137  3 Cl dzz               34      1.649948  3 Cl s          
    82      1.622529  5 Cl dxx               85      1.601237  5 Cl dyy        
    87      1.601687  5 Cl dzz               72     -1.438163  5 Cl s          

 Vector   92  Occ=0.000000D+00  E= 4.222476D+00
              MO Center= -1.4D-01,  7.2D-01, -4.9D-05, r^2= 4.2D+00
   Bfn.  Coefficient  Atom+Function         Bfn.  Coefficient  Atom+Function  
  ----- ------------  ---------------      ----- ------------  ---------------
    52      3.092610  4 Cl s                 53      2.201553  4 Cl s          
    66     -1.878988  4 Cl dyy               71     -1.869654  5 Cl s          
    63     -1.850890  4 Cl dxx               68     -1.841618  4 Cl dzz        
    33     -1.762774  3 Cl s                  8     -1.733576  1 C  py         
    34     -1.407703  3 Cl s                 72     -1.287678  5 Cl s          


 center of mass
 --------------
 x =  -0.00935814 y =   0.03552476 z =  -0.00001077

 moments of inertia (a.u.)
 ------------------
         485.631427868246          -4.619535757297          -0.191729257788
          -4.619535757297        1235.091992230798           0.016006611198
          -0.191729257788           0.016006611198        1720.723359330718

     Multipole analysis of the density
     ---------------------------------

     L   x y z        total         alpha         beta         nuclear
     -   - - -        -----         -----         ----         -------
     0   0 0 0     -0.000000    -32.000000    -32.000000     64.000000

     1   1 0 0     -0.012787     -0.007832     -0.007832      0.002876
     1   0 1 0     -0.511033     -0.252079     -0.252079     -0.006874
     1   0 0 1      0.000028      0.000280      0.000280     -0.000533

     2   2 0 0    -37.701486   -319.523518   -319.523518    601.345550
     2   1 1 0      0.068965      0.078695      0.078695     -0.088426
     2   1 0 1     -0.000027     -0.046727     -0.046727      0.093427
     2   0 2 0    -34.024261   -138.996880   -138.996880    243.969499
     2   0 1 1     -0.000115      0.004140      0.004140     -0.008395
     2   0 0 2    -37.607251    -18.803633    -18.803633      0.000015


 Task  times  cpu:        6.9s     wall:        6.9s


                                NWChem Input Module
                                -------------------


 Summary of allocated global arrays
-----------------------------------
  No active global arrays



                         GA Statistics for process    0
                         ------------------------------

       create   destroy   get      put      acc     scatter   gather  read&inc
calls:  509      509     6.22e+04 3436     1.28e+04    0        0     4740     
number of processes/call 1.09e+00 1.42e+00 1.06e+00 0.00e+00 0.00e+00
bytes total:             1.07e+08 1.01e+07 4.12e+07 0.00e+00 0.00e+00 3.79e+04
bytes remote:            3.70e+07 3.59e+06 1.12e+07 0.00e+00 0.00e+00 0.00e+00
Max memory consumed for GA by this process: 778744 bytes

MA_summarize_allocated_blocks: starting scan ...
heap block 'gridpts', handle 111, address 0x560d00fe0618:
	type of elements:		double precision
	number of elements:		34432394
	address of client space:	0x560d00fe0680
	index for client space:		10245347
	total number of bytes:		275459264
MA_summarize_allocated_blocks: scan completed: 1 heap block, 0 stack blocks
MA usage statistics:

	allocation statistics:
					      heap	     stack
					      ----	     -----
	current number of blocks	         1	         0
	maximum number of blocks	        25	        53
	current total bytes		 275459264	         0
	maximum total bytes		 277775632	  33002440
	maximum total K-bytes		    277776	     33003
	maximum total M-bytes		       278	        34


                                     CITATION
                                     --------
                Please cite the following reference when publishing
                           results obtained with NWChem:

                 M. Valiev, E.J. Bylaska, N. Govind, K. Kowalski,
              T.P. Straatsma, H.J.J. van Dam, D. Wang, J. Nieplocha,
                        E. Apra, T.L. Windus, W.A. de Jong
                 "NWChem: a comprehensive and scalable open-source
                  solution for large scale molecular simulations"
                      Comput. Phys. Commun. 181, 1477 (2010)
                           doi:10.1016/j.cpc.2010.04.018

                                      AUTHORS
                                      -------
          E. Apra, E. J. Bylaska, W. A. de Jong, N. Govind, K. Kowalski,
       T. P. Straatsma, M. Valiev, H. J. J. van Dam, D. Wang, T. L. Windus,
        J. Hammond, J. Autschbach, K. Bhaskaran-Nair, J. Brabec, K. Lopata,
    S. A. Fischer, S. Krishnamoorthy, M. Jacquelin, W. Ma, M. Klemm, O. Villa,
      Y. Chen, V. Anisimov, F. Aquino, S. Hirata, M. T. Hackler, V. Konjkov,
            D. Mejia-Rodriguez, T. Risthaus, M. Malagoli, A. Marenich,
   A. Otero-de-la-Roza, J. Mullin, P. Nichols, R. Peverati, J. Pittner, Y. Zhao,
        P.-D. Fan, A. Fonari, M. J. Williamson, R. J. Harrison, J. R. Rehr,
      M. Dupuis, D. Silverstein, D. M. A. Smith, J. Nieplocha, V. Tipparaju,
    M. Krishnan, B. E. Van Kuiken, A. Vazquez-Mayagoitia, L. Jensen, M. Swart,
      Q. Wu, T. Van Voorhis, A. A. Auer, M. Nooijen, L. D. Crosby, E. Brown,
      G. Cisneros, G. I. Fann, H. Fruchtl, J. Garza, K. Hirao, R. A. Kendall,
      J. A. Nichols, K. Tsemekhman, K. Wolinski, J. Anchell, D. E. Bernholdt,
      P. Borowski, T. Clark, D. Clerc, H. Dachsel, M. J. O. Deegan, K. Dyall,
    D. Elwood, E. Glendening, M. Gutowski, A. C. Hess, J. Jaffe, B. G. Johnson,
     J. Ju, R. Kobayashi, R. Kutteh, Z. Lin, R. Littlefield, X. Long, B. Meng,
      T. Nakajima, S. Niu, L. Pollack, M. Rosing, K. Glaesemann, G. Sandrone,
      M. Stave, H. Taylor, G. Thomas, J. H. van Lenthe, A. T. Wong, Z. Zhang.

 Total times  cpu:       20.4s     wall:       20.4s
