 argument  1 = /home/list1234/source/nwchem-6.8.1-release/QA/tests/cosmo_h3co/cosmo_h3co.nw



============================== echo of input deck ==============================
echo

start h3co_dat

geometry
    o      0.00000000     0.00000000     0.27851507
    c      0.00000000     0.00000000     1.63192657
    h      0.26167571    -0.97658705     2.06772417
    h     -0.97658705     0.26167571     2.06772417
    h      0.71491134     0.71491134     2.06772417
end
charge -1

basis
  * library 6-31g*
end

cosmo
  minbem 2
  maxbem 4
end

driver
  tight
  xmax 0.00180
  xrms 0.00120
end

task scf optimize
================================================================================


                                         
                                         


              Northwest Computational Chemistry Package (NWChem) 6.8
              ------------------------------------------------------


                    Environmental Molecular Sciences Laboratory
                       Pacific Northwest National Laboratory
                                Richland, WA 99352

                              Copyright (c) 1994-2018
                       Pacific Northwest National Laboratory
                            Battelle Memorial Institute

             NWChem is an open-source computational chemistry package
                        distributed under the terms of the
                      Educational Community License (ECL) 2.0
             A copy of the license is included with this distribution
                              in the LICENSE.TXT file

                                  ACKNOWLEDGMENT
                                  --------------

            This software and its documentation were developed at the
            EMSL at Pacific Northwest National Laboratory, a multiprogram
            national laboratory, operated for the U.S. Department of Energy
            by Battelle under Contract Number DE-AC05-76RL01830. Support
            for this work was provided by the Department of Energy Office
            of Biological and Environmental Research, Office of Basic
            Energy Sciences, and the Office of Advanced Scientific Computing.


           Job information
           ---------------

    hostname        = list1234-B360M-H
    program         = /home/list1234/source/nwchem-6.8.1-release/bin/LINUX64/nwchem
    date            = Sun Jun 30 05:47:08 2019

    compiled        = Sun_Jun_30_05:21:11_2019
    source          = /home/list1234/source/nwchem-6.8.1-release
    nwchem branch   = Development
    nwchem revision = N/A
    ga revision     = 5.6.5
    use scalapack   = T
    input           = /home/list1234/source/nwchem-6.8.1-release/QA/tests/cosmo_h3co/cosmo_h3co.nw
    prefix          = h3co_dat.
    data base       = ./h3co_dat.db
    status          = startup
    nproc           =        4
    time left       =     -1s



           Memory information
           ------------------

    heap     =   86247164 doubles =    658.0 Mbytes
    stack    =   86247169 doubles =    658.0 Mbytes
    global   =  172494336 doubles =   1316.0 Mbytes (distinct from heap & stack)
    total    =  344988669 doubles =   2632.1 Mbytes
    verify   = yes
    hardfail = no 


           Directory information
           ---------------------

  0 permanent = .
  0 scratch   = .




                                NWChem Input Module
                                -------------------



 Scaling coordinates for geometry "geometry" by  1.889725989
 (inverse scale =  0.529177249)

 C3V symmetry detected

          ------
          auto-z
          ------
  Looking for out-of-plane bends
  no constraints, skipping    0.0000000000000000     
  no constraints, skipping    0.0000000000000000     


                             Geometry "geometry" -> ""
                             -------------------------

 Output coordinates in angstroms (scale by  1.889725989 to convert to a.u.)

  No.       Tag          Charge          X              Y              Z
 ---- ---------------- ---------- -------------- -------------- --------------
    1 o                    8.0000    -0.00000000    -0.00000000    -0.79341743
    2 c                    6.0000     0.00000000     0.00000000     0.55999407
    3 h                    1.0000     0.71491134     0.71491134     0.99579167
    4 h                    1.0000     0.26167571    -0.97658705     0.99579167
    5 h                    1.0000    -0.97658705     0.26167571     0.99579167

      Atomic Mass 
      ----------- 

      o                 15.994910
      c                 12.000000
      h                  1.007825


 Effective nuclear repulsion energy (a.u.)      34.5058725513

            Nuclear Dipole moment (a.u.) 
            ----------------------------
        X                 Y               Z
 ---------------- ---------------- ----------------
     0.0000000000    -0.0000000000     0.0000000000

      Symmetry information
      --------------------

 Group name             C3v       
 Group number             17
 Group order               6
 No. of unique centers     3

      Symmetry unique atoms

     1    2    3



                                Z-matrix (autoz)
                                -------- 

 Units are Angstrom for bonds and degrees for angles

      Type          Name      I     J     K     L     M      Value
      ----------- --------  ----- ----- ----- ----- ----- ----------
    1 Stretch                  1     2                       1.35341
    2 Stretch                  2     3                       1.10096
    3 Stretch                  2     4                       1.10096
    4 Stretch                  2     5                       1.10096
    5 Bend                     1     2     3               113.31798
    6 Bend                     1     2     4               113.31798
    7 Bend                     1     2     5               113.31798
    8 Bend                     3     2     4               105.36538
    9 Bend                     3     2     5               105.36538
   10 Bend                     4     2     5               105.36538


            XYZ format geometry
            -------------------
     5
 geometry
 o                    -0.00000000    -0.00000000    -0.79341743
 c                     0.00000000     0.00000000     0.55999407
 h                     0.71491134     0.71491134     0.99579167
 h                     0.26167571    -0.97658705     0.99579167
 h                    -0.97658705     0.26167571     0.99579167

 ==============================================================================
                                internuclear distances
 ------------------------------------------------------------------------------
       center one      |      center two      | atomic units |  angstroms
 ------------------------------------------------------------------------------
    2 c                |   1 o                |     2.55758  |     1.35341
    3 h                |   2 c                |     2.08052  |     1.10096
    4 h                |   2 c                |     2.08052  |     1.10096
    5 h                |   2 c                |     2.08052  |     1.10096
 ------------------------------------------------------------------------------
                         number of included internuclear distances:          4
 ==============================================================================



 ==============================================================================
                                 internuclear angles
 ------------------------------------------------------------------------------
        center 1       |       center 2       |       center 3       |  degrees
 ------------------------------------------------------------------------------
    1 o                |   2 c                |   3 h                |   113.32
    1 o                |   2 c                |   4 h                |   113.32
    1 o                |   2 c                |   5 h                |   113.32
    3 h                |   2 c                |   4 h                |   105.37
    3 h                |   2 c                |   5 h                |   105.37
    4 h                |   2 c                |   5 h                |   105.37
 ------------------------------------------------------------------------------
                            number of included internuclear angles:          6
 ==============================================================================





 Summary of "ao basis" -> "" (cartesian)
 ------------------------------------------------------------------------------
       Tag                 Description            Shells   Functions and Types
 ---------------- ------------------------------  ------  ---------------------
 *                           6-31g*                   on all atoms 




                           NWChem Geometry Optimization
                           ----------------------------


  no constraints, skipping    0.0000000000000000     
 maximum gradient threshold         (gmax) =   0.000015
 rms gradient threshold             (grms) =   0.000010
 maximum cartesian step threshold   (xmax) =   0.001800
 rms cartesian step threshold       (xrms) =   0.001200
 fixed trust radius                (trust) =   0.300000
 maximum step size to saddle      (sadstp) =   0.100000
 energy precision                  (eprec) =   1.0D-07
 maximum number of steps          (nptopt) =   20
 initial hessian option           (inhess) =    0
 line search option               (linopt) =    1
 hessian update option            (modupd) =    1
 saddle point option              (modsad) =    0
 initial eigen-mode to follow     (moddir) =    0
 initial variable to follow       (vardir) =    0
 follow first negative mode     (firstneg) =    T
 apply conjugacy                    (opcg) =    F
 source of zmatrix                         =   autoz   


          -------------------
          Energy Minimization
          -------------------


 Names of Z-matrix variables 
    1              2              3              4              5         
    6              7              8              9             10         

 Variables with the same non-blank name are constrained to be equal


 Using diagonal initial Hessian 
 Scaling for Hessian diagonals: bonds = 1.00  angles = 0.25  torsions = 0.10

          --------
          Step   0
          --------


                         Geometry "geometry" -> "geometry"
                         ---------------------------------

 Output coordinates in angstroms (scale by  1.889725989 to convert to a.u.)

  No.       Tag          Charge          X              Y              Z
 ---- ---------------- ---------- -------------- -------------- --------------
    1 o                    8.0000    -0.00000000    -0.00000000    -0.79341743
    2 c                    6.0000     0.00000000     0.00000000     0.55999407
    3 h                    1.0000     0.71491134     0.71491134     0.99579167
    4 h                    1.0000     0.26167571    -0.97658705     0.99579167
    5 h                    1.0000    -0.97658705     0.26167571     0.99579167

      Atomic Mass 
      ----------- 

      o                 15.994910
      c                 12.000000
      h                  1.007825


 Effective nuclear repulsion energy (a.u.)      34.5058725513

            Nuclear Dipole moment (a.u.) 
            ----------------------------
        X                 Y               Z
 ---------------- ---------------- ----------------
     0.0000000000    -0.0000000000     0.0000000000

      Symmetry information
      --------------------

 Group name             C3v       
 Group number             17
 Group order               6
 No. of unique centers     3

      Symmetry unique atoms

     1    2    3

                      Basis "ao basis" -> "ao basis" (cartesian)
                      -----
  o (Oxygen)
  ----------
            Exponent  Coefficients 
       -------------- ---------------------------------------------------------
  1 S  5.48467170E+03  0.001831
  1 S  8.25234950E+02  0.013950
  1 S  1.88046960E+02  0.068445
  1 S  5.29645000E+01  0.232714
  1 S  1.68975700E+01  0.470193
  1 S  5.79963530E+00  0.358521

  2 S  1.55396160E+01 -0.110778
  2 S  3.59993360E+00 -0.148026
  2 S  1.01376180E+00  1.130767

  3 P  1.55396160E+01  0.070874
  3 P  3.59993360E+00  0.339753
  3 P  1.01376180E+00  0.727159

  4 S  2.70005800E-01  1.000000

  5 P  2.70005800E-01  1.000000

  6 D  8.00000000E-01  1.000000

  c (Carbon)
  ----------
            Exponent  Coefficients 
       -------------- ---------------------------------------------------------
  1 S  3.04752490E+03  0.001835
  1 S  4.57369510E+02  0.014037
  1 S  1.03948690E+02  0.068843
  1 S  2.92101550E+01  0.232184
  1 S  9.28666300E+00  0.467941
  1 S  3.16392700E+00  0.362312

  2 S  7.86827240E+00 -0.119332
  2 S  1.88128850E+00 -0.160854
  2 S  5.44249300E-01  1.143456

  3 P  7.86827240E+00  0.068999
  3 P  1.88128850E+00  0.316424
  3 P  5.44249300E-01  0.744308

  4 S  1.68714400E-01  1.000000

  5 P  1.68714400E-01  1.000000

  6 D  8.00000000E-01  1.000000

  h (Hydrogen)
  ------------
            Exponent  Coefficients 
       -------------- ---------------------------------------------------------
  1 S  1.87311370E+01  0.033495
  1 S  2.82539370E+00  0.234727
  1 S  6.40121700E-01  0.813757

  2 S  1.61277800E-01  1.000000



 Summary of "ao basis" -> "ao basis" (cartesian)
 ------------------------------------------------------------------------------
       Tag                 Description            Shells   Functions and Types
 ---------------- ------------------------------  ------  ---------------------
 o                           6-31g*                  6       15   3s2p1d
 c                           6-31g*                  6       15   3s2p1d
 h                           6-31g*                  2        2   2s



 solvent parameters
 solvname_short: h2o     
 solvname_long:  water                              
 dielec:       78.4000
 dielecinf:     1.7769

          ---------------
          -cosmo- solvent
          ---------------
 Cosmo: York-Karplus, doi: 10.1021/jp992097l
 dielectric constant -eps-     =  78.40
 screen = (eps-1)/(eps    )    =   0.98724
 surface charge correction     = lagrangian
 -lineq- algorithm             =   0
 -bem- low  level              =   2
 -bem- from -octahedral-
 gaussian surface charge width =   0.98000
 degree of switching           =   1.00000
 switching function tolerance  =   0.00010
 atomic radii = 
 --------------
    1  8.000  1.720
    2  6.000  2.000
    3  1.000  1.300
    4  1.000  1.300
    5  1.000  1.300

 solvent accessible surface
 --------------------------

 ---------- ATOMIC COORDINATES (A.U.) ------------ VDWR(ANG.) --
     1   -0.00000000   -0.00000000   -1.49934154     1.720
     2    0.00000000    0.00000000    1.05823535     2.000
     3    1.35098654    1.35098654    1.88177340     1.300
     4    0.49449539   -1.84548193    1.88177340     1.300
     5   -1.84548193    0.49449539    1.88177340     1.300
 number of segments per atom =         32
 number of   points per atom =         32
 atom (   nspa,  nppa )
 ----------------------
    1 (     24,     0 )       0
    2 (     25,     0 )       0
    3 (     15,     0 )       0
    4 (     15,     0 )       0
    5 (     15,     0 )       0
 number of -cosmo- surface points =       94
 molecular surface =     63.480 angstrom**2
 molecular volume  =     35.859 angstrom**3
 G(cav/disp)       =      1.177 kcal/mol
 ...... end of -cosmo- initialization ......


                                 NWChem SCF Module
                                 -----------------



  ao basis        = "ao basis"
  functions       =    36
  atoms           =     5
  closed shells   =     9
  open shells     =     0
  charge          =  -1.00
  wavefunction    = RHF 
  input vectors   = atomic
  output vectors  = ./h3co_dat.movecs
  use symmetry    = T
  symmetry adapt  = T


 Summary of "ao basis" -> "ao basis" (cartesian)
 ------------------------------------------------------------------------------
       Tag                 Description            Shells   Functions and Types
 ---------------- ------------------------------  ------  ---------------------
 o                           6-31g*                  6       15   3s2p1d
 c                           6-31g*                  6       15   3s2p1d
 h                           6-31g*                  2        2   2s


      Symmetry analysis of basis
      --------------------------

        a1         16
        a2          0
        e          20


 Forming initial guess at       0.0s


      Superposition of Atomic Density Guess
      -------------------------------------

 Sum of atomic energies:        -113.90930400

 Renormalizing density from      17.00 to     18

      Non-variational initial energy
      ------------------------------

 Total energy =    -118.682639
 1-e energy   =    -236.279763
 2-e energy   =      83.091251
 HOMO         =       0.126695
 LUMO         =       0.465824


      Symmetry analysis of molecular orbitals - initial
      -------------------------------------------------

  Numbering of irreducible representations: 

     1 a1          2 a2          3 e       

  Orbital symmetries:

     1 a1          2 a1          3 a1          4 a1          5 e       
     6 e           7 a1          8 e           9 e          10 a1      
    11 e          12 e          13 a1         14 e          15 e       
    16 a1         17 a1         18 e          19 e       


 Starting SCF solution at       0.1s



 ----------------------------------------------
         Quadratically convergent ROHF

 Convergence threshold     :          1.000E-04
 Maximum no. of iterations :           30
 Final Fock-matrix accuracy:          1.000E-07
 ----------------------------------------------

     COSMO gas phase

              iter       energy          gnorm     gmax       time
             ----- ------------------- --------- --------- --------
                 1     -114.2840466082  1.28D+00  4.83D-01      0.2
                 2     -114.3777046457  2.00D-01  8.02D-02      0.2
                 3     -114.3810582773  1.34D-02  5.65D-03      0.3
                 4     -114.3810797925  1.19D-04  4.35D-05      0.4
                 5     -114.3810797941  8.48D-06  3.36D-06      0.5
     COSMO solvation phase

              iter       energy          gnorm     gmax       time
             ----- ------------------- --------- --------- --------
                 1     -114.5087615008  1.35D-01  5.83D-02      0.5
                 2     -114.5120058229  2.77D-02  1.42D-02      0.7
                 3     -114.5121143398  5.27D-03  2.68D-03      0.8
                 4     -114.5121144949  9.76D-04  4.75D-04      0.9
                 5     -114.5121138207  1.80D-04  8.82D-05      1.1
                 6     -114.5121136775  3.32D-05  1.67D-05      1.2
 
                  COSMO solvation results
                  -----------------------
 
                 gas phase energy =      -114.3810797941
                 sol phase energy =      -114.5121136775
 (electrostatic) solvation energy =         0.1310338834 (   82.23 kcal/mol)


       Final RHF  results 
       ------------------ 

         Total SCF energy =   -114.512113677465
      One-electron energy =   -235.029283002936
      Two-electron energy =     81.743576607339
 Nuclear repulsion energy =     34.505872551266
             COSMO energy =      4.267720166866

        Time for solution =      1.0s



       Symmetry analysis of molecular orbitals - final
       -----------------------------------------------

  Numbering of irreducible representations: 

     1 a1          2 a2          3 e       

  Orbital symmetries:

     1 a1          2 a1          3 a1          4 a1          5 e       
     6 e           7 a1          8 e           9 e          10 a1      
    11 e          12 e          13 a1         14 e          15 e       
    16 a1         17 a1         18 e          19 e       

             Final eigenvalues
             -----------------

              1      
    1  -20.3854
    2  -11.2127
    3   -1.1824
    4   -0.8264
    5   -0.5435
    6   -0.5435
    7   -0.4675
    8   -0.3049
    9   -0.3049
   10    0.2812
   11    0.3661
   12    0.3661
   13    0.4181
   14    0.8158
   15    0.8158
   16    0.9126
   17    1.1315
   18    1.1640
   19    1.1640

                       ROHF Final Molecular Orbital Analysis
                       -------------------------------------

 Vector    2  Occ=2.000000D+00  E=-1.121269D+01  Symmetry=a1
              MO Center=  1.6D-21,  4.3D-21,  5.6D-01, r^2= 2.7D-02
   Bfn.  Coefficient  Atom+Function         Bfn.  Coefficient  Atom+Function  
  ----- ------------  ---------------      ----- ------------  ---------------
    16      0.995808  2 C  s          

 Vector    3  Occ=2.000000D+00  E=-1.182373D+00  Symmetry=a1
              MO Center=  1.4D-19, -1.1D-18, -4.5D-01, r^2= 6.5D-01
   Bfn.  Coefficient  Atom+Function         Bfn.  Coefficient  Atom+Function  
  ----- ------------  ---------------      ----- ------------  ---------------
     6      0.437657  1 O  s                  2      0.420222  1 O  s          
     1     -0.195168  1 O  s                 17      0.190543  2 C  s          

 Vector    4  Occ=2.000000D+00  E=-8.263752D-01  Symmetry=a1
              MO Center= -4.9D-17, -3.1D-17,  6.0D-01, r^2= 1.4D+00
   Bfn.  Coefficient  Atom+Function         Bfn.  Coefficient  Atom+Function  
  ----- ------------  ---------------      ----- ------------  ---------------
     6      0.308624  1 O  s                 17     -0.306771  2 C  s          
    21     -0.304966  2 C  s                  2      0.196062  1 O  s          
    20     -0.165148  2 C  pz                16      0.158469  2 C  s          

 Vector    5  Occ=2.000000D+00  E=-5.434643D-01  Symmetry=e
              MO Center=  2.0D-01, -1.4D-03,  4.9D-01, r^2= 1.4D+00
   Bfn.  Coefficient  Atom+Function         Bfn.  Coefficient  Atom+Function  
  ----- ------------  ---------------      ----- ------------  ---------------
    19      0.367389  2 C  py                31      0.217374  3 H  s          
     4      0.216269  1 O  py                32      0.203284  3 H  s          
    33     -0.187453  4 H  s                 23      0.175151  2 C  py         
    34     -0.175302  4 H  s                 18      0.150641  2 C  px         

 Vector    6  Occ=2.000000D+00  E=-5.434643D-01  Symmetry=e
              MO Center= -2.0D-01,  1.4D-03,  4.9D-01, r^2= 1.4D+00
   Bfn.  Coefficient  Atom+Function         Bfn.  Coefficient  Atom+Function  
  ----- ------------  ---------------      ----- ------------  ---------------
    18      0.367389  2 C  px                35     -0.233727  5 H  s          
    36     -0.218577  5 H  s                  3      0.216269  1 O  px         
    22      0.175151  2 C  px                19     -0.150641  2 C  py         

 Vector    7  Occ=2.000000D+00  E=-4.674549D-01  Symmetry=a1
              MO Center= -9.3D-19, -9.4D-19, -4.7D-01, r^2= 1.2D+00
   Bfn.  Coefficient  Atom+Function         Bfn.  Coefficient  Atom+Function  
  ----- ------------  ---------------      ----- ------------  ---------------
     5      0.467717  1 O  pz                20     -0.363106  2 C  pz         
     6     -0.347755  1 O  s                  9      0.343667  1 O  pz         

 Vector    8  Occ=2.000000D+00  E=-3.049287D-01  Symmetry=e
              MO Center= -5.2D-02, -7.1D-02, -4.1D-01, r^2= 1.4D+00
   Bfn.  Coefficient  Atom+Function         Bfn.  Coefficient  Atom+Function  
  ----- ------------  ---------------      ----- ------------  ---------------
     4      0.418334  1 O  py                 8      0.390807  1 O  py         
     3     -0.358574  1 O  px                 7     -0.334978  1 O  px         
    34      0.254717  4 H  s                 36     -0.233055  5 H  s          
    33      0.152239  4 H  s          

 Vector    9  Occ=2.000000D+00  E=-3.049287D-01  Symmetry=e
              MO Center=  5.2D-02,  7.1D-02, -4.1D-01, r^2= 1.4D+00
   Bfn.  Coefficient  Atom+Function         Bfn.  Coefficient  Atom+Function  
  ----- ------------  ---------------      ----- ------------  ---------------
     3      0.418334  1 O  px                 7      0.390807  1 O  px         
     4      0.358574  1 O  py                 8      0.334978  1 O  py         
    32     -0.281615  3 H  s                 31     -0.168315  3 H  s          
    36      0.159568  5 H  s          

 Vector   10  Occ=0.000000D+00  E= 2.812027D-01  Symmetry=a1
              MO Center=  1.0D-14,  8.4D-15,  1.1D+00, r^2= 3.6D+00
   Bfn.  Coefficient  Atom+Function         Bfn.  Coefficient  Atom+Function  
  ----- ------------  ---------------      ----- ------------  ---------------
    21      2.469038  2 C  s                 32     -1.244189  3 H  s          
    34     -1.244189  4 H  s                 36     -1.244189  5 H  s          
    24      0.810175  2 C  pz                20      0.176619  2 C  pz         

 Vector   11  Occ=0.000000D+00  E= 3.660581D-01  Symmetry=e
              MO Center= -2.1D-01, -4.2D-01,  9.6D-01, r^2= 3.0D+00
   Bfn.  Coefficient  Atom+Function         Bfn.  Coefficient  Atom+Function  
  ----- ------------  ---------------      ----- ------------  ---------------
    34      1.777351  4 H  s                 36     -1.482187  5 H  s          
    23      1.223027  2 C  py                22     -0.891393  2 C  px         
    19      0.299860  2 C  py                32     -0.295164  3 H  s          
     8     -0.264921  1 O  py                18     -0.218550  2 C  px         
     7      0.193085  1 O  px         

 Vector   12  Occ=0.000000D+00  E= 3.660581D-01  Symmetry=e
              MO Center=  2.1D-01,  4.2D-01,  9.6D-01, r^2= 3.0D+00
   Bfn.  Coefficient  Atom+Function         Bfn.  Coefficient  Atom+Function  
  ----- ------------  ---------------      ----- ------------  ---------------
    32      1.881895  3 H  s                 22     -1.223027  2 C  px         
    36     -1.196567  5 H  s                 23     -0.891393  2 C  py         
    34     -0.685328  4 H  s                 18     -0.299860  2 C  px         
     7      0.264921  1 O  px                19     -0.218550  2 C  py         
     8      0.193085  1 O  py         

 Vector   13  Occ=0.000000D+00  E= 4.180677D-01  Symmetry=a1
              MO Center=  6.5D-17,  8.9D-17,  6.5D-01, r^2= 2.6D+00
   Bfn.  Coefficient  Atom+Function         Bfn.  Coefficient  Atom+Function  
  ----- ------------  ---------------      ----- ------------  ---------------
     6      1.798138  1 O  s                 24      1.731962  2 C  pz         
    21     -1.639093  2 C  s                  9      0.987989  1 O  pz         
     5      0.200423  1 O  pz         

 Vector   14  Occ=0.000000D+00  E= 8.158374D-01  Symmetry=e
              MO Center=  2.0D-01, -8.2D-02,  5.4D-01, r^2= 2.1D+00
   Bfn.  Coefficient  Atom+Function         Bfn.  Coefficient  Atom+Function  
  ----- ------------  ---------------      ----- ------------  ---------------
    22      1.670387  2 C  px                18     -0.721929  2 C  px         
    35      0.499334  5 H  s                 36      0.363117  5 H  s          
    23     -0.331961  2 C  py                31     -0.278085  3 H  s          
     7     -0.272829  1 O  px                33     -0.221249  4 H  s          
    32     -0.202224  3 H  s                 34     -0.160892  4 H  s          

 Vector   15  Occ=0.000000D+00  E= 8.158374D-01  Symmetry=e
              MO Center= -2.0D-01,  8.2D-02,  5.4D-01, r^2= 2.1D+00
   Bfn.  Coefficient  Atom+Function         Bfn.  Coefficient  Atom+Function  
  ----- ------------  ---------------      ----- ------------  ---------------
    23      1.670387  2 C  py                19     -0.721929  2 C  py         
    33      0.448843  4 H  s                 31     -0.416029  3 H  s          
    22      0.331961  2 C  px                34      0.326400  4 H  s          
    32     -0.302537  3 H  s                  8     -0.272829  1 O  py         
     4     -0.157871  1 O  py         

 Vector   16  Occ=0.000000D+00  E= 9.125832D-01  Symmetry=a1
              MO Center=  7.6D-18,  1.1D-18,  1.2D-01, r^2= 1.4D+00
   Bfn.  Coefficient  Atom+Function         Bfn.  Coefficient  Atom+Function  
  ----- ------------  ---------------      ----- ------------  ---------------
    20      1.018963  2 C  pz                24     -0.985234  2 C  pz         
     6     -0.550136  1 O  s                 17     -0.465378  2 C  s          
     5      0.315081  1 O  pz                 2      0.249356  1 O  s          
     9      0.220237  1 O  pz                21      0.152440  2 C  s          

 Vector   17  Occ=0.000000D+00  E= 1.131543D+00  Symmetry=a1
              MO Center= -1.7D-17, -1.3D-16, -5.1D-01, r^2= 2.5D+00
   Bfn.  Coefficient  Atom+Function         Bfn.  Coefficient  Atom+Function  
  ----- ------------  ---------------      ----- ------------  ---------------
     6      1.553211  1 O  s                 21      1.542392  2 C  s          
     2     -0.900409  1 O  s                 24      0.555529  2 C  pz         
     9     -0.524124  1 O  pz                17     -0.494588  2 C  s          
     5      0.468907  1 O  pz                15     -0.402259  1 O  dzz        
    31     -0.356914  3 H  s                 33     -0.356914  4 H  s          

 Vector   18  Occ=0.000000D+00  E= 1.163951D+00  Symmetry=e
              MO Center=  9.2D-02, -3.1D-01,  8.1D-01, r^2= 1.8D+00
   Bfn.  Coefficient  Atom+Function         Bfn.  Coefficient  Atom+Function  
  ----- ------------  ---------------      ----- ------------  ---------------
    34      1.500993  4 H  s                 23      1.186502  2 C  py         
    19     -0.845708  2 C  py                33     -0.792857  4 H  s          
    32     -0.767902  3 H  s                 36     -0.733090  5 H  s          
    31      0.405623  3 H  s                 35      0.387234  5 H  s          
    22     -0.300955  2 C  px                29      0.237895  2 C  dyz        

 Vector   19  Occ=0.000000D+00  E= 1.163951D+00  Symmetry=e
              MO Center= -9.2D-02,  3.1D-01,  8.1D-01, r^2= 1.8D+00
   Bfn.  Coefficient  Atom+Function         Bfn.  Coefficient  Atom+Function  
  ----- ------------  ---------------      ----- ------------  ---------------
    36      1.309947  5 H  s                 32     -1.289848  3 H  s          
    22      1.186502  2 C  px                18     -0.845708  2 C  px         
    35     -0.691943  5 H  s                 31      0.681326  3 H  s          
    23      0.300955  2 C  py                27      0.237895  2 C  dxz        
    26      0.223552  2 C  dxy               19     -0.214513  2 C  py         


 center of mass
 --------------
 x =   0.00000000 y =  -0.00000000 z =  -0.18032899

 moments of inertia (a.u.)
 ------------------
          64.611309796422           0.000000000000           0.000000000000
           0.000000000000          64.611309796422           0.000000000000
           0.000000000000           0.000000000000          11.036679212476

  Mulliken analysis of the total density
  --------------------------------------

    Atom       Charge   Shell Charges
 -----------   ------   -------------------------------------------------------
    1 O    8     9.04   2.00  0.85  2.85  1.06  2.27  0.01
    2 C    6     6.05   2.00  0.64  1.95  0.53  0.82  0.12
    3 H    1     0.97   0.55  0.42
    4 H    1     0.97   0.55  0.42
    5 H    1     0.97   0.55  0.42

       Multipole analysis of the density wrt the origin
       ------------------------------------------------

     L   x y z        total         open         nuclear
     -   - - -        -----         ----         -------
     0   0 0 0     -1.000000      0.000000     17.000000

     1   1 0 0     -0.000000      0.000000      0.000000
     1   0 1 0     -0.000000      0.000000     -0.000000
     1   0 0 1      1.429549      0.000000      0.000000

     2   2 0 0    -11.387985      0.000000      5.475494
     2   1 1 0     -0.000000      0.000000      0.000000
     2   1 0 1     -0.000000      0.000000      0.000000
     2   0 2 0    -11.387985      0.000000      5.475494
     2   0 1 1     -0.000000      0.000000     -0.000000
     2   0 0 2    -14.272938      0.000000     35.326586

                              NWChem Gradients Module
                              -----------------------



  wavefunction    =   RHF     

  Using symmetry


                         RHF ENERGY GRADIENTS

    atom               coordinates                        gradient
                 x          y          z           x          y          z
   1 o      -0.000000  -0.000000  -1.499342   -0.000000   0.000000  -0.001234
   2 c       0.000000   0.000000   1.058235    0.000000   0.000000   0.024822
   3 h       1.350987   1.350987   1.881773   -0.002307  -0.002307  -0.007863
   4 h       0.494495  -1.845482   1.881773   -0.000845   0.003152  -0.007863
   5 h      -1.845482   0.494495   1.881773    0.003152  -0.000845  -0.007863

                 ----------------------------------------
                 |  Time  |  1-e(secs)   |  2-e(secs)   |
                 ----------------------------------------
                 |  CPU   |       0.02   |       0.15   |
                 ----------------------------------------
                 |  WALL  |       0.02   |       0.15   |
                 ----------------------------------------
  no constraints, skipping    0.0000000000000000     

@ Step       Energy      Delta E   Gmax     Grms     Xrms     Xmax   Walltime
@ ---- ---------------- -------- -------- -------- -------- -------- --------
@    0    -114.51211368  0.0D+00  0.00611  0.00412  0.00000  0.00000      1.3
                                                                    



                                Z-matrix (autoz)
                                -------- 

 Units are Angstrom for bonds and degrees for angles

      Type          Name      I     J     K     L     M      Value     Gradient
      ----------- --------  ----- ----- ----- ----- ----- ---------- ----------
    1 Stretch                  1     2                       1.35341    0.00123
    2 Stretch                  2     3                       1.10096   -0.00611
    3 Stretch                  2     4                       1.10096   -0.00611
    4 Stretch                  2     5                       1.10096   -0.00611
    5 Bend                     1     2     3               113.31798   -0.00286
    6 Bend                     1     2     4               113.31798   -0.00286
    7 Bend                     1     2     5               113.31798   -0.00286
    8 Bend                     3     2     4               105.36538    0.00324
    9 Bend                     3     2     5               105.36538    0.00324
   10 Bend                     4     2     5               105.36538    0.00324

  no constraints, skipping    0.0000000000000000     
  no constraints, skipping    0.0000000000000000     
  no constraints, skipping    0.0000000000000000     
  no constraints, skipping    0.0000000000000000     
  no constraints, skipping    0.0000000000000000     
  no constraints, skipping    0.0000000000000000     
  no constraints, skipping    0.0000000000000000     
  no constraints, skipping    0.0000000000000000     

 solvent parameters
 solvname_short: h2o     
 solvname_long:  water                              
 dielec:       78.4000
 dielecinf:     1.7769

          ---------------
          -cosmo- solvent
          ---------------
 Cosmo: York-Karplus, doi: 10.1021/jp992097l
 dielectric constant -eps-     =  78.40
 screen = (eps-1)/(eps    )    =   0.98724
 surface charge correction     = lagrangian
 -lineq- algorithm             =   0
 -bem- low  level              =   2
 -bem- from -octahedral-
 gaussian surface charge width =   0.98000
 degree of switching           =   1.00000
 switching function tolerance  =   0.00010
 atomic radii = 
 --------------
    1  8.000  1.720
    2  6.000  2.000
    3  1.000  1.300
    4  1.000  1.300
    5  1.000  1.300

 solvent accessible surface
 --------------------------

 ---------- ATOMIC COORDINATES (A.U.) ------------ VDWR(ANG.) --
     1    0.00000000   -0.00000000   -1.53379718     1.720
     2    0.00000000    0.00000000    1.02082779     2.000
     3    1.34550959    1.34550959    1.90572780     1.300
     4    0.49249069   -1.83800028    1.90572780     1.300
     5   -1.83800028    0.49249069    1.90572780     1.300
 number of segments per atom =         32
 number of   points per atom =         32
 atom (   nspa,  nppa )
 ----------------------
    1 (     24,     0 )       0
    2 (     23,     0 )       0
    3 (     15,     0 )       0
    4 (     16,     0 )       0
    5 (     16,     0 )       0
 number of -cosmo- surface points =       94
 molecular surface =     64.113 angstrom**2
 molecular volume  =     36.202 angstrom**3
 G(cav/disp)       =      1.181 kcal/mol
 ...... end of -cosmo- initialization ......


                                 NWChem SCF Module
                                 -----------------



  ao basis        = "ao basis"
  functions       =    36
  atoms           =     5
  closed shells   =     9
  open shells     =     0
  charge          =  -1.00
  wavefunction    = RHF 
  input vectors   = ./h3co_dat.movecs
  output vectors  = ./h3co_dat.movecs
  use symmetry    = T
  symmetry adapt  = T


 Summary of "ao basis" -> "ao basis" (cartesian)
 ------------------------------------------------------------------------------
       Tag                 Description            Shells   Functions and Types
 ---------------- ------------------------------  ------  ---------------------
 o                           6-31g*                  6       15   3s2p1d
 c                           6-31g*                  6       15   3s2p1d
 h                           6-31g*                  2        2   2s


      Symmetry analysis of basis
      --------------------------

        a1         16
        a2          0
        e          20


 Forming initial guess at       1.3s


 Loading old vectors from job with title :




      Symmetry analysis of molecular orbitals - initial
      -------------------------------------------------

  Numbering of irreducible representations: 

     1 a1          2 a2          3 e       

  Orbital symmetries:

     1 a1          2 a1          3 a1          4 a1          5 e       
     6 e           7 a1          8 e           9 e          10 a1      
    11 e          12 e          13 a1         14 e          15 e       
    16 a1         17 a1         18 e          19 e       


 Starting SCF solution at       1.3s



 ----------------------------------------------
         Quadratically convergent ROHF

 Convergence threshold     :          1.000E-04
 Maximum no. of iterations :           30
 Final Fock-matrix accuracy:          1.000E-07
 ----------------------------------------------

     COSMO gas phase

              iter       energy          gnorm     gmax       time
             ----- ------------------- --------- --------- --------
                 1     -114.3775073796  1.82D-01  7.25D-02      1.4
                 2     -114.3826823744  8.26D-03  2.54D-03      1.5
                 3     -114.3826901824  2.02D-05  6.33D-06      1.6
     COSMO solvation phase

              iter       energy          gnorm     gmax       time
             ----- ------------------- --------- --------- --------
                 1     -114.5095485785  1.34D-01  5.43D-02      1.7
                 2     -114.5127390120  2.79D-02  1.39D-02      1.8
                 3     -114.5128518982  5.45D-03  2.71D-03      1.9
                 4     -114.5128524396  1.04D-03  4.93D-04      2.1
                 5     -114.5128517711  1.96D-04  9.42D-05      2.2
                 6     -114.5128516229  3.72D-05  1.84D-05      2.3
 
                  COSMO solvation results
                  -----------------------
 
                 gas phase energy =      -114.3826901824
                 sol phase energy =      -114.5128516229
 (electrostatic) solvation energy =         0.1301614405 (   81.68 kcal/mol)


       Final RHF  results 
       ------------------ 

         Total SCF energy =   -114.512851622914
      One-electron energy =   -234.738696499913
      Two-electron energy =     81.580373610052
 Nuclear repulsion energy =     34.382758011960
             COSMO energy =      4.262713254986

        Time for solution =      1.0s



       Symmetry analysis of molecular orbitals - final
       -----------------------------------------------

  Numbering of irreducible representations: 

     1 a1          2 a2          3 e       

  Orbital symmetries:

     1 a1          2 a1          3 a1          4 a1          5 e       
     6 e           7 a1          8 e           9 e          10 a1      
    11 e          12 e          13 a1         14 e          15 e       
    16 a1         17 a1         18 e          19 e       

             Final eigenvalues
             -----------------

              1      
    1  -20.3907
    2  -11.2179
    3   -1.1855
    4   -0.8275
    5   -0.5394
    6   -0.5394
    7   -0.4734
    8   -0.3076
    9   -0.3076
   10    0.2786
   11    0.3653
   12    0.3653
   13    0.4175
   14    0.8175
   15    0.8175
   16    0.9110
   17    1.1404
   18    1.1518
   19    1.1518

                       ROHF Final Molecular Orbital Analysis
                       -------------------------------------

 Vector    2  Occ=2.000000D+00  E=-1.121793D+01  Symmetry=a1
              MO Center=  6.5D-21,  8.3D-21,  5.4D-01, r^2= 2.7D-02
   Bfn.  Coefficient  Atom+Function         Bfn.  Coefficient  Atom+Function  
  ----- ------------  ---------------      ----- ------------  ---------------
    16      0.995827  2 C  s          

 Vector    3  Occ=2.000000D+00  E=-1.185481D+00  Symmetry=a1
              MO Center=  3.3D-20,  7.7D-19, -4.7D-01, r^2= 6.4D-01
   Bfn.  Coefficient  Atom+Function         Bfn.  Coefficient  Atom+Function  
  ----- ------------  ---------------      ----- ------------  ---------------
     6      0.437610  1 O  s                  2      0.422465  1 O  s          
     1     -0.195803  1 O  s                 17      0.189035  2 C  s          

 Vector    4  Occ=2.000000D+00  E=-8.274605D-01  Symmetry=a1
              MO Center=  8.5D-18,  1.7D-17,  6.0D-01, r^2= 1.4D+00
   Bfn.  Coefficient  Atom+Function         Bfn.  Coefficient  Atom+Function  
  ----- ------------  ---------------      ----- ------------  ---------------
    21     -0.309680  2 C  s                 17     -0.305503  2 C  s          
     6      0.303059  1 O  s                  2      0.191620  1 O  s          
    20     -0.167699  2 C  pz                16      0.158236  2 C  s          

 Vector    5  Occ=2.000000D+00  E=-5.394333D-01  Symmetry=e
              MO Center= -9.7D-02,  1.7D-01,  4.7D-01, r^2= 1.5D+00
   Bfn.  Coefficient  Atom+Function         Bfn.  Coefficient  Atom+Function  
  ----- ------------  ---------------      ----- ------------  ---------------
    18      0.390850  2 C  px                 3      0.239645  1 O  px         
    35     -0.214866  5 H  s                 36     -0.204747  5 H  s          
    22      0.190085  2 C  px                31      0.183570  3 H  s          
    32      0.174925  3 H  s                  7      0.161199  1 O  px         

 Vector    6  Occ=2.000000D+00  E=-5.394333D-01  Symmetry=e
              MO Center=  9.7D-02, -1.7D-01,  4.7D-01, r^2= 1.5D+00
   Bfn.  Coefficient  Atom+Function         Bfn.  Coefficient  Atom+Function  
  ----- ------------  ---------------      ----- ------------  ---------------
    19      0.390850  2 C  py                 4      0.239645  1 O  py         
    33     -0.230037  4 H  s                 34     -0.219204  4 H  s          
    23      0.190085  2 C  py                 8      0.161199  1 O  py         

 Vector    7  Occ=2.000000D+00  E=-4.733869D-01  Symmetry=a1
              MO Center=  3.6D-18,  4.4D-18, -5.0D-01, r^2= 1.2D+00
   Bfn.  Coefficient  Atom+Function         Bfn.  Coefficient  Atom+Function  
  ----- ------------  ---------------      ----- ------------  ---------------
     5      0.467827  1 O  pz                20     -0.361640  2 C  pz         
     6     -0.349467  1 O  s                  9      0.341852  1 O  pz         

 Vector    8  Occ=2.000000D+00  E=-3.075942D-01  Symmetry=e
              MO Center= -8.7D-02, -3.2D-02, -4.0D-01, r^2= 1.5D+00
   Bfn.  Coefficient  Atom+Function         Bfn.  Coefficient  Atom+Function  
  ----- ------------  ---------------      ----- ------------  ---------------
     3      0.460908  1 O  px                 7      0.428981  1 O  px         
     4     -0.295620  1 O  py                 8     -0.275143  1 O  py         
    36      0.276351  5 H  s                 34     -0.214442  4 H  s          
    35      0.163766  5 H  s          

 Vector    9  Occ=2.000000D+00  E=-3.075942D-01  Symmetry=e
              MO Center=  8.7D-02,  3.2D-02, -4.0D-01, r^2= 1.5D+00
   Bfn.  Coefficient  Atom+Function         Bfn.  Coefficient  Atom+Function  
  ----- ------------  ---------------      ----- ------------  ---------------
     4      0.460908  1 O  py                 8      0.428981  1 O  py         
     3      0.295620  1 O  px                32     -0.283359  3 H  s          
     7      0.275143  1 O  px                34      0.195294  4 H  s          
    31     -0.167920  3 H  s          

 Vector   10  Occ=0.000000D+00  E= 2.785973D-01  Symmetry=a1
              MO Center=  6.0D-17, -6.8D-16,  1.1D+00, r^2= 3.5D+00
   Bfn.  Coefficient  Atom+Function         Bfn.  Coefficient  Atom+Function  
  ----- ------------  ---------------      ----- ------------  ---------------
    21      2.446387  2 C  s                 32     -1.239671  3 H  s          
    34     -1.239671  4 H  s                 36     -1.239671  5 H  s          
    24      0.845468  2 C  pz                20      0.176663  2 C  pz         

 Vector   11  Occ=0.000000D+00  E= 3.653219D-01  Symmetry=e
              MO Center=  4.1D-01, -2.0D-01,  9.6D-01, r^2= 3.0D+00
   Bfn.  Coefficient  Atom+Function         Bfn.  Coefficient  Atom+Function  
  ----- ------------  ---------------      ----- ------------  ---------------
    34      1.696139  4 H  s                 32     -1.520115  3 H  s          
    23      1.458160  2 C  py                19      0.372316  2 C  py         
     8     -0.330396  1 O  py                22      0.246233  2 C  px         
    36     -0.176024  5 H  s          

 Vector   12  Occ=0.000000D+00  E= 3.653219D-01  Symmetry=e
              MO Center= -4.1D-01,  2.0D-01,  9.6D-01, r^2= 3.0D+00
   Bfn.  Coefficient  Atom+Function         Bfn.  Coefficient  Atom+Function  
  ----- ------------  ---------------      ----- ------------  ---------------
    36      1.856905  5 H  s                 22      1.458160  2 C  px         
    32     -1.080894  3 H  s                 34     -0.776011  4 H  s          
    18      0.372316  2 C  px                 7     -0.330396  1 O  px         
    23     -0.246233  2 C  py         

 Vector   13  Occ=0.000000D+00  E= 4.174847D-01  Symmetry=a1
              MO Center= -4.2D-16,  2.6D-17,  5.9D-01, r^2= 2.6D+00
   Bfn.  Coefficient  Atom+Function         Bfn.  Coefficient  Atom+Function  
  ----- ------------  ---------------      ----- ------------  ---------------
     6      1.808964  1 O  s                 24      1.759884  2 C  pz         
    21     -1.571669  2 C  s                  9      0.991223  1 O  pz         
     5      0.200260  1 O  pz         

 Vector   14  Occ=0.000000D+00  E= 8.174989D-01  Symmetry=e
              MO Center= -1.8D-01, -7.8D-02,  5.2D-01, r^2= 2.1D+00
   Bfn.  Coefficient  Atom+Function         Bfn.  Coefficient  Atom+Function  
  ----- ------------  ---------------      ----- ------------  ---------------
    23      1.377837  2 C  py                22      0.935146  2 C  px         
    19     -0.610931  2 C  py                31     -0.493770  3 H  s          
    18     -0.414643  2 C  px                33      0.328728  4 H  s          
    32     -0.322115  3 H  s                  8     -0.222520  1 O  py         
    34      0.214449  4 H  s                 26     -0.169403  2 C  dxy        

 Vector   15  Occ=0.000000D+00  E= 8.174989D-01  Symmetry=e
              MO Center=  1.8D-01,  7.8D-02,  5.2D-01, r^2= 2.1D+00
   Bfn.  Coefficient  Atom+Function         Bfn.  Coefficient  Atom+Function  
  ----- ------------  ---------------      ----- ------------  ---------------
    22      1.377837  2 C  px                23     -0.935146  2 C  py         
    18     -0.610931  2 C  px                35      0.474869  5 H  s          
    19      0.414643  2 C  py                33     -0.380365  4 H  s          
    36      0.309785  5 H  s                 34     -0.248134  4 H  s          
     7     -0.222520  1 O  px                 8      0.151025  1 O  py         

 Vector   16  Occ=0.000000D+00  E= 9.110266D-01  Symmetry=a1
              MO Center= -8.8D-18, -2.5D-17,  9.1D-02, r^2= 1.4D+00
   Bfn.  Coefficient  Atom+Function         Bfn.  Coefficient  Atom+Function  
  ----- ------------  ---------------      ----- ------------  ---------------
    20      1.009708  2 C  pz                24     -0.993769  2 C  pz         
     6     -0.558871  1 O  s                 17     -0.491555  2 C  s          
     5      0.318569  1 O  pz                 2      0.247700  1 O  s          
     9      0.214787  1 O  pz                21      0.191392  2 C  s          

 Vector   17  Occ=0.000000D+00  E= 1.140426D+00  Symmetry=a1
              MO Center=  2.6D-17, -1.3D-17, -6.0D-01, r^2= 2.4D+00
   Bfn.  Coefficient  Atom+Function         Bfn.  Coefficient  Atom+Function  
  ----- ------------  ---------------      ----- ------------  ---------------
     6      1.666753  1 O  s                 21      1.421817  2 C  s          
     2     -0.918713  1 O  s                 24      0.631933  2 C  pz         
     9     -0.523952  1 O  pz                 5      0.498924  1 O  pz         
    17     -0.474116  2 C  s                 15     -0.409554  1 O  dzz        
    31     -0.329315  3 H  s                 33     -0.329315  4 H  s          

 Vector   18  Occ=0.000000D+00  E= 1.151801D+00  Symmetry=e
              MO Center=  3.1D-01,  1.0D-01,  8.2D-01, r^2= 1.8D+00
   Bfn.  Coefficient  Atom+Function         Bfn.  Coefficient  Atom+Function  
  ----- ------------  ---------------      ----- ------------  ---------------
    32      1.463865  3 H  s                 23     -1.038398  2 C  py         
    34     -1.029801  4 H  s                 31     -0.770920  3 H  s          
    19      0.735016  2 C  py                22     -0.643273  2 C  px         
    33      0.542327  4 H  s                 18      0.455332  2 C  px         
    36     -0.434064  5 H  s                 26     -0.239851  2 C  dxy        

 Vector   19  Occ=0.000000D+00  E= 1.151801D+00  Symmetry=e
              MO Center= -3.1D-01, -1.0D-01,  8.2D-01, r^2= 1.8D+00
   Bfn.  Coefficient  Atom+Function         Bfn.  Coefficient  Atom+Function  
  ----- ------------  ---------------      ----- ------------  ---------------
    36      1.439718  5 H  s                 34     -1.095770  4 H  s          
    22      1.038398  2 C  px                35     -0.758204  5 H  s          
    18     -0.735016  2 C  px                23     -0.643273  2 C  py         
    33      0.577069  4 H  s                 19      0.455332  2 C  py         
    32     -0.343949  3 H  s                 27      0.214174  2 C  dxz        


 center of mass
 --------------
 x =   0.00000000 y =  -0.00000000 z =  -0.21023319

 moments of inertia (a.u.)
 ------------------
          65.217027436571           0.000000000000          -0.000000000000
           0.000000000000          65.217027436571           0.000000000000
          -0.000000000000           0.000000000000          10.947374459059

  Mulliken analysis of the total density
  --------------------------------------

    Atom       Charge   Shell Charges
 -----------   ------   -------------------------------------------------------
    1 O    8     9.02   2.00  0.85  2.85  1.05  2.26  0.01
    2 C    6     6.05   2.00  0.63  1.93  0.54  0.83  0.12
    3 H    1     0.98   0.55  0.43
    4 H    1     0.98   0.55  0.43
    5 H    1     0.98   0.55  0.43

       Multipole analysis of the density wrt the origin
       ------------------------------------------------

     L   x y z        total         open         nuclear
     -   - - -        -----         ----         -------
     0   0 0 0     -1.000000      0.000000     17.000000

     1   1 0 0      0.000000      0.000000      0.000000
     1   0 1 0      0.000000      0.000000     -0.000000
     1   0 0 1      1.422753      0.000000     -0.428227

     2   2 0 0    -11.470456      0.000000      5.431188
     2   1 1 0      0.000000      0.000000     -0.000000
     2   1 0 1      0.000000      0.000000      0.000000
     2   0 2 0    -11.470456      0.000000      5.431188
     2   0 1 1     -0.000000      0.000000     -0.000000
     2   0 0 2    -14.360506      0.000000     35.968202

 Line search: 
     step= 1.00 grad=-1.4D-03 hess= 6.6D-04 energy=   -114.512852 mode=accept  
 new step= 1.00                   predicted energy=   -114.512852
  no constraints, skipping    0.0000000000000000     
  no constraints, skipping    0.0000000000000000     
  no constraints, skipping    0.0000000000000000     
  no constraints, skipping    0.0000000000000000     
  no constraints, skipping    0.0000000000000000     
  no constraints, skipping    0.0000000000000000     
  no constraints, skipping    0.0000000000000000     
  no constraints, skipping    0.0000000000000000     

          --------
          Step   1
          --------


                         Geometry "geometry" -> "geometry"
                         ---------------------------------

 Output coordinates in angstroms (scale by  1.889725989 to convert to a.u.)

  No.       Tag          Charge          X              Y              Z
 ---- ---------------- ---------- -------------- -------------- --------------
    1 o                    8.0000     0.00000000    -0.00000000    -0.81165057
    2 c                    6.0000     0.00000000     0.00000000     0.54019884
    3 h                    1.0000     0.71201306     0.71201306     1.00846780
    4 h                    1.0000     0.26061487    -0.97262793     1.00846780
    5 h                    1.0000    -0.97262793     0.26061487     1.00846780

      Atomic Mass 
      ----------- 

      o                 15.994910
      c                 12.000000
      h                  1.007825


 Effective nuclear repulsion energy (a.u.)      34.3827580120

            Nuclear Dipole moment (a.u.) 
            ----------------------------
        X                 Y               Z
 ---------------- ---------------- ----------------
     0.0000000000    -0.0000000000    -0.4282273169

      Symmetry information
      --------------------

 Group name             C3v       
 Group number             17
 Group order               6
 No. of unique centers     3

      Symmetry unique atoms

     1    2    3


 solvent parameters
 solvname_short: h2o     
 solvname_long:  water                              
 dielec:       78.4000
 dielecinf:     1.7769

          ---------------
          -cosmo- solvent
          ---------------
 Cosmo: York-Karplus, doi: 10.1021/jp992097l
 dielectric constant -eps-     =  78.40
 screen = (eps-1)/(eps    )    =   0.98724
 surface charge correction     = lagrangian
 -lineq- algorithm             =   0
 -bem- low  level              =   2
 -bem- from -octahedral-
 gaussian surface charge width =   0.98000
 degree of switching           =   1.00000
 switching function tolerance  =   0.00010
 atomic radii = 
 --------------
    1  8.000  1.720
    2  6.000  2.000
    3  1.000  1.300
    4  1.000  1.300
    5  1.000  1.300

 solvent accessible surface
 --------------------------

 ---------- ATOMIC COORDINATES (A.U.) ------------ VDWR(ANG.) --
     1    0.00000000   -0.00000000   -1.53379718     1.720
     2    0.00000000    0.00000000    1.02082779     2.000
     3    1.34550959    1.34550959    1.90572780     1.300
     4    0.49249069   -1.83800028    1.90572780     1.300
     5   -1.83800028    0.49249069    1.90572780     1.300
 number of segments per atom =         32
 number of   points per atom =         32
 atom (   nspa,  nppa )
 ----------------------
    1 (     24,     0 )       0
    2 (     23,     0 )       0
    3 (     15,     0 )       0
    4 (     16,     0 )       0
    5 (     16,     0 )       0
 number of -cosmo- surface points =       94
 molecular surface =     64.113 angstrom**2
 molecular volume  =     36.202 angstrom**3
 G(cav/disp)       =      1.181 kcal/mol
 ...... end of -cosmo- initialization ......


                                 NWChem SCF Module
                                 -----------------



  ao basis        = "ao basis"
  functions       =    36
  atoms           =     5
  closed shells   =     9
  open shells     =     0
  charge          =  -1.00
  wavefunction    = RHF 
  input vectors   = ./h3co_dat.movecs
  output vectors  = ./h3co_dat.movecs
  use symmetry    = T
  symmetry adapt  = T


 Summary of "ao basis" -> "ao basis" (cartesian)
 ------------------------------------------------------------------------------
       Tag                 Description            Shells   Functions and Types
 ---------------- ------------------------------  ------  ---------------------
 o                           6-31g*                  6       15   3s2p1d
 c                           6-31g*                  6       15   3s2p1d
 h                           6-31g*                  2        2   2s


      Symmetry analysis of basis
      --------------------------

        a1         16
        a2          0
        e          20


  The SCF is already converged 

         Total SCF energy =   -114.512851622914

                              NWChem Gradients Module
                              -----------------------



  wavefunction    =   RHF     

  Using symmetry


                         RHF ENERGY GRADIENTS

    atom               coordinates                        gradient
                 x          y          z           x          y          z
   1 o       0.000000  -0.000000  -1.533797    0.000000   0.000000  -0.007452
   2 c       0.000000   0.000000   1.020828   -0.000000   0.000000   0.010575
   3 h       1.345510   1.345510   1.905728   -0.000693  -0.000693  -0.001041
   4 h       0.492491  -1.838000   1.905728   -0.000254   0.000947  -0.001041
   5 h      -1.838000   0.492491   1.905728    0.000947  -0.000254  -0.001041

                 ----------------------------------------
                 |  Time  |  1-e(secs)   |  2-e(secs)   |
                 ----------------------------------------
                 |  CPU   |       0.02   |       0.15   |
                 ----------------------------------------
                 |  WALL  |       0.02   |       0.15   |
                 ----------------------------------------
  no constraints, skipping    0.0000000000000000     

  Step       Energy      Delta E   Gmax     Grms     Xrms     Xmax   Walltime
  ---- ---------------- -------- -------- -------- -------- -------- --------
@    1    -114.51285162 -7.4D-04  0.00745  0.00248  0.01722  0.03710      2.5
                                                                    



                                Z-matrix (autoz)
                                -------- 

 Units are Angstrom for bonds and degrees for angles

      Type          Name      I     J     K     L     M      Value     Gradient
      ----------- --------  ----- ----- ----- ----- ----- ---------- ----------
    1 Stretch                  1     2                       1.35185    0.00745
    2 Stretch                  2     3                       1.11050   -0.00133
    3 Stretch                  2     4                       1.11050   -0.00133
    4 Stretch                  2     5                       1.11050   -0.00133
    5 Bend                     1     2     3               114.94042   -0.00025
    6 Bend                     1     2     4               114.94042   -0.00025
    7 Bend                     1     2     5               114.94042   -0.00025
    8 Bend                     3     2     4               103.49053    0.00029
    9 Bend                     3     2     5               103.49053    0.00029
   10 Bend                     4     2     5               103.49053    0.00029

  no constraints, skipping    0.0000000000000000     
  no constraints, skipping    0.0000000000000000     
  no constraints, skipping    0.0000000000000000     
  no constraints, skipping    0.0000000000000000     
  no constraints, skipping    0.0000000000000000     
  no constraints, skipping    0.0000000000000000     
  no constraints, skipping    0.0000000000000000     
  no constraints, skipping    0.0000000000000000     

 solvent parameters
 solvname_short: h2o     
 solvname_long:  water                              
 dielec:       78.4000
 dielecinf:     1.7769

          ---------------
          -cosmo- solvent
          ---------------
 Cosmo: York-Karplus, doi: 10.1021/jp992097l
 dielectric constant -eps-     =  78.40
 screen = (eps-1)/(eps    )    =   0.98724
 surface charge correction     = lagrangian
 -lineq- algorithm             =   0
 -bem- low  level              =   2
 -bem- from -octahedral-
 gaussian surface charge width =   0.98000
 degree of switching           =   1.00000
 switching function tolerance  =   0.00010
 atomic radii = 
 --------------
    1  8.000  1.720
    2  6.000  2.000
    3  1.000  1.300
    4  1.000  1.300
    5  1.000  1.300

 solvent accessible surface
 --------------------------

 ---------- ATOMIC COORDINATES (A.U.) ------------ VDWR(ANG.) --
     1    0.00000000    0.00000000   -1.52600947     1.720
     2    0.00000000    0.00000000    1.00764577     2.000
     3    1.34584784    1.34584784    1.90752590     1.300
     4    0.49261450   -1.83846234    1.90752590     1.300
     5   -1.83846234    0.49261450    1.90752590     1.300
 number of segments per atom =         32
 number of   points per atom =         32
 atom (   nspa,  nppa )
 ----------------------
    1 (     24,     0 )       0
    2 (     23,     0 )       0
    3 (     15,     0 )       0
    4 (     16,     0 )       0
    5 (     16,     0 )       0
 number of -cosmo- surface points =       94
 molecular surface =     64.148 angstrom**2
 molecular volume  =     36.205 angstrom**3
 G(cav/disp)       =      1.181 kcal/mol
 ...... end of -cosmo- initialization ......


                                 NWChem SCF Module
                                 -----------------



  ao basis        = "ao basis"
  functions       =    36
  atoms           =     5
  closed shells   =     9
  open shells     =     0
  charge          =  -1.00
  wavefunction    = RHF 
  input vectors   = ./h3co_dat.movecs
  output vectors  = ./h3co_dat.movecs
  use symmetry    = T
  symmetry adapt  = T


 Summary of "ao basis" -> "ao basis" (cartesian)
 ------------------------------------------------------------------------------
       Tag                 Description            Shells   Functions and Types
 ---------------- ------------------------------  ------  ---------------------
 o                           6-31g*                  6       15   3s2p1d
 c                           6-31g*                  6       15   3s2p1d
 h                           6-31g*                  2        2   2s


      Symmetry analysis of basis
      --------------------------

        a1         16
        a2          0
        e          20


 Forming initial guess at       2.5s


 Loading old vectors from job with title :




      Symmetry analysis of molecular orbitals - initial
      -------------------------------------------------

  Numbering of irreducible representations: 

     1 a1          2 a2          3 e       

  Orbital symmetries:

     1 a1          2 a1          3 a1          4 a1          5 e       
     6 e           7 a1          8 e           9 e          10 a1      
    11 e          12 e          13 a1         14 e          15 e       
    16 a1         17 a1         18 e          19 e       


 Starting SCF solution at       2.5s



 ----------------------------------------------
         Quadratically convergent ROHF

 Convergence threshold     :          1.000E-04
 Maximum no. of iterations :           30
 Final Fock-matrix accuracy:          1.000E-07
 ----------------------------------------------

     COSMO gas phase

              iter       energy          gnorm     gmax       time
             ----- ------------------- --------- --------- --------
                 1     -114.3787303271  1.71D-01  6.64D-02      2.6
                 2     -114.3833926697  7.38D-03  2.15D-03      2.7
                 3     -114.3833986265  5.51D-05  2.25D-05      2.8
     COSMO solvation phase

              iter       energy          gnorm     gmax       time
             ----- ------------------- --------- --------- --------
                 1     -114.5097459405  1.32D-01  5.19D-02      2.8
                 2     -114.5128432041  2.76D-02  1.34D-02      3.0
                 3     -114.5129528627  5.42D-03  2.62D-03      3.1
                 4     -114.5129532294  1.04D-03  4.80D-04      3.2
                 5     -114.5129525418  1.97D-04  9.20D-05      3.4
                 6     -114.5129523895  3.75D-05  1.80D-05      3.5
 
                  COSMO solvation results
                  -----------------------
 
                 gas phase energy =      -114.3833986265
                 sol phase energy =      -114.5129523895
 (electrostatic) solvation energy =         0.1295537630 (   81.30 kcal/mol)


       Final RHF  results 
       ------------------ 

         Total SCF energy =   -114.512952389466
      One-electron energy =   -234.980507153499
      Two-electron energy =     81.689104279060
 Nuclear repulsion energy =     34.518152725537
             COSMO energy =      4.260297759437

        Time for solution =      0.9s



       Symmetry analysis of molecular orbitals - final
       -----------------------------------------------

  Numbering of irreducible representations: 

     1 a1          2 a2          3 e       

  Orbital symmetries:

     1 a1          2 a1          3 a1          4 a1          5 e       
     6 e           7 a1          8 e           9 e          10 a1      
    11 e          12 e          13 a1         14 e          15 e       
    16 a1         17 a1         18 e          19 e       

             Final eigenvalues
             -----------------

              1      
    1  -20.3915
    2  -11.2194
    3   -1.1917
    4   -0.8259
    5   -0.5397
    6   -0.5397
    7   -0.4780
    8   -0.3076
    9   -0.3076
   10    0.2779
   11    0.3655
   12    0.3655
   13    0.4185
   14    0.8185
   15    0.8185
   16    0.9194
   17    1.1424
   18    1.1478
   19    1.1478

                       ROHF Final Molecular Orbital Analysis
                       -------------------------------------

 Vector    2  Occ=2.000000D+00  E=-1.121938D+01  Symmetry=a1
              MO Center=  1.7D-20,  1.0D-20,  5.3D-01, r^2= 2.7D-02
   Bfn.  Coefficient  Atom+Function         Bfn.  Coefficient  Atom+Function  
  ----- ------------  ---------------      ----- ------------  ---------------
    16      0.995827  2 C  s          

 Vector    3  Occ=2.000000D+00  E=-1.191660D+00  Symmetry=a1
              MO Center=  6.5D-19,  4.4D-18, -4.7D-01, r^2= 6.3D-01
   Bfn.  Coefficient  Atom+Function         Bfn.  Coefficient  Atom+Function  
  ----- ------------  ---------------      ----- ------------  ---------------
     6      0.433782  1 O  s                  2      0.422319  1 O  s          
     1     -0.195628  1 O  s                 17      0.190596  2 C  s          

 Vector    4  Occ=2.000000D+00  E=-8.259260D-01  Symmetry=a1
              MO Center= -7.8D-18,  1.6D-18,  6.0D-01, r^2= 1.4D+00
   Bfn.  Coefficient  Atom+Function         Bfn.  Coefficient  Atom+Function  
  ----- ------------  ---------------      ----- ------------  ---------------
    21     -0.310371  2 C  s                  6      0.302849  1 O  s          
    17     -0.304347  2 C  s                  2      0.190659  1 O  s          
    20     -0.169520  2 C  pz                16      0.157682  2 C  s          

 Vector    5  Occ=2.000000D+00  E=-5.397244D-01  Symmetry=e
              MO Center=  4.7D-02, -1.8D-01,  4.5D-01, r^2= 1.5D+00
   Bfn.  Coefficient  Atom+Function         Bfn.  Coefficient  Atom+Function  
  ----- ------------  ---------------      ----- ------------  ---------------
    19      0.378232  2 C  py                 4      0.239422  1 O  py         
    33     -0.229490  4 H  s                 34     -0.219534  4 H  s          
    23      0.184357  2 C  py                 8      0.161197  1 O  py         

 Vector    6  Occ=2.000000D+00  E=-5.397244D-01  Symmetry=e
              MO Center= -4.7D-02,  1.8D-01,  4.5D-01, r^2= 1.5D+00
   Bfn.  Coefficient  Atom+Function         Bfn.  Coefficient  Atom+Function  
  ----- ------------  ---------------      ----- ------------  ---------------
    18      0.378232  2 C  px                 3      0.239422  1 O  px         
    31      0.199425  3 H  s                 35     -0.198063  5 H  s          
    32      0.190774  3 H  s                 36     -0.189470  5 H  s          
    22      0.184357  2 C  px                 7      0.161197  1 O  px         

 Vector    7  Occ=2.000000D+00  E=-4.779897D-01  Symmetry=a1
              MO Center=  5.6D-19, -1.7D-18, -5.0D-01, r^2= 1.2D+00
   Bfn.  Coefficient  Atom+Function         Bfn.  Coefficient  Atom+Function  
  ----- ------------  ---------------      ----- ------------  ---------------
     5      0.469413  1 O  pz                20     -0.361017  2 C  pz         
     6     -0.350766  1 O  s                  9      0.341469  1 O  pz         

 Vector    8  Occ=2.000000D+00  E=-3.076070D-01  Symmetry=e
              MO Center= -6.5D-02, -7.3D-02, -3.7D-01, r^2= 1.5D+00
   Bfn.  Coefficient  Atom+Function         Bfn.  Coefficient  Atom+Function  
  ----- ------------  ---------------      ----- ------------  ---------------
     4     -0.395945  1 O  py                 3      0.373651  1 O  px         
     8     -0.368744  1 O  py                 7      0.347981  1 O  px         
    34     -0.261600  4 H  s                 36      0.252993  5 H  s          
    33     -0.154337  4 H  s          

 Vector    9  Occ=2.000000D+00  E=-3.076070D-01  Symmetry=e
              MO Center=  6.5D-02,  7.3D-02, -3.7D-01, r^2= 1.5D+00
   Bfn.  Coefficient  Atom+Function         Bfn.  Coefficient  Atom+Function  
  ----- ------------  ---------------      ----- ------------  ---------------
     3      0.395945  1 O  px                 4      0.373651  1 O  py         
     7      0.368744  1 O  px                 8      0.347981  1 O  py         
    32     -0.297100  3 H  s                 31     -0.175281  3 H  s          
    36      0.156004  5 H  s          

 Vector   10  Occ=0.000000D+00  E= 2.778552D-01  Symmetry=a1
              MO Center=  1.1D-16,  9.0D-17,  1.1D+00, r^2= 3.5D+00
   Bfn.  Coefficient  Atom+Function         Bfn.  Coefficient  Atom+Function  
  ----- ------------  ---------------      ----- ------------  ---------------
    21      2.432494  2 C  s                 32     -1.236026  3 H  s          
    34     -1.236026  4 H  s                 36     -1.236026  5 H  s          
    24      0.854952  2 C  pz                20      0.178367  2 C  pz         

 Vector   11  Occ=0.000000D+00  E= 3.654597D-01  Symmetry=e
              MO Center= -2.4D-01, -3.8D-01,  9.5D-01, r^2= 3.0D+00
   Bfn.  Coefficient  Atom+Function         Bfn.  Coefficient  Atom+Function  
  ----- ------------  ---------------      ----- ------------  ---------------
    34      1.697603  4 H  s                 36     -1.493735  5 H  s          
    23      1.150193  2 C  py                22     -0.921022  2 C  px         
    19      0.296661  2 C  py                 8     -0.267783  1 O  py         
    18     -0.237553  2 C  px                 7      0.214429  1 O  px         
    32     -0.203867  3 H  s          

 Vector   12  Occ=0.000000D+00  E= 3.654597D-01  Symmetry=e
              MO Center=  2.4D-01,  3.8D-01,  9.5D-01, r^2= 3.0D+00
   Bfn.  Coefficient  Atom+Function         Bfn.  Coefficient  Atom+Function  
  ----- ------------  ---------------      ----- ------------  ---------------
    32      1.842520  3 H  s                 22     -1.150193  2 C  px         
    36     -1.097814  5 H  s                 23     -0.921022  2 C  py         
    34     -0.744705  4 H  s                 18     -0.296661  2 C  px         
     7      0.267783  1 O  px                19     -0.237553  2 C  py         
     8      0.214429  1 O  py         

 Vector   13  Occ=0.000000D+00  E= 4.184524D-01  Symmetry=a1
              MO Center=  1.9D-17,  4.3D-18,  5.9D-01, r^2= 2.6D+00
   Bfn.  Coefficient  Atom+Function         Bfn.  Coefficient  Atom+Function  
  ----- ------------  ---------------      ----- ------------  ---------------
     6      1.853798  1 O  s                 24      1.785081  2 C  pz         
    21     -1.600357  2 C  s                  9      0.994184  1 O  pz         
     5      0.193555  1 O  pz         

 Vector   14  Occ=0.000000D+00  E= 8.185019D-01  Symmetry=e
              MO Center=  1.3D-01,  1.5D-01,  5.1D-01, r^2= 2.1D+00
   Bfn.  Coefficient  Atom+Function         Bfn.  Coefficient  Atom+Function  
  ----- ------------  ---------------      ----- ------------  ---------------
    23     -1.211643  2 C  py                22      1.144104  2 C  px         
    19      0.539627  2 C  py                18     -0.509547  2 C  px         
    33     -0.440721  4 H  s                 35      0.426368  5 H  s          
    34     -0.288251  4 H  s                 36      0.278864  5 H  s          
     8      0.197104  1 O  py                 7     -0.186117  1 O  px         

 Vector   15  Occ=0.000000D+00  E= 8.185019D-01  Symmetry=e
              MO Center= -1.3D-01, -1.5D-01,  5.1D-01, r^2= 2.1D+00
   Bfn.  Coefficient  Atom+Function         Bfn.  Coefficient  Atom+Function  
  ----- ------------  ---------------      ----- ------------  ---------------
    22      1.211643  2 C  px                23      1.144104  2 C  py         
    18     -0.539627  2 C  px                19     -0.509547  2 C  py         
    31     -0.500614  3 H  s                 32     -0.327424  3 H  s          
    35      0.262737  5 H  s                 33      0.237877  4 H  s          
     7     -0.197104  1 O  px                 8     -0.186117  1 O  py         

 Vector   16  Occ=0.000000D+00  E= 9.194458D-01  Symmetry=a1
              MO Center= -1.1D-18,  8.0D-18,  6.6D-02, r^2= 1.3D+00
   Bfn.  Coefficient  Atom+Function         Bfn.  Coefficient  Atom+Function  
  ----- ------------  ---------------      ----- ------------  ---------------
    20      1.009915  2 C  pz                24     -0.972740  2 C  pz         
     6     -0.539956  1 O  s                 17     -0.499388  2 C  s          
     5      0.314686  1 O  pz                 2      0.253048  1 O  s          
     9      0.243682  1 O  pz                21      0.174816  2 C  s          

 Vector   17  Occ=0.000000D+00  E= 1.142381D+00  Symmetry=a1
              MO Center= -1.2D-17, -9.0D-17, -6.3D-01, r^2= 2.4D+00
   Bfn.  Coefficient  Atom+Function         Bfn.  Coefficient  Atom+Function  
  ----- ------------  ---------------      ----- ------------  ---------------
     6      1.662398  1 O  s                 21      1.369545  2 C  s          
     2     -0.910822  1 O  s                 24      0.630525  2 C  pz         
     9     -0.543520  1 O  pz                 5      0.514741  1 O  pz         
    17     -0.455343  2 C  s                 15     -0.411980  1 O  dzz        
    31     -0.322115  3 H  s                 33     -0.322115  4 H  s          

 Vector   18  Occ=0.000000D+00  E= 1.147797D+00  Symmetry=e
              MO Center= -3.3D-01, -3.8D-02,  8.2D-01, r^2= 1.8D+00
   Bfn.  Coefficient  Atom+Function         Bfn.  Coefficient  Atom+Function  
  ----- ------------  ---------------      ----- ------------  ---------------
    36      1.472896  5 H  s                 22      1.088030  2 C  px         
    34     -0.979489  4 H  s                 35     -0.780078  5 H  s          
    18     -0.771888  2 C  px                23     -0.525683  2 C  py         
    33      0.518759  4 H  s                 32     -0.493407  3 H  s          
    19      0.372939  2 C  py                31      0.261319  3 H  s          

 Vector   19  Occ=0.000000D+00  E= 1.147797D+00  Symmetry=e
              MO Center=  3.3D-01,  3.8D-02,  8.2D-01, r^2= 1.8D+00
   Bfn.  Coefficient  Atom+Function         Bfn.  Coefficient  Atom+Function  
  ----- ------------  ---------------      ----- ------------  ---------------
    32      1.415885  3 H  s                 34     -1.135246  4 H  s          
    23     -1.088030  2 C  py                19      0.771888  2 C  py         
    31     -0.749884  3 H  s                 33      0.601251  4 H  s          
    22     -0.525683  2 C  px                18      0.372939  2 C  px         
    36     -0.280639  5 H  s                 26     -0.231254  2 C  dxy        


 center of mass
 --------------
 x =   0.00000000 y =   0.00000000 z =  -0.21114181

 moments of inertia (a.u.)
 ------------------
          64.526620926705          -0.000000000000          -0.000000000000
          -0.000000000000          64.526620926705          -0.000000000000
          -0.000000000000          -0.000000000000          10.952879294670

  Mulliken analysis of the total density
  --------------------------------------

    Atom       Charge   Shell Charges
 -----------   ------   -------------------------------------------------------
    1 O    8     9.02   2.00  0.85  2.85  1.05  2.25  0.01
    2 C    6     6.04   2.00  0.63  1.93  0.54  0.82  0.12
    3 H    1     0.98   0.54  0.44
    4 H    1     0.98   0.54  0.44
    5 H    1     0.98   0.54  0.44

       Multipole analysis of the density wrt the origin
       ------------------------------------------------

     L   x y z        total         open         nuclear
     -   - - -        -----         ----         -------
     0   0 0 0     -1.000000      0.000000     17.000000

     1   1 0 0      0.000000      0.000000      0.000000
     1   0 1 0      0.000000      0.000000      0.000000
     1   0 0 1      1.385844      0.000000     -0.439623

     2   2 0 0    -11.505091      0.000000      5.433919
     2   1 1 0      0.000000      0.000000      0.000000
     2   1 0 1      0.000000      0.000000      0.000000
     2   0 2 0    -11.505091      0.000000      5.433919
     2   0 1 1     -0.000000      0.000000      0.000000
     2   0 0 2    -14.367697      0.000000     35.637704

 Line search: 
     step= 1.00 grad=-2.0D-04 hess= 1.0D-04 energy=   -114.512952 mode=accept  
 new step= 1.00                   predicted energy=   -114.512952
[...]
    31     -0.323049  3 H  s                 33     -0.323049  4 H  s          

 Vector   18  Occ=0.000000D+00  E= 1.147392D+00  Symmetry=e
              MO Center=  3.0D-01, -1.3D-01,  8.2D-01, r^2= 1.8D+00
   Bfn.  Coefficient  Atom+Function         Bfn.  Coefficient  Atom+Function  
  ----- ------------  ---------------      ----- ------------  ---------------
    34      1.350560  4 H  s                 32     -1.237956  3 H  s          
    23      1.186186  2 C  py                19     -0.841675  2 C  py         
    33     -0.715837  4 H  s                 31      0.656153  3 H  s          
    29      0.247798  2 C  dyz               22      0.223941  2 C  px         
    26      0.202318  2 C  dxy               14     -0.185705  1 O  dyz        

 Vector   19  Occ=0.000000D+00  E= 1.147392D+00  Symmetry=e
              MO Center= -3.0D-01,  1.3D-01,  8.2D-01, r^2= 1.8D+00
   Bfn.  Coefficient  Atom+Function         Bfn.  Coefficient  Atom+Function  
  ----- ------------  ---------------      ----- ------------  ---------------
    36      1.494481  5 H  s                 22      1.186186  2 C  px         
    18     -0.841675  2 C  px                32     -0.844758  3 H  s          
    35     -0.792119  5 H  s                 34     -0.649722  4 H  s          
    31      0.447747  3 H  s                 33      0.344372  4 H  s          
    27      0.247798  2 C  dxz               23     -0.223941  2 C  py         


 center of mass
 --------------
 x =  -0.00000000 y =   0.00000000 z =  -0.21088751

 moments of inertia (a.u.)
 ------------------
          64.480795187826           0.000000000000           0.000000000000
           0.000000000000          64.480795187826          -0.000000000000
           0.000000000000          -0.000000000000          10.963340079316

  Mulliken analysis of the total density
  --------------------------------------

    Atom       Charge   Shell Charges
 -----------   ------   -------------------------------------------------------
    1 O    8     9.01   2.00  0.85  2.85  1.05  2.25  0.01
    2 C    6     6.04   2.00  0.63  1.93  0.54  0.82  0.12
    3 H    1     0.98   0.54  0.44
    4 H    1     0.98   0.54  0.44
    5 H    1     0.98   0.54  0.44

       Multipole analysis of the density wrt the origin
       ------------------------------------------------

     L   x y z        total         open         nuclear
     -   - - -        -----         ----         -------
     0   0 0 0     -1.000000      0.000000     17.000000

     1   1 0 0      0.000000      0.000000     -0.000000
     1   0 1 0      0.000000      0.000000      0.000000
     1   0 0 1      1.382947      0.000000     -0.435878

     2   2 0 0    -11.507722      0.000000      5.439109
     2   1 1 0      0.000000      0.000000      0.000000
     2   1 0 1      0.000000      0.000000     -0.000000
     2   0 2 0    -11.507722      0.000000      5.439109
     2   0 1 1      0.000000      0.000000      0.000000
     2   0 0 2    -14.368856      0.000000     35.609737

 Line search: 
     step= 1.00 grad=-4.8D-07 hess= 3.9D-07 energy=   -114.512953 mode=accept  
 new step= 1.00                   predicted energy=   -114.512953
  no constraints, skipping    0.0000000000000000     
  no constraints, skipping    0.0000000000000000     
  no constraints, skipping    0.0000000000000000     

          --------
          Step   4
          --------


                         Geometry "geometry" -> "geometry"
                         ---------------------------------

 Output coordinates in angstroms (scale by  1.889725989 to convert to a.u.)

  No.       Tag          Charge          X              Y              Z
 ---- ---------------- ---------- -------------- -------------- --------------
    1 o                    8.0000     0.00000000     0.00000000    -0.80707534
    2 c                    6.0000     0.00000000     0.00000000     0.53298375
    3 h                    1.0000     0.71253207     0.71253207     1.00934775
    4 h                    1.0000     0.26080484    -0.97333691     1.00934775
    5 h                    1.0000    -0.97333691     0.26080484     1.00934775

      Atomic Mass 
      ----------- 

      o                 15.994910
      c                 12.000000
      h                  1.007825


 Effective nuclear repulsion energy (a.u.)      34.5243061546

            Nuclear Dipole moment (a.u.) 
            ----------------------------
        X                 Y               Z
 ---------------- ---------------- ----------------
    -0.0000000000     0.0000000000    -0.4358784930

      Symmetry information
      --------------------

 Group name             C3v       
 Group number             17
 Group order               6
 No. of unique centers     3

      Symmetry unique atoms

     1    2    3


 solvent parameters
 solvname_short: h2o     
 solvname_long:  water                              
 dielec:       78.4000
 dielecinf:     1.7769

          ---------------
          -cosmo- solvent
          ---------------
 Cosmo: York-Karplus, doi: 10.1021/jp992097l
 dielectric constant -eps-     =  78.40
 screen = (eps-1)/(eps    )    =   0.98724
 surface charge correction     = lagrangian
 -lineq- algorithm             =   0
 -bem- low  level              =   2
 -bem- from -octahedral-
 gaussian surface charge width =   0.98000
 degree of switching           =   1.00000
 switching function tolerance  =   0.00010
 atomic radii = 
 --------------
    1  8.000  1.720
    2  6.000  2.000
    3  1.000  1.300
    4  1.000  1.300
    5  1.000  1.300

 solvent accessible surface
 --------------------------

 ---------- ATOMIC COORDINATES (A.U.) ------------ VDWR(ANG.) --
     1    0.00000000    0.00000000   -1.52515124     1.720
     2    0.00000000    0.00000000    1.00719324     2.000
     3    1.34649038    1.34649038    1.90739067     1.300
     4    0.49284968   -1.83934006    1.90739067     1.300
     5   -1.83934006    0.49284968    1.90739067     1.300
 number of segments per atom =         32
 number of   points per atom =         32
 atom (   nspa,  nppa )
 ----------------------
    1 (     24,     0 )       0
    2 (     23,     0 )       0
    3 (     15,     0 )       0
    4 (     16,     0 )       0
    5 (     16,     0 )       0
 number of -cosmo- surface points =       94
 molecular surface =     64.153 angstrom**2
 molecular volume  =     36.205 angstrom**3
 G(cav/disp)       =      1.181 kcal/mol
 ...... end of -cosmo- initialization ......


                                 NWChem SCF Module
                                 -----------------



  ao basis        = "ao basis"
  functions       =    36
  atoms           =     5
  closed shells   =     9
  open shells     =     0
  charge          =  -1.00
  wavefunction    = RHF 
  input vectors   = ./h3co_dat.movecs
  output vectors  = ./h3co_dat.movecs
  use symmetry    = T
  symmetry adapt  = T


 Summary of "ao basis" -> "ao basis" (cartesian)
 ------------------------------------------------------------------------------
       Tag                 Description            Shells   Functions and Types
 ---------------- ------------------------------  ------  ---------------------
 o                           6-31g*                  6       15   3s2p1d
 c                           6-31g*                  6       15   3s2p1d
 h                           6-31g*                  2        2   2s


      Symmetry analysis of basis
      --------------------------

        a1         16
        a2          0
        e          20


  The SCF is already converged 

         Total SCF energy =   -114.512953324700

                              NWChem Gradients Module
                              -----------------------



  wavefunction    =   RHF     

  Using symmetry


                         RHF ENERGY GRADIENTS

    atom               coordinates                        gradient
                 x          y          z           x          y          z
   1 o       0.000000   0.000000  -1.525151    0.000000   0.000000  -0.000001
   2 c       0.000000   0.000000   1.007193   -0.000000   0.000000   0.000000
   3 h       1.346490   1.346490   1.907391    0.000000   0.000000   0.000000
   4 h       0.492850  -1.839340   1.907391    0.000000  -0.000000   0.000000
   5 h      -1.839340   0.492850   1.907391   -0.000000   0.000000   0.000000

                 ----------------------------------------
                 |  Time  |  1-e(secs)   |  2-e(secs)   |
                 ----------------------------------------
                 |  CPU   |       0.02   |       0.15   |
                 ----------------------------------------
                 |  WALL  |       0.02   |       0.15   |
                 ----------------------------------------
  no constraints, skipping    0.0000000000000000     

  Step       Energy      Delta E   Gmax     Grms     Xrms     Xmax   Walltime
  ---- ---------------- -------- -------- -------- -------- -------- --------
@    4    -114.51295332 -8.9D-08  0.00000  0.00000  0.00029  0.00053      7.0
                                     ok       ok       ok       ok  



                                Z-matrix (autoz)
                                -------- 

 Units are Angstrom for bonds and degrees for angles

      Type          Name      I     J     K     L     M      Value     Gradient
      ----------- --------  ----- ----- ----- ----- ----- ---------- ----------
    1 Stretch                  1     2                       1.34006    0.00000
    2 Stretch                  2     3                       1.11460    0.00000
    3 Stretch                  2     4                       1.11460    0.00000
    4 Stretch                  2     5                       1.11460    0.00000
    5 Bend                     1     2     3               115.30183    0.00000
    6 Bend                     1     2     4               115.30183    0.00000
    7 Bend                     1     2     5               115.30183    0.00000
    8 Bend                     3     2     4               103.06233   -0.00000
    9 Bend                     3     2     5               103.06233   -0.00000
   10 Bend                     4     2     5               103.06233   -0.00000


      ----------------------
      Optimization converged
      ----------------------


  Step       Energy      Delta E   Gmax     Grms     Xrms     Xmax   Walltime
  ---- ---------------- -------- -------- -------- -------- -------- --------
@    4    -114.51295332 -8.9D-08  0.00000  0.00000  0.00029  0.00053      7.0
                                     ok       ok       ok       ok  



                                Z-matrix (autoz)
                                -------- 

 Units are Angstrom for bonds and degrees for angles

      Type          Name      I     J     K     L     M      Value     Gradient
      ----------- --------  ----- ----- ----- ----- ----- ---------- ----------
    1 Stretch                  1     2                       1.34006    0.00000
    2 Stretch                  2     3                       1.11460    0.00000
    3 Stretch                  2     4                       1.11460    0.00000
    4 Stretch                  2     5                       1.11460    0.00000
    5 Bend                     1     2     3               115.30183    0.00000
    6 Bend                     1     2     4               115.30183    0.00000
    7 Bend                     1     2     5               115.30183    0.00000
    8 Bend                     3     2     4               103.06233   -0.00000
    9 Bend                     3     2     5               103.06233   -0.00000
   10 Bend                     4     2     5               103.06233   -0.00000



                         Geometry "geometry" -> "geometry"
                         ---------------------------------

 Output coordinates in angstroms (scale by  1.889725989 to convert to a.u.)

  No.       Tag          Charge          X              Y              Z
 ---- ---------------- ---------- -------------- -------------- --------------
    1 o                    8.0000     0.00000000     0.00000000    -0.80707534
    2 c                    6.0000     0.00000000     0.00000000     0.53298375
    3 h                    1.0000     0.71253207     0.71253207     1.00934775
    4 h                    1.0000     0.26080484    -0.97333691     1.00934775
    5 h                    1.0000    -0.97333691     0.26080484     1.00934775

      Atomic Mass 
      ----------- 

      o                 15.994910
      c                 12.000000
      h                  1.007825


 Effective nuclear repulsion energy (a.u.)      34.5243061546

            Nuclear Dipole moment (a.u.) 
            ----------------------------
        X                 Y               Z
 ---------------- ---------------- ----------------
    -0.0000000000     0.0000000000    -0.4358784930

      Symmetry information
      --------------------

 Group name             C3v       
 Group number             17
 Group order               6
 No. of unique centers     3

      Symmetry unique atoms

     1    2    3


                Final and change from initial internal coordinates
                --------------------------------------------------



                                Z-matrix (autoz)
                                -------- 

 Units are Angstrom for bonds and degrees for angles

      Type          Name      I     J     K     L     M      Value       Change
      ----------- --------  ----- ----- ----- ----- ----- ---------- ----------
    1 Stretch                  1     2                       1.34006   -0.01335
    2 Stretch                  2     3                       1.11460    0.01364
    3 Stretch                  2     4                       1.11460    0.01364
    4 Stretch                  2     5                       1.11460    0.01364
    5 Bend                     1     2     3               115.30183    1.98385
    6 Bend                     1     2     4               115.30183    1.98385
    7 Bend                     1     2     5               115.30183    1.98385
    8 Bend                     3     2     4               103.06233   -2.30305
    9 Bend                     3     2     5               103.06233   -2.30305
   10 Bend                     4     2     5               103.06233   -2.30305

 ==============================================================================
                                internuclear distances
 ------------------------------------------------------------------------------
       center one      |      center two      | atomic units |  angstroms
 ------------------------------------------------------------------------------
    2 c                |   1 o                |     2.53234  |     1.34006
    3 h                |   2 c                |     2.10628  |     1.11460
    4 h                |   2 c                |     2.10628  |     1.11460
    5 h                |   2 c                |     2.10628  |     1.11460
 ------------------------------------------------------------------------------
                         number of included internuclear distances:          4
 ==============================================================================



 ==============================================================================
                                 internuclear angles
 ------------------------------------------------------------------------------
        center 1       |       center 2       |       center 3       |  degrees
 ------------------------------------------------------------------------------
    1 o                |   2 c                |   3 h                |   115.30
    1 o                |   2 c                |   4 h                |   115.30
    1 o                |   2 c                |   5 h                |   115.30
    3 h                |   2 c                |   4 h                |   103.06
    3 h                |   2 c                |   5 h                |   103.06
    4 h                |   2 c                |   5 h                |   103.06
 ------------------------------------------------------------------------------
                            number of included internuclear angles:          6
 ==============================================================================




 Task  times  cpu:        6.9s     wall:        6.9s


                                NWChem Input Module
                                -------------------


 Summary of allocated global arrays
-----------------------------------
  No active global arrays



                         GA Statistics for process    0
                         ------------------------------

       create   destroy   get      put      acc     scatter   gather  read&inc
calls: 4627     4627     6.86e+04 9011     2.85e+04    0        0     2.20e+04 
number of processes/call 1.22e+00 1.42e+00 1.17e+00 0.00e+00 0.00e+00
bytes total:             3.57e+07 1.38e+07 1.87e+07 0.00e+00 0.00e+00 1.76e+05
bytes remote:            8.97e+06 1.46e+06 5.70e+06 0.00e+00 0.00e+00 0.00e+00
Max memory consumed for GA by this process: 90840 bytes

MA_summarize_allocated_blocks: starting scan ...
MA_summarize_allocated_blocks: scan completed: 0 heap blocks, 0 stack blocks
MA usage statistics:

	allocation statistics:
					      heap	     stack
					      ----	     -----
	current number of blocks	         0	         0
	maximum number of blocks	        22	        32
	current total bytes		         0	         0
	maximum total bytes		     80136	  32697192
	maximum total K-bytes		        81	     32698
	maximum total M-bytes		         1	        33


                                     CITATION
                                     --------
                Please cite the following reference when publishing
                           results obtained with NWChem:

                 M. Valiev, E.J. Bylaska, N. Govind, K. Kowalski,
              T.P. Straatsma, H.J.J. van Dam, D. Wang, J. Nieplocha,
                        E. Apra, T.L. Windus, W.A. de Jong
                 "NWChem: a comprehensive and scalable open-source
                  solution for large scale molecular simulations"
                      Comput. Phys. Commun. 181, 1477 (2010)
                           doi:10.1016/j.cpc.2010.04.018

                                      AUTHORS
                                      -------
          E. Apra, E. J. Bylaska, W. A. de Jong, N. Govind, K. Kowalski,
       T. P. Straatsma, M. Valiev, H. J. J. van Dam, D. Wang, T. L. Windus,
        J. Hammond, J. Autschbach, K. Bhaskaran-Nair, J. Brabec, K. Lopata,
    S. A. Fischer, S. Krishnamoorthy, M. Jacquelin, W. Ma, M. Klemm, O. Villa,
      Y. Chen, V. Anisimov, F. Aquino, S. Hirata, M. T. Hackler, V. Konjkov,
            D. Mejia-Rodriguez, T. Risthaus, M. Malagoli, A. Marenich,
   A. Otero-de-la-Roza, J. Mullin, P. Nichols, R. Peverati, J. Pittner, Y. Zhao,
        P.-D. Fan, A. Fonari, M. J. Williamson, R. J. Harrison, J. R. Rehr,
      M. Dupuis, D. Silverstein, D. M. A. Smith, J. Nieplocha, V. Tipparaju,
    M. Krishnan, B. E. Van Kuiken, A. Vazquez-Mayagoitia, L. Jensen, M. Swart,
      Q. Wu, T. Van Voorhis, A. A. Auer, M. Nooijen, L. D. Crosby, E. Brown,
      G. Cisneros, G. I. Fann, H. Fruchtl, J. Garza, K. Hirao, R. A. Kendall,
      J. A. Nichols, K. Tsemekhman, K. Wolinski, J. Anchell, D. E. Bernholdt,
      P. Borowski, T. Clark, D. Clerc, H. Dachsel, M. J. O. Deegan, K. Dyall,
    D. Elwood, E. Glendening, M. Gutowski, A. C. Hess, J. Jaffe, B. G. Johnson,
     J. Ju, R. Kobayashi, R. Kutteh, Z. Lin, R. Littlefield, X. Long, B. Meng,
      T. Nakajima, S. Niu, L. Pollack, M. Rosing, K. Glaesemann, G. Sandrone,
      M. Stave, H. Taylor, G. Thomas, J. H. van Lenthe, A. T. Wong, Z. Zhang.

 Total times  cpu:        6.9s     wall:        7.0s
