 argument  1 = /home/list1234/source/nwchem-6.8.1-release/QA/tests/cosmo_h3co_gp/cosmo_h3co_gp.nw



============================== echo of input deck ==============================
echo

start h3cona_dat

geometry
    o      0.00000000     0.00000000     0.27851507
    c      0.00000000     0.00000000     1.63192657
    h      0.26167571    -0.97658705     2.06772417
    h     -0.97658705     0.26167571     2.06772417
    h      0.71491134     0.71491134     2.06772417
end
charge -1

basis
  * library 6-31g*
end

cosmo
end

dft
  xc b3lyp
end

driver
end

task dft energy
cosmo
  do_gasphase off
end
task dft optimize
task dft energy
cosmo
  do_gasphase on
end
task dft optimize
================================================================================


                                         
                                         


              Northwest Computational Chemistry Package (NWChem) 6.8
              ------------------------------------------------------


                    Environmental Molecular Sciences Laboratory
                       Pacific Northwest National Laboratory
                                Richland, WA 99352

                              Copyright (c) 1994-2018
                       Pacific Northwest National Laboratory
                            Battelle Memorial Institute

             NWChem is an open-source computational chemistry package
                        distributed under the terms of the
                      Educational Community License (ECL) 2.0
             A copy of the license is included with this distribution
                              in the LICENSE.TXT file

                                  ACKNOWLEDGMENT
                                  --------------

            This software and its documentation were developed at the
            EMSL at Pacific Northwest National Laboratory, a multiprogram
            national laboratory, operated for the U.S. Department of Energy
            by Battelle under Contract Number DE-AC05-76RL01830. Support
            for this work was provided by the Department of Energy Office
            of Biological and Environmental Research, Office of Basic
            Energy Sciences, and the Office of Advanced Scientific Computing.


           Job information
           ---------------

    hostname        = list1234-B360M-H
    program         = /home/list1234/source/nwchem-6.8.1-release/bin/LINUX64/nwchem
    date            = Sun Jun 30 05:48:15 2019

    compiled        = Sun_Jun_30_05:21:11_2019
    source          = /home/list1234/source/nwchem-6.8.1-release
    nwchem branch   = Development
    nwchem revision = N/A
    ga revision     = 5.6.5
    use scalapack   = T
    input           = /home/list1234/source/nwchem-6.8.1-release/QA/tests/cosmo_h3co_gp/cosmo_h3co_gp.nw
    prefix          = h3cona_dat.
    data base       = ./h3cona_dat.db
    status          = startup
    nproc           =        4
    time left       =     -1s



           Memory information
           ------------------

    heap     =   86247164 doubles =    658.0 Mbytes
    stack    =   86247169 doubles =    658.0 Mbytes
    global   =  172494336 doubles =   1316.0 Mbytes (distinct from heap & stack)
    total    =  344988669 doubles =   2632.1 Mbytes
    verify   = yes
    hardfail = no 


           Directory information
           ---------------------

  0 permanent = .
  0 scratch   = .




                                NWChem Input Module
                                -------------------



 Scaling coordinates for geometry "geometry" by  1.889725989
 (inverse scale =  0.529177249)

 C3V symmetry detected

          ------
          auto-z
          ------
  Looking for out-of-plane bends
  no constraints, skipping    0.0000000000000000     
  no constraints, skipping    0.0000000000000000     


                             Geometry "geometry" -> ""
                             -------------------------

 Output coordinates in angstroms (scale by  1.889725989 to convert to a.u.)

  No.       Tag          Charge          X              Y              Z
 ---- ---------------- ---------- -------------- -------------- --------------
    1 o                    8.0000    -0.00000000    -0.00000000    -0.79341743
    2 c                    6.0000     0.00000000     0.00000000     0.55999407
    3 h                    1.0000     0.71491134     0.71491134     0.99579167
    4 h                    1.0000     0.26167571    -0.97658705     0.99579167
    5 h                    1.0000    -0.97658705     0.26167571     0.99579167

      Atomic Mass 
      ----------- 

      o                 15.994910
      c                 12.000000
      h                  1.007825


 Effective nuclear repulsion energy (a.u.)      34.5058725513

            Nuclear Dipole moment (a.u.) 
            ----------------------------
        X                 Y               Z
 ---------------- ---------------- ----------------
     0.0000000000    -0.0000000000     0.0000000000

      Symmetry information
      --------------------

 Group name             C3v       
 Group number             17
 Group order               6
 No. of unique centers     3

      Symmetry unique atoms

     1    2    3



                                Z-matrix (autoz)
                                -------- 

 Units are Angstrom for bonds and degrees for angles

      Type          Name      I     J     K     L     M      Value
      ----------- --------  ----- ----- ----- ----- ----- ----------
    1 Stretch                  1     2                       1.35341
    2 Stretch                  2     3                       1.10096
    3 Stretch                  2     4                       1.10096
    4 Stretch                  2     5                       1.10096
    5 Bend                     1     2     3               113.31798
    6 Bend                     1     2     4               113.31798
    7 Bend                     1     2     5               113.31798
    8 Bend                     3     2     4               105.36538
    9 Bend                     3     2     5               105.36538
   10 Bend                     4     2     5               105.36538


            XYZ format geometry
            -------------------
     5
 geometry
 o                    -0.00000000    -0.00000000    -0.79341743
 c                     0.00000000     0.00000000     0.55999407
 h                     0.71491134     0.71491134     0.99579167
 h                     0.26167571    -0.97658705     0.99579167
 h                    -0.97658705     0.26167571     0.99579167

 ==============================================================================
                                internuclear distances
 ------------------------------------------------------------------------------
       center one      |      center two      | atomic units |  angstroms
 ------------------------------------------------------------------------------
    2 c                |   1 o                |     2.55758  |     1.35341
    3 h                |   2 c                |     2.08052  |     1.10096
    4 h                |   2 c                |     2.08052  |     1.10096
    5 h                |   2 c                |     2.08052  |     1.10096
 ------------------------------------------------------------------------------
                         number of included internuclear distances:          4
 ==============================================================================



 ==============================================================================
                                 internuclear angles
 ------------------------------------------------------------------------------
        center 1       |       center 2       |       center 3       |  degrees
 ------------------------------------------------------------------------------
    1 o                |   2 c                |   3 h                |   113.32
    1 o                |   2 c                |   4 h                |   113.32
    1 o                |   2 c                |   5 h                |   113.32
    3 h                |   2 c                |   4 h                |   105.37
    3 h                |   2 c                |   5 h                |   105.37
    4 h                |   2 c                |   5 h                |   105.37
 ------------------------------------------------------------------------------
                            number of included internuclear angles:          6
 ==============================================================================





 Summary of "ao basis" -> "" (cartesian)
 ------------------------------------------------------------------------------
       Tag                 Description            Shells   Functions and Types
 ---------------- ------------------------------  ------  ---------------------
 *                           6-31g*                   on all atoms 



                                 NWChem DFT Module
                                 -----------------


                      Basis "ao basis" -> "ao basis" (cartesian)
                      -----
  o (Oxygen)
  ----------
            Exponent  Coefficients 
       -------------- ---------------------------------------------------------
  1 S  5.48467170E+03  0.001831
  1 S  8.25234950E+02  0.013950
  1 S  1.88046960E+02  0.068445
  1 S  5.29645000E+01  0.232714
  1 S  1.68975700E+01  0.470193
  1 S  5.79963530E+00  0.358521

  2 S  1.55396160E+01 -0.110778
  2 S  3.59993360E+00 -0.148026
  2 S  1.01376180E+00  1.130767

  3 P  1.55396160E+01  0.070874
  3 P  3.59993360E+00  0.339753
  3 P  1.01376180E+00  0.727159

  4 S  2.70005800E-01  1.000000

  5 P  2.70005800E-01  1.000000

  6 D  8.00000000E-01  1.000000

  c (Carbon)
  ----------
            Exponent  Coefficients 
       -------------- ---------------------------------------------------------
  1 S  3.04752490E+03  0.001835
  1 S  4.57369510E+02  0.014037
  1 S  1.03948690E+02  0.068843
  1 S  2.92101550E+01  0.232184
  1 S  9.28666300E+00  0.467941
  1 S  3.16392700E+00  0.362312

  2 S  7.86827240E+00 -0.119332
  2 S  1.88128850E+00 -0.160854
  2 S  5.44249300E-01  1.143456

  3 P  7.86827240E+00  0.068999
  3 P  1.88128850E+00  0.316424
  3 P  5.44249300E-01  0.744308

  4 S  1.68714400E-01  1.000000

  5 P  1.68714400E-01  1.000000

  6 D  8.00000000E-01  1.000000

  h (Hydrogen)
  ------------
            Exponent  Coefficients 
       -------------- ---------------------------------------------------------
  1 S  1.87311370E+01  0.033495
  1 S  2.82539370E+00  0.234727
  1 S  6.40121700E-01  0.813757

  2 S  1.61277800E-01  1.000000



 Summary of "ao basis" -> "ao basis" (cartesian)
 ------------------------------------------------------------------------------
       Tag                 Description            Shells   Functions and Types
 ---------------- ------------------------------  ------  ---------------------
 o                           6-31g*                  6       15   3s2p1d
 c                           6-31g*                  6       15   3s2p1d
 h                           6-31g*                  2        2   2s




 Summary of "ao basis" -> "ao basis" (cartesian)
 ------------------------------------------------------------------------------
       Tag                 Description            Shells   Functions and Types
 ---------------- ------------------------------  ------  ---------------------
 o                           6-31g*                  6       15   3s2p1d
 c                           6-31g*                  6       15   3s2p1d
 h                           6-31g*                  2        2   2s


      Symmetry analysis of basis
      --------------------------

        a1         16
        a2          0
        e          20


 solvent parameters
 solvname_short: h2o     
 solvname_long:  water                              
 dielec:       78.4000
 dielecinf:     1.7769

          ---------------
          -cosmo- solvent
          ---------------
 Cosmo: York-Karplus, doi: 10.1021/jp992097l
 dielectric constant -eps-     =  78.40
 screen = (eps-1)/(eps    )    =   0.98724
 surface charge correction     = lagrangian
 -lineq- algorithm             =   0
 -bem- low  level              =   2
 -bem- from -octahedral-
 gaussian surface charge width =   0.98000
 degree of switching           =   1.00000
 switching function tolerance  =   0.00010
 atomic radii = 
 --------------
    1  8.000  1.720
    2  6.000  2.000
    3  1.000  1.300
    4  1.000  1.300
    5  1.000  1.300

 solvent accessible surface
 --------------------------

 ---------- ATOMIC COORDINATES (A.U.) ------------ VDWR(ANG.) --
     1   -0.00000000   -0.00000000   -1.49934154     1.720
     2    0.00000000    0.00000000    1.05823535     2.000
     3    1.35098654    1.35098654    1.88177340     1.300
     4    0.49449539   -1.84548193    1.88177340     1.300
     5   -1.84548193    0.49449539    1.88177340     1.300
 number of segments per atom =         32
 number of   points per atom =         32
 atom (   nspa,  nppa )
 ----------------------
    1 (     24,     0 )       0
    2 (     25,     0 )       0
    3 (     15,     0 )       0
    4 (     15,     0 )       0
    5 (     15,     0 )       0
 number of -cosmo- surface points =       94
 molecular surface =     63.480 angstrom**2
 molecular volume  =     35.859 angstrom**3
 G(cav/disp)       =      1.177 kcal/mol
 ...... end of -cosmo- initialization ......


  Caching 1-el integrals 
  Rotation of axis 

            General Information
            -------------------
          SCF calculation type: DFT
          Wavefunction type:  closed shell.
          No. of atoms     :     5
          No. of electrons :    18
           Alpha electrons :     9
            Beta electrons :     9
          Charge           :    -1
          Spin multiplicity:     1
          Use of symmetry is: on ; symmetry adaption is: on 
          Maximum number of iterations:  30
          AO basis - number of functions:    36
                     number of shells:    18
          Convergence on energy requested:  1.00D-06
          Convergence on density requested:  1.00D-05
          Convergence on gradient requested:  5.00D-04

              XC Information
              --------------
                         B3LYP Method XC Potential
                     Hartree-Fock (Exact) Exchange  0.200          
                        Slater Exchange Functional  0.800 local    
                    Becke 1988 Exchange Functional  0.720 non-local
              Lee-Yang-Parr Correlation Functional  0.810          
                  VWN I RPA Correlation Functional  0.190 local    

             Grid Information
             ----------------
          Grid used for XC integration:  medium    
          Radial quadrature: Mura-Knowles        
          Angular quadrature: Lebedev. 
          Tag              B.-S. Rad. Rad. Pts. Rad. Cut. Ang. Pts.
          ---              ---------- --------- --------- ---------
          o                   0.60       49           7.0       434
          c                   0.70       49           6.0       434
          h                   0.35       45           6.0       434
          Grid pruning is: on 
          Number of quadrature shells:   143
          Spatial weights used:  Erf1

          Convergence Information
          -----------------------
          Convergence aids based upon iterative change in 
          total energy or number of iterations. 
          Levelshifting, if invoked, occurs when the 
          HOMO/LUMO gap drops below (HL_TOL):  1.00D-02
          DIIS, if invoked, will attempt to extrapolate 
          using up to (NFOCK): 10 stored Fock matrices.

                    Damping( 0%)  Levelshifting(0.5)       DIIS
                  --------------- ------------------- ---------------
          dE  on:    start            ASAP                start   
          dE off:    2 iters         30 iters            30 iters 


      Screening Tolerance Information
      -------------------------------
          Density screening/tol_rho:  1.00D-10
          AO Gaussian exp screening on grid/accAOfunc:  14
          CD Gaussian exp screening on grid/accCDfunc:  20
          XC Gaussian exp screening on grid/accXCfunc:  20
          Schwarz screening/accCoul:  1.00D-08


      Superposition of Atomic Density Guess
      -------------------------------------

 Sum of atomic energies:        -113.90930400

 Renormalizing density from      17.00 to     18

      Non-variational initial energy
      ------------------------------

 Total energy =    -118.682639
 1-e energy   =    -236.279763
 2-e energy   =      83.091251
 HOMO         =       0.126695
 LUMO         =       0.465824


      Symmetry analysis of molecular orbitals - initial
      -------------------------------------------------

  Numbering of irreducible representations: 

     1 a1          2 a2          3 e       

  Orbital symmetries:

     1 a1          2 a1          3 a1          4 a1          5 e       
     6 e           7 a1          8 e           9 e          10 a1      
    11 e          12 e          13 a1         14 e          15 e       
    16 a1         17 a1         18 e          19 e       

   Time after variat. SCF:      0.1
   Time prior to 1st pass:      0.1

 Grid_pts file          = ./h3cona_dat.gridpts.0
 Record size in doubles =  12289        No. of grid_pts per rec  =   3070
 Max. records in memory =      7        Max. recs in file   = 253312716


           Memory utilization after 1st SCF pass: 
           Heap Space remaining (MW):       51.72            51721236
          Stack Space remaining (MW):       86.25            86246828

   convergence    iter        energy       DeltaE   RMS-Dens  Diis-err    time
 ---------------- ----- ----------------- --------- --------- ---------  ------
     COSMO gas phase
 d= 0,ls=0.0,diis     1   -114.9403144114 -1.49D+02  3.53D-02  1.02D+00     0.1
 d= 0,ls=0.0,diis     2   -114.9325505955  7.76D-03  2.14D-02  1.14D+00     0.2
 d= 0,ls=0.0,diis     3   -115.0637142877 -1.31D-01  2.14D-03  8.33D-03     0.2
 d= 0,ls=0.0,diis     4   -115.0645942441 -8.80D-04  1.21D-03  1.33D-03     0.2
 d= 0,ls=0.0,diis     5   -115.0646703719 -7.61D-05  6.73D-04  3.87D-04     0.3
  Resetting Diis
 d= 0,ls=0.0,diis     6   -115.0647113080 -4.09D-05  1.58D-05  3.64D-07     0.3
 d= 0,ls=0.0,diis     7   -115.0647113520 -4.39D-08  6.08D-06  1.17D-08     0.3

           Memory utilization after 1st SCF pass: 
           Heap Space remaining (MW):       51.72            51720860
          Stack Space remaining (MW):       86.25            86246828

   convergence    iter        energy       DeltaE   RMS-Dens  Diis-err    time
 ---------------- ----- ----------------- --------- --------- ---------  ------
     COSMO solvation phase
 d= 0,ls=0.0,diis     1   -115.1879324338 -1.23D-01  1.31D-02  7.25D-03     0.4
 d= 0,ls=0.0,diis     2   -115.1899913330 -2.06D-03  2.02D-03  8.98D-03     0.5
 d= 0,ls=0.0,diis     3   -115.1908198312 -8.28D-04  6.55D-04  3.23D-04     0.5
 d= 0,ls=0.0,diis     4   -115.1908359750 -1.61D-05  1.69D-04  5.16D-05     0.6
 d= 0,ls=0.0,diis     5   -115.1908334882  2.49D-06  4.55D-05  8.08D-06     0.6
 d= 0,ls=0.0,diis     6   -115.1908361211 -2.63D-06  4.16D-06  2.56D-08     0.7
 d= 0,ls=0.0,diis     7   -115.1908360272  9.40D-08  4.29D-07  3.60D-10     0.7


         Total DFT energy =     -115.190836027153
      One electron energy =     -235.172066569539
           Coulomb energy =       96.678353625837
    Exchange-Corr. energy =      -15.446817254685
 Nuclear repulsion energy =       34.505872551266

             COSMO energy =        4.243821619969

 Numeric. integr. density =       17.999999821800

     Total iterative time =      0.7s


                                   COSMO solvation results
                                   -----------------------

                 gas phase energy =      -115.064711351977
                 sol phase energy =      -115.190836027153
 (electrostatic) solvation energy =         0.126124675176 (   79.14 kcal/mol)

                  Occupations of the irreducible representations
                  ----------------------------------------------

                     irrep           alpha         beta
                     --------     --------     --------
                     a1                5.0          5.0
                     a2                0.0          0.0
                     e                 4.0          4.0


                       DFT Final Molecular Orbital Analysis
                       ------------------------------------

 Vector    1  Occ=2.000000D+00  E=-1.897002D+01  Symmetry=a1
              MO Center=  1.1D-19, -3.4D-20, -7.9D-01, r^2= 1.5D-02
   Bfn.  Coefficient  Atom+Function         Bfn.  Coefficient  Atom+Function  
  ----- ------------  ---------------      ----- ------------  ---------------
     1      0.992900  1 O  s                  2      0.026034  1 O  s          

 Vector    2  Occ=2.000000D+00  E=-1.016320D+01  Symmetry=a1
              MO Center= -4.1D-18, -1.2D-17,  5.6D-01, r^2= 2.8D-02
   Bfn.  Coefficient  Atom+Function         Bfn.  Coefficient  Atom+Function  
  ----- ------------  ---------------      ----- ------------  ---------------
    16      0.992926  2 C  s                 17      0.048822  2 C  s          

 Vector    3  Occ=2.000000D+00  E=-8.461583D-01  Symmetry=a1
              MO Center=  1.2D-15, -1.7D-16, -3.7D-01, r^2= 6.8D-01
   Bfn.  Coefficient  Atom+Function         Bfn.  Coefficient  Atom+Function  
  ----- ------------  ---------------      ----- ------------  ---------------
     6      0.415436  1 O  s                  2      0.405503  1 O  s          
    17      0.220676  2 C  s                  1     -0.189906  1 O  s          
    21      0.130498  2 C  s                 20     -0.127059  2 C  pz         
     5      0.124853  1 O  pz                16     -0.115834  2 C  s          
    31      0.044862  3 H  s                 33      0.044862  4 H  s          

 Vector    4  Occ=2.000000D+00  E=-5.834955D-01  Symmetry=a1
              MO Center= -2.5D-17, -2.1D-17,  6.2D-01, r^2= 1.4D+00
   Bfn.  Coefficient  Atom+Function         Bfn.  Coefficient  Atom+Function  
  ----- ------------  ---------------      ----- ------------  ---------------
    17     -0.310316  2 C  s                  6      0.297582  1 O  s          
    21     -0.279740  2 C  s                  2      0.220110  1 O  s          
    20     -0.204058  2 C  pz                16      0.154156  2 C  s          
    31     -0.148999  3 H  s                 33     -0.148999  4 H  s          
    35     -0.148999  5 H  s                  1     -0.103329  1 O  s          

 Vector    5  Occ=2.000000D+00  E=-3.717795D-01  Symmetry=e
              MO Center= -2.1D-01,  1.9D-02,  6.0D-01, r^2= 1.4D+00
   Bfn.  Coefficient  Atom+Function         Bfn.  Coefficient  Atom+Function  
  ----- ------------  ---------------      ----- ------------  ---------------
    18      0.402143  2 C  px                35     -0.245058  5 H  s          
    36     -0.238001  5 H  s                 22      0.176029  2 C  px         
     3      0.166138  1 O  px                19     -0.146008  2 C  py         
    33      0.140927  4 H  s                 34      0.136869  4 H  s          
    31      0.104131  3 H  s                 32      0.101132  3 H  s          

 Vector    6  Occ=2.000000D+00  E=-3.717795D-01  Symmetry=e
              MO Center=  2.1D-01, -1.9D-02,  6.0D-01, r^2= 1.4D+00
   Bfn.  Coefficient  Atom+Function         Bfn.  Coefficient  Atom+Function  
  ----- ------------  ---------------      ----- ------------  ---------------
    19      0.402143  2 C  py                31      0.222848  3 H  s          
    32      0.216431  3 H  s                 33     -0.201604  4 H  s          
    34     -0.195798  4 H  s                 23      0.176029  2 C  py         
     4      0.166138  1 O  py                18      0.146008  2 C  px         
     8      0.098840  1 O  py                22      0.063912  2 C  px         

 Vector    7  Occ=2.000000D+00  E=-2.930945D-01  Symmetry=a1
              MO Center= -2.7D-16,  9.3D-17, -5.6D-01, r^2= 1.2D+00
   Bfn.  Coefficient  Atom+Function         Bfn.  Coefficient  Atom+Function  
  ----- ------------  ---------------      ----- ------------  ---------------
     5      0.481083  1 O  pz                 6     -0.451618  1 O  s          
    20     -0.362045  2 C  pz                 9      0.299817  1 O  pz         
    21      0.142501  2 C  s                 24     -0.139566  2 C  pz         
     2     -0.120493  1 O  s                 17      0.101459  2 C  s          
    32     -0.084752  3 H  s                 34     -0.084752  4 H  s          

 Vector    8  Occ=2.000000D+00  E=-1.332768D-01  Symmetry=e
              MO Center= -6.3D-02, -4.3D-02, -4.9D-01, r^2= 1.3D+00
   Bfn.  Coefficient  Atom+Function         Bfn.  Coefficient  Atom+Function  
  ----- ------------  ---------------      ----- ------------  ---------------
     3      0.444960  1 O  px                 7      0.381793  1 O  px         
     4     -0.368427  1 O  py                 8     -0.316125  1 O  py         
    36      0.305221  5 H  s                 34     -0.273768  4 H  s          
    35      0.143287  5 H  s                 33     -0.128522  4 H  s          
    18     -0.070618  2 C  px                22      0.065439  2 C  px         

 Vector    9  Occ=2.000000D+00  E=-1.332768D-01  Symmetry=e
              MO Center=  6.3D-02,  4.3D-02, -4.9D-01, r^2= 1.3D+00
   Bfn.  Coefficient  Atom+Function         Bfn.  Coefficient  Atom+Function  
  ----- ------------  ---------------      ----- ------------  ---------------
     4      0.444960  1 O  py                 8      0.381793  1 O  py         
     3      0.368427  1 O  px                32     -0.334280  3 H  s          
     7      0.316125  1 O  px                34      0.194379  4 H  s          
    31     -0.156929  3 H  s                 36      0.139901  5 H  s          
    33      0.091252  4 H  s                 19     -0.070618  2 C  py         

 Vector   10  Occ=0.000000D+00  E= 1.403476D-01  Symmetry=a1
              MO Center= -1.1D-15,  1.1D-14,  1.1D+00, r^2= 3.4D+00
   Bfn.  Coefficient  Atom+Function         Bfn.  Coefficient  Atom+Function  
  ----- ------------  ---------------      ----- ------------  ---------------
    21      2.322753  2 C  s                 32     -1.191473  3 H  s          
    34     -1.191473  4 H  s                 36     -1.191473  5 H  s          
    24      0.755860  2 C  pz                20      0.218597  2 C  pz         
    17      0.150847  2 C  s                 16     -0.138828  2 C  s          
     6      0.070723  1 O  s                  5     -0.032935  1 O  pz         

 Vector   11  Occ=0.000000D+00  E= 2.137987D-01  Symmetry=e
              MO Center= -2.4D-02, -4.5D-01,  9.1D-01, r^2= 2.8D+00
   Bfn.  Coefficient  Atom+Function         Bfn.  Coefficient  Atom+Function  
  ----- ------------  ---------------      ----- ------------  ---------------
    34      1.750807  4 H  s                 23      1.231746  2 C  py         
    36     -1.116622  5 H  s                 32     -0.634184  3 H  s          
    22     -0.549425  2 C  px                19      0.418313  2 C  py         
     8     -0.289558  1 O  py                18     -0.186590  2 C  px         
     4     -0.133053  1 O  py                 7      0.129158  1 O  px         

 Vector   12  Occ=0.000000D+00  E= 2.137987D-01  Symmetry=e
              MO Center=  2.4D-02,  4.5D-01,  9.1D-01, r^2= 2.8D+00
   Bfn.  Coefficient  Atom+Function         Bfn.  Coefficient  Atom+Function  
  ----- ------------  ---------------      ----- ------------  ---------------
    32      1.655511  3 H  s                 36     -1.376975  5 H  s          
    22     -1.231746  2 C  px                23     -0.549425  2 C  py         
    18     -0.418313  2 C  px                 7      0.289558  1 O  px         
    34     -0.278536  4 H  s                 19     -0.186590  2 C  py         
     3      0.133053  1 O  px                 8      0.129158  1 O  py         

 Vector   13  Occ=0.000000D+00  E= 2.546252D-01  Symmetry=a1
              MO Center= -1.5D-15,  3.0D-15,  5.6D-01, r^2= 2.5D+00
   Bfn.  Coefficient  Atom+Function         Bfn.  Coefficient  Atom+Function  
  ----- ------------  ---------------      ----- ------------  ---------------
     6      1.676595  1 O  s                 24      1.624547  2 C  pz         
    21     -1.532635  2 C  s                  9      0.934247  1 O  pz         
     5      0.265549  1 O  pz                20      0.131429  2 C  pz         
     1     -0.104183  1 O  s                 32      0.096182  3 H  s          
    34      0.096182  4 H  s                 36      0.096182  5 H  s          

 Vector   14  Occ=0.000000D+00  E= 6.132172D-01  Symmetry=e
              MO Center=  8.8D-02,  2.3D-01,  5.0D-01, r^2= 2.0D+00
   Bfn.  Coefficient  Atom+Function         Bfn.  Coefficient  Atom+Function  
  ----- ------------  ---------------      ----- ------------  ---------------
    23      1.501502  2 C  py                22     -0.975672  2 C  px         
    19     -0.631875  2 C  py                34      0.475086  4 H  s          
    33      0.433538  4 H  s                 18      0.410591  2 C  px         
    36     -0.371352  5 H  s                 35     -0.338876  5 H  s          
     8     -0.217510  1 O  py                 4     -0.163226  1 O  py         

 Vector   15  Occ=0.000000D+00  E= 6.132172D-01  Symmetry=e
              MO Center= -8.8D-02, -2.3D-01,  5.0D-01, r^2= 2.0D+00
   Bfn.  Coefficient  Atom+Function         Bfn.  Coefficient  Atom+Function  
  ----- ------------  ---------------      ----- ------------  ---------------
    22      1.501502  2 C  px                23      0.975672  2 C  py         
    18     -0.631875  2 C  px                32     -0.488691  3 H  s          
    31     -0.445953  3 H  s                 19     -0.410591  2 C  py         
    36      0.334182  5 H  s                 35      0.304957  5 H  s          
     7     -0.217510  1 O  px                26     -0.166054  2 C  dxy        

 Vector   16  Occ=0.000000D+00  E= 6.438751D-01  Symmetry=a1
              MO Center=  4.1D-16, -5.8D-16,  2.2D-01, r^2= 1.4D+00
   Bfn.  Coefficient  Atom+Function         Bfn.  Coefficient  Atom+Function  
  ----- ------------  ---------------      ----- ------------  ---------------
    24      1.150018  2 C  pz                20     -1.018765  2 C  pz         
     6      0.593084  1 O  s                 17      0.405167  2 C  s          
     5     -0.392248  1 O  pz                 2     -0.195995  1 O  s          
    32     -0.143619  3 H  s                 34     -0.143619  4 H  s          
    36     -0.143619  5 H  s                 15      0.121738  1 O  dzz        

 Vector   17  Occ=0.000000D+00  E= 8.915876D-01  Symmetry=a1
              MO Center= -1.5D-13,  6.8D-15, -5.6D-01, r^2= 2.5D+00
   Bfn.  Coefficient  Atom+Function         Bfn.  Coefficient  Atom+Function  
  ----- ------------  ---------------      ----- ------------  ---------------
     6      1.417721  1 O  s                 21      1.033538  2 C  s          
     2     -0.866302  1 O  s                  9     -0.627657  1 O  pz         
     5      0.483120  1 O  pz                24      0.463497  2 C  pz         
    31     -0.398119  3 H  s                 33     -0.398119  4 H  s          
    35     -0.398119  5 H  s                 15     -0.340599  1 O  dzz        

 Vector   18  Occ=0.000000D+00  E= 8.924069D-01  Symmetry=e
              MO Center=  2.7D-01, -2.8D-01,  8.6D-01, r^2= 2.0D+00
   Bfn.  Coefficient  Atom+Function         Bfn.  Coefficient  Atom+Function  
  ----- ------------  ---------------      ----- ------------  ---------------
    34      1.558972  4 H  s                 23      1.265011  2 C  py         
    32     -1.128788  3 H  s                 19     -0.816768  2 C  py         
    33     -0.797472  4 H  s                 31      0.577417  3 H  s          
    36     -0.430184  5 H  s                 29      0.223309  2 C  dyz        
    35      0.220055  5 H  s                  8     -0.175662  1 O  py         

 Vector   19  Occ=0.000000D+00  E= 8.924069D-01  Symmetry=e
              MO Center= -2.7D-01,  2.8D-01,  8.6D-01, r^2= 2.0D+00
   Bfn.  Coefficient  Atom+Function         Bfn.  Coefficient  Atom+Function  
  ----- ------------  ---------------      ----- ------------  ---------------
    36      1.551779  5 H  s                 22      1.265011  2 C  px         
    32     -1.148440  3 H  s                 18     -0.816768  2 C  px         
    35     -0.793792  5 H  s                 31      0.587469  3 H  s          
    34     -0.403339  4 H  s                 27      0.223309  2 C  dxz        
    33      0.206323  4 H  s                  7     -0.175662  1 O  px         

 Vector   20  Occ=0.000000D+00  E= 9.715304D-01  Symmetry=a1
              MO Center=  2.4D-16,  7.9D-16,  6.2D-01, r^2= 2.4D+00
   Bfn.  Coefficient  Atom+Function         Bfn.  Coefficient  Atom+Function  
  ----- ------------  ---------------      ----- ------------  ---------------
    21      2.327579  2 C  s                 17     -1.045316  2 C  s          
    32     -0.866400  3 H  s                 34     -0.866400  4 H  s          
    36     -0.866400  5 H  s                  9     -0.604684  1 O  pz         
    31      0.570642  3 H  s                 33      0.570642  4 H  s          
    35      0.570642  5 H  s                 20     -0.459588  2 C  pz         

 Vector   21  Occ=0.000000D+00  E= 1.078137D+00  Symmetry=a1
              MO Center= -5.4D-17,  3.6D-15,  2.8D-01, r^2= 2.6D+00
   Bfn.  Coefficient  Atom+Function         Bfn.  Coefficient  Atom+Function  
  ----- ------------  ---------------      ----- ------------  ---------------
    21      3.782353  2 C  s                 17     -1.652091  2 C  s          
    32     -0.945296  3 H  s                 34     -0.945296  4 H  s          
    36     -0.945296  5 H  s                 24      0.864816  2 C  pz         
     9      0.643436  1 O  pz                 5     -0.480201  1 O  pz         
    31     -0.235460  3 H  s                 33     -0.235460  4 H  s          

 Vector   22  Occ=0.000000D+00  E= 1.078273D+00  Symmetry=e
              MO Center= -7.0D-03,  1.6D-02, -8.0D-01, r^2= 1.3D+00
   Bfn.  Coefficient  Atom+Function         Bfn.  Coefficient  Atom+Function  
  ----- ------------  ---------------      ----- ------------  ---------------
     8      1.205099  1 O  py                 4     -0.938326  1 O  py         
    23     -0.647965  2 C  py                 7     -0.226878  1 O  px         
     3      0.176654  1 O  px                33     -0.150245  4 H  s          
    34     -0.150538  4 H  s                 22      0.121989  2 C  px         
    14     -0.105452  1 O  dyz               26      0.100052  2 C  dxy        

 Vector   23  Occ=0.000000D+00  E= 1.078273D+00  Symmetry=e
              MO Center=  7.0D-03, -1.6D-02, -8.0D-01, r^2= 1.3D+00
   Bfn.  Coefficient  Atom+Function         Bfn.  Coefficient  Atom+Function  
  ----- ------------  ---------------      ----- ------------  ---------------
     7      1.205099  1 O  px                 3     -0.938326  1 O  px         
    22     -0.647965  2 C  px                 8      0.226878  1 O  py         
     4     -0.176654  1 O  py                26      0.146462  2 C  dxy        
    35     -0.135814  5 H  s                 36     -0.136080  5 H  s          
    31      0.124417  3 H  s                 32      0.124660  3 H  s          

 Vector   24  Occ=0.000000D+00  E= 1.553185D+00  Symmetry=a1
              MO Center=  1.1D-16,  7.3D-17, -1.4D-01, r^2= 2.1D+00
   Bfn.  Coefficient  Atom+Function         Bfn.  Coefficient  Atom+Function  
  ----- ------------  ---------------      ----- ------------  ---------------
     6      4.507930  1 O  s                 21     -4.368057  2 C  s          
     9      1.763732  1 O  pz                 2     -1.506830  1 O  s          
    24      1.105239  2 C  pz                17      0.878708  2 C  s          
    15     -0.615038  1 O  dzz               32      0.435582  3 H  s          
    34      0.435582  4 H  s                 36      0.435582  5 H  s          

 Vector   25  Occ=0.000000D+00  E= 1.595938D+00  Symmetry=e
              MO Center=  6.9D-03,  6.1D-03,  9.0D-02, r^2= 1.1D+00
   Bfn.  Coefficient  Atom+Function         Bfn.  Coefficient  Atom+Function  
  ----- ------------  ---------------      ----- ------------  ---------------
    27      0.765666  2 C  dxz               29     -0.721017  2 C  dyz        
    12     -0.597531  1 O  dxz               14      0.562687  1 O  dyz        
    25      0.396201  2 C  dxx               28     -0.396201  2 C  dyy        
    36     -0.170370  5 H  s                 34      0.164562  4 H  s          
    22     -0.141159  2 C  px                23      0.132928  2 C  py         

 Vector   26  Occ=0.000000D+00  E= 1.595938D+00  Symmetry=e
              MO Center= -6.9D-03, -6.1D-03,  9.0D-02, r^2= 1.1D+00
   Bfn.  Coefficient  Atom+Function         Bfn.  Coefficient  Atom+Function  
  ----- ------------  ---------------      ----- ------------  ---------------
    26      0.792401  2 C  dxy               29     -0.765666  2 C  dyz        
    27     -0.721017  2 C  dxz               14      0.597531  1 O  dyz        
    12      0.562687  1 O  dxz               11      0.256118  1 O  dxy        
    32     -0.193373  3 H  s                 23      0.141159  2 C  py         
    22      0.132928  2 C  px                19     -0.131081  2 C  py         

 Vector   27  Occ=0.000000D+00  E= 1.905845D+00  Symmetry=e
              MO Center=  5.6D-03,  1.1D-03, -5.8D-01, r^2= 9.2D-01
   Bfn.  Coefficient  Atom+Function         Bfn.  Coefficient  Atom+Function  
  ----- ------------  ---------------      ----- ------------  ---------------
    10      0.739069  1 O  dxx               13     -0.739069  1 O  dyy        
    11     -0.445066  1 O  dxy               22     -0.333588  2 C  px         
    12      0.331513  1 O  dxz               27     -0.329464  2 C  dxz        
    35     -0.298065  5 H  s                 25      0.238896  2 C  dxx        
    28     -0.238896  2 C  dyy               33      0.209782  4 H  s          

 Vector   28  Occ=0.000000D+00  E= 1.905845D+00  Symmetry=e
              MO Center= -5.6D-03, -1.1D-03, -5.8D-01, r^2= 9.2D-01
   Bfn.  Coefficient  Atom+Function         Bfn.  Coefficient  Atom+Function  
  ----- ------------  ---------------      ----- ------------  ---------------
    11      1.478138  1 O  dxy               26      0.477793  2 C  dxy        
    23      0.333588  2 C  py                14     -0.331513  1 O  dyz        
    29      0.329464  2 C  dyz               31     -0.293206  3 H  s          
    10      0.222533  1 O  dxx               13     -0.222533  1 O  dyy        
    33      0.223059  4 H  s                 22      0.179191  2 C  px         

 Vector   29  Occ=0.000000D+00  E= 2.233845D+00  Symmetry=a1
              MO Center= -3.0D-15, -4.1D-15,  3.4D-01, r^2= 9.5D-01
   Bfn.  Coefficient  Atom+Function         Bfn.  Coefficient  Atom+Function  
  ----- ------------  ---------------      ----- ------------  ---------------
    30      0.915691  2 C  dzz               25     -0.544372  2 C  dxx        
    28     -0.544372  2 C  dyy                5     -0.500728  1 O  pz         
     2     -0.432881  1 O  s                 24     -0.400519  2 C  pz         
     9      0.338758  1 O  pz                31      0.252451  3 H  s          
    33      0.252451  4 H  s                 35      0.252451  5 H  s          

 Vector   30  Occ=0.000000D+00  E= 2.243098D+00  Symmetry=e
              MO Center= -7.3D-02,  1.7D-02,  1.6D-01, r^2= 1.3D+00
   Bfn.  Coefficient  Atom+Function         Bfn.  Coefficient  Atom+Function  
  ----- ------------  ---------------      ----- ------------  ---------------
    12      0.763510  1 O  dxz               26     -0.748729  2 C  dxy        
    25      0.677290  2 C  dxx               28     -0.677290  2 C  dyy        
    35     -0.619716  5 H  s                 22     -0.567826  2 C  px         
    11      0.358323  1 O  dxy               10     -0.324135  1 O  dxx        
    13      0.324135  1 O  dyy               33      0.319872  4 H  s          

 Vector   31  Occ=0.000000D+00  E= 2.243098D+00  Symmetry=e
              MO Center=  7.3D-02, -1.7D-02,  1.6D-01, r^2= 1.3D+00
   Bfn.  Coefficient  Atom+Function         Bfn.  Coefficient  Atom+Function  
  ----- ------------  ---------------      ----- ------------  ---------------
    26      1.354580  2 C  dxy               14     -0.763510  1 O  dyz        
    11     -0.648269  1 O  dxy               23      0.567826  2 C  py         
    31     -0.542471  3 H  s                 33      0.530909  4 H  s          
    25      0.374364  2 C  dxx               28     -0.374364  2 C  dyy        
     8     -0.311946  1 O  py                12     -0.219927  1 O  dxz        

 Vector   32  Occ=0.000000D+00  E= 2.560454D+00  Symmetry=e
              MO Center=  2.5D-03,  5.0D-03, -3.6D-02, r^2= 1.3D+00
   Bfn.  Coefficient  Atom+Function         Bfn.  Coefficient  Atom+Function  
  ----- ------------  ---------------      ----- ------------  ---------------
    27      1.307962  2 C  dxz               12      1.186913  1 O  dxz        
    29      0.940919  2 C  dyz               14      0.853839  1 O  dyz        
    26      0.480923  2 C  dxy               31     -0.364238  3 H  s          
    32      0.257305  3 H  s                  7      0.249888  1 O  px         
    35      0.233602  5 H  s                  8      0.179764  1 O  py         

 Vector   33  Occ=0.000000D+00  E= 2.560454D+00  Symmetry=e
              MO Center= -2.5D-03, -5.0D-03, -3.6D-02, r^2= 1.3D+00
   Bfn.  Coefficient  Atom+Function         Bfn.  Coefficient  Atom+Function  
  ----- ------------  ---------------      ----- ------------  ---------------
    29      1.307962  2 C  dyz               14      1.186913  1 O  dyz        
    27     -0.940919  2 C  dxz               12     -0.853839  1 O  dxz        
    33      0.345163  4 H  s                 35     -0.285715  5 H  s          
     8      0.249888  1 O  py                34     -0.243830  4 H  s          
    25      0.240461  2 C  dxx               28     -0.240461  2 C  dyy        

 Vector   34  Occ=0.000000D+00  E= 2.909014D+00  Symmetry=a1
              MO Center=  1.9D-17,  1.8D-17, -4.7D-01, r^2= 1.3D+00
   Bfn.  Coefficient  Atom+Function         Bfn.  Coefficient  Atom+Function  
  ----- ------------  ---------------      ----- ------------  ---------------
     6      2.571191  1 O  s                 21     -1.656412  2 C  s          
     9      1.541666  1 O  pz                15      1.265233  1 O  dzz        
    20      1.000791  2 C  pz                30     -0.832274  2 C  dzz        
     2     -0.785266  1 O  s                 24      0.786219  2 C  pz         
    10     -0.678784  1 O  dxx               13     -0.678784  1 O  dyy        

 Vector   35  Occ=0.000000D+00  E= 3.731507D+00  Symmetry=a1
              MO Center= -6.9D-18,  1.8D-17, -7.9D-01, r^2= 1.0D+00
   Bfn.  Coefficient  Atom+Function         Bfn.  Coefficient  Atom+Function  
  ----- ------------  ---------------      ----- ------------  ---------------
     6      4.509101  1 O  s                 10     -1.697234  1 O  dxx        
    13     -1.697234  1 O  dyy               21     -1.581498  2 C  s          
    15     -1.397440  1 O  dzz                9      0.959495  1 O  pz         
    24      0.793796  2 C  pz                 1     -0.491066  1 O  s          
    17      0.389416  2 C  s                  5     -0.203667  1 O  pz         

 Vector   36  Occ=0.000000D+00  E= 4.266608D+00  Symmetry=a1
              MO Center=  8.0D-17, -1.8D-16,  5.8D-01, r^2= 8.6D-01
   Bfn.  Coefficient  Atom+Function         Bfn.  Coefficient  Atom+Function  
  ----- ------------  ---------------      ----- ------------  ---------------
    17      2.880176  2 C  s                 21      2.237347  2 C  s          
    30     -2.108360  2 C  dzz               25     -1.824219  2 C  dxx        
    28     -1.824219  2 C  dyy               15      0.540157  1 O  dzz        
    32     -0.517764  3 H  s                 34     -0.517764  4 H  s          
    36     -0.517764  5 H  s                  6     -0.486996  1 O  s          


 center of mass
 --------------
 x =   0.00000000 y =  -0.00000000 z =  -0.18032899

 moments of inertia (a.u.)
 ------------------
          64.611309796422           0.000000000000           0.000000000000
           0.000000000000          64.611309796422           0.000000000000
           0.000000000000           0.000000000000          11.036679212476

     Multipole analysis of the density
     ---------------------------------

     L   x y z        total         alpha         beta         nuclear
     -   - - -        -----         -----         ----         -------
     0   0 0 0     -1.000000     -9.000000     -9.000000     17.000000

     1   1 0 0      0.000000      0.000000      0.000000      0.000000
     1   0 1 0      0.000000      0.000000      0.000000     -0.000000
     1   0 0 1      1.165518      0.582759      0.582759      0.000000

     2   2 0 0    -11.436397     -8.455945     -8.455945      5.475494
     2   1 1 0      0.000000      0.000000      0.000000      0.000000
     2   1 0 1     -0.000000     -0.000000     -0.000000      0.000000
     2   0 2 0    -11.436397     -8.455945     -8.455945      5.475494
     2   0 1 1      0.000000      0.000000      0.000000     -0.000000
     2   0 0 2    -14.194268    -24.760427    -24.760427     35.326586


 Task  times  cpu:        0.7s     wall:        0.7s


                                NWChem Input Module
                                -------------------




                           NWChem Geometry Optimization
                           ----------------------------


  no constraints, skipping    0.0000000000000000     
 maximum gradient threshold         (gmax) =   0.000450
 rms gradient threshold             (grms) =   0.000300
 maximum cartesian step threshold   (xmax) =   0.001800
 rms cartesian step threshold       (xrms) =   0.001200
 fixed trust radius                (trust) =   0.300000
 maximum step size to saddle      (sadstp) =   0.100000
 energy precision                  (eprec) =   5.0D-06
 maximum number of steps          (nptopt) =   20
 initial hessian option           (inhess) =    0
 line search option               (linopt) =    1
 hessian update option            (modupd) =    1
 saddle point option              (modsad) =    0
 initial eigen-mode to follow     (moddir) =    0
 initial variable to follow       (vardir) =    0
 follow first negative mode     (firstneg) =    T
 apply conjugacy                    (opcg) =    F
 source of zmatrix                         =   autoz   


          -------------------
          Energy Minimization
          -------------------


 Names of Z-matrix variables 
    1              2              3              4              5         
    6              7              8              9             10         

 Variables with the same non-blank name are constrained to be equal


 Using diagonal initial Hessian 
 Scaling for Hessian diagonals: bonds = 1.00  angles = 0.25  torsions = 0.10

          --------
          Step   0
          --------


                         Geometry "geometry" -> "geometry"
                         ---------------------------------

 Output coordinates in angstroms (scale by  1.889725989 to convert to a.u.)

  No.       Tag          Charge          X              Y              Z
 ---- ---------------- ---------- -------------- -------------- --------------
    1 o                    8.0000    -0.00000000    -0.00000000    -0.79341743
    2 c                    6.0000     0.00000000     0.00000000     0.55999407
    3 h                    1.0000     0.71491134     0.71491134     0.99579167
    4 h                    1.0000     0.26167571    -0.97658705     0.99579167
    5 h                    1.0000    -0.97658705     0.26167571     0.99579167

      Atomic Mass 
      ----------- 

      o                 15.994910
      c                 12.000000
      h                  1.007825


 Effective nuclear repulsion energy (a.u.)      34.5058725513

            Nuclear Dipole moment (a.u.) 
            ----------------------------
        X                 Y               Z
 ---------------- ---------------- ----------------
     0.0000000000    -0.0000000000     0.0000000000

      Symmetry information
      --------------------

 Group name             C3v       
 Group number             17
 Group order               6
 No. of unique centers     3

      Symmetry unique atoms

     1    2    3


                                 NWChem DFT Module
                                 -----------------




 Summary of "ao basis" -> "ao basis" (cartesian)
 ------------------------------------------------------------------------------
       Tag                 Description            Shells   Functions and Types
 ---------------- ------------------------------  ------  ---------------------
 o                           6-31g*                  6       15   3s2p1d
 c                           6-31g*                  6       15   3s2p1d
 h                           6-31g*                  2        2   2s


      Symmetry analysis of basis
      --------------------------

        a1         16
        a2          0
        e          20


 solvent parameters
 solvname_short: h2o     
 solvname_long:  water                              
 dielec:       78.4000
 dielecinf:     1.7769

          ---------------
          -cosmo- solvent
          ---------------
 Cosmo: York-Karplus, doi: 10.1021/jp992097l
 dielectric constant -eps-     =  78.40
 screen = (eps-1)/(eps    )    =   0.98724
 surface charge correction     = lagrangian
 -lineq- algorithm             =   0
 -bem- low  level              =   2
 -bem- from -octahedral-
 gaussian surface charge width =   0.98000
 degree of switching           =   1.00000
 switching function tolerance  =   0.00010
 atomic radii = 
 --------------
    1  8.000  1.720
    2  6.000  2.000
    3  1.000  1.300
    4  1.000  1.300
    5  1.000  1.300

 solvent accessible surface
 --------------------------

 ---------- ATOMIC COORDINATES (A.U.) ------------ VDWR(ANG.) --
     1   -0.00000000   -0.00000000   -1.49934154     1.720
     2    0.00000000    0.00000000    1.05823535     2.000
     3    1.35098654    1.35098654    1.88177340     1.300
     4    0.49449539   -1.84548193    1.88177340     1.300
     5   -1.84548193    0.49449539    1.88177340     1.300
 number of segments per atom =         32
 number of   points per atom =         32
 atom (   nspa,  nppa )
 ----------------------
    1 (     24,     0 )       0
    2 (     25,     0 )       0
    3 (     15,     0 )       0
    4 (     15,     0 )       0
    5 (     15,     0 )       0
 number of -cosmo- surface points =       94
 molecular surface =     63.480 angstrom**2
 molecular volume  =     35.859 angstrom**3
 G(cav/disp)       =      1.177 kcal/mol
 ...... end of -cosmo- initialization ......


  Caching 1-el integrals 
  Rotation of axis 

            General Information
            -------------------
          SCF calculation type: DFT
          Wavefunction type:  closed shell.
          No. of atoms     :     5
          No. of electrons :    18
           Alpha electrons :     9
            Beta electrons :     9
          Charge           :    -1
          Spin multiplicity:     1
          Use of symmetry is: on ; symmetry adaption is: on 
          Maximum number of iterations:  30
          AO basis - number of functions:    36
                     number of shells:    18
          Convergence on energy requested:  1.00D-06
          Convergence on density requested:  1.00D-05
          Convergence on gradient requested:  5.00D-04

              XC Information
              --------------
                         B3LYP Method XC Potential
                     Hartree-Fock (Exact) Exchange  0.200          
                        Slater Exchange Functional  0.800 local    
                    Becke 1988 Exchange Functional  0.720 non-local
              Lee-Yang-Parr Correlation Functional  0.810          
                  VWN I RPA Correlation Functional  0.190 local    

             Grid Information
             ----------------
          Grid used for XC integration:  medium    
          Radial quadrature: Mura-Knowles        
          Angular quadrature: Lebedev. 
          Tag              B.-S. Rad. Rad. Pts. Rad. Cut. Ang. Pts.
          ---              ---------- --------- --------- ---------
          o                   0.60       49           7.0       434
          c                   0.70       49           6.0       434
          h                   0.35       45           6.0       434
          Grid pruning is: on 
          Number of quadrature shells:   143
          Spatial weights used:  Erf1

          Convergence Information
          -----------------------
          Convergence aids based upon iterative change in 
          total energy or number of iterations. 
          Levelshifting, if invoked, occurs when the 
          HOMO/LUMO gap drops below (HL_TOL):  1.00D-02
          DIIS, if invoked, will attempt to extrapolate 
          using up to (NFOCK): 10 stored Fock matrices.

                    Damping( 0%)  Levelshifting(0.5)       DIIS
                  --------------- ------------------- ---------------
          dE  on:    start            ASAP                start   
          dE off:    2 iters         30 iters            30 iters 


      Screening Tolerance Information
      -------------------------------
          Density screening/tol_rho:  1.00D-10
          AO Gaussian exp screening on grid/accAOfunc:  14
          CD Gaussian exp screening on grid/accCDfunc:  20
          XC Gaussian exp screening on grid/accXCfunc:  20
          Schwarz screening/accCoul:  1.00D-08


 Loading old vectors from job with title :




      Symmetry analysis of molecular orbitals - initial
      -------------------------------------------------

  Numbering of irreducible representations: 

     1 a1          2 a2          3 e       

  Orbital symmetries:

     1 a1          2 a1          3 a1          4 a1          5 e       
     6 e           7 a1          8 e           9 e          10 a1      
    11 e          12 e          13 a1         14 e          15 e       
    16 a1         17 a1         18 e          19 e       

   Time after variat. SCF:      0.8
   Time prior to 1st pass:      0.8

 Grid_pts file          = ./h3cona_dat.gridpts.0
 Record size in doubles =  12289        No. of grid_pts per rec  =   3070
 Max. records in memory =      7        Max. recs in file   = 253312716


           Memory utilization after 1st SCF pass: 
           Heap Space remaining (MW):       51.72            51720700
          Stack Space remaining (MW):       86.25            86246828

   convergence    iter        energy       DeltaE   RMS-Dens  Diis-err    time
 ---------------- ----- ----------------- --------- --------- ---------  ------
     COSMO solvation phase
 d= 0,ls=0.0,diis     1   -115.1908360081 -1.50D+02  1.24D-07  9.62D-12     0.8
 d= 0,ls=0.0,diis     2   -115.1908360112 -3.10D-09  9.11D-08  1.47D-11     0.9


         Total DFT energy =     -115.190836011224
      One electron energy =     -235.172047584370
           Coulomb energy =       96.678334298158
    Exchange-Corr. energy =      -15.446815985131
 Nuclear repulsion energy =       34.505872551266

             COSMO energy =        4.243820708853

 Numeric. integr. density =       17.999999821801

     Total iterative time =      0.1s


                                   COSMO solvation results
                                   -----------------------

                 gas phase energy =         0.000000000000
                 sol phase energy =      -115.190836011224
 (electrostatic) solvation energy =       115.190836011224 (72283.34 kcal/mol)

                  Occupations of the irreducible representations
                  ----------------------------------------------

                     irrep           alpha         beta
                     --------     --------     --------
                     a1                5.0          5.0
                     a2                0.0          0.0
                     e                 4.0          4.0


                       DFT Final Molecular Orbital Analysis
                       ------------------------------------

 Vector    1  Occ=2.000000D+00  E=-1.897002D+01  Symmetry=a1
              MO Center= -3.1D-21, -1.5D-20, -7.9D-01, r^2= 1.5D-02
   Bfn.  Coefficient  Atom+Function         Bfn.  Coefficient  Atom+Function  
  ----- ------------  ---------------      ----- ------------  ---------------
     1      0.992900  1 O  s                  2      0.026034  1 O  s          

 Vector    2  Occ=2.000000D+00  E=-1.016320D+01  Symmetry=a1
              MO Center=  7.1D-18,  9.1D-18,  5.6D-01, r^2= 2.8D-02
   Bfn.  Coefficient  Atom+Function         Bfn.  Coefficient  Atom+Function  
  ----- ------------  ---------------      ----- ------------  ---------------
    16      0.992926  2 C  s                 17      0.048822  2 C  s          

 Vector    3  Occ=2.000000D+00  E=-8.461578D-01  Symmetry=a1
              MO Center= -5.1D-16, -4.2D-16, -3.7D-01, r^2= 6.8D-01
   Bfn.  Coefficient  Atom+Function         Bfn.  Coefficient  Atom+Function  
  ----- ------------  ---------------      ----- ------------  ---------------
     6      0.415435  1 O  s                  2      0.405503  1 O  s          
    17      0.220676  2 C  s                  1     -0.189906  1 O  s          
    21      0.130499  2 C  s                 20     -0.127059  2 C  pz         
     5      0.124854  1 O  pz                16     -0.115834  2 C  s          
    31      0.044862  3 H  s                 33      0.044862  4 H  s          

 Vector    4  Occ=2.000000D+00  E=-5.834950D-01  Symmetry=a1
              MO Center=  1.4D-17, -2.4D-17,  6.2D-01, r^2= 1.4D+00
   Bfn.  Coefficient  Atom+Function         Bfn.  Coefficient  Atom+Function  
  ----- ------------  ---------------      ----- ------------  ---------------
    17     -0.310316  2 C  s                  6      0.297582  1 O  s          
    21     -0.279740  2 C  s                  2      0.220110  1 O  s          
    20     -0.204057  2 C  pz                16      0.154156  2 C  s          
    31     -0.148999  3 H  s                 33     -0.148999  4 H  s          
    35     -0.148999  5 H  s                  1     -0.103329  1 O  s          

 Vector    5  Occ=2.000000D+00  E=-3.717792D-01  Symmetry=e
              MO Center=  8.0D-02,  1.9D-01,  6.0D-01, r^2= 1.4D+00
   Bfn.  Coefficient  Atom+Function         Bfn.  Coefficient  Atom+Function  
  ----- ------------  ---------------      ----- ------------  ---------------
    18      0.356016  2 C  px                31      0.241192  3 H  s          
    19      0.237255  2 C  py                32      0.234246  3 H  s          
    35     -0.162409  5 H  s                 36     -0.157732  5 H  s          
    22      0.155838  2 C  px                 3      0.147081  1 O  px         
    23      0.103853  2 C  py                 4      0.098017  1 O  py         

 Vector    6  Occ=2.000000D+00  E=-3.717792D-01  Symmetry=e
              MO Center= -8.0D-02, -1.9D-01,  6.0D-01, r^2= 1.4D+00
   Bfn.  Coefficient  Atom+Function         Bfn.  Coefficient  Atom+Function  
  ----- ------------  ---------------      ----- ------------  ---------------
    19      0.356016  2 C  py                18     -0.237255  2 C  px         
    33     -0.233019  4 H  s                 34     -0.226309  4 H  s          
    35      0.184737  5 H  s                 36      0.179418  5 H  s          
    23      0.155838  2 C  py                 4      0.147081  1 O  py         
    22     -0.103853  2 C  px                 3     -0.098017  1 O  px         

 Vector    7  Occ=2.000000D+00  E=-2.930940D-01  Symmetry=a1
              MO Center=  3.1D-16, -6.2D-16, -5.6D-01, r^2= 1.2D+00
   Bfn.  Coefficient  Atom+Function         Bfn.  Coefficient  Atom+Function  
  ----- ------------  ---------------      ----- ------------  ---------------
     5      0.481082  1 O  pz                 6     -0.451618  1 O  s          
    20     -0.362045  2 C  pz                 9      0.299817  1 O  pz         
    21      0.142501  2 C  s                 24     -0.139566  2 C  pz         
     2     -0.120493  1 O  s                 17      0.101459  2 C  s          
    32     -0.084752  3 H  s                 34     -0.084752  4 H  s          

 Vector    8  Occ=2.000000D+00  E=-1.332763D-01  Symmetry=e
              MO Center=  7.6D-02, -1.1D-02, -4.9D-01, r^2= 1.3D+00
   Bfn.  Coefficient  Atom+Function         Bfn.  Coefficient  Atom+Function  
  ----- ------------  ---------------      ----- ------------  ---------------
     4      0.548094  1 O  py                 8      0.470287  1 O  py         
    32     -0.300270  3 H  s                 34      0.280240  4 H  s          
     3      0.182541  1 O  px                 7      0.156627  1 O  px         
    31     -0.140963  3 H  s                 33      0.131560  4 H  s          
    19     -0.086986  2 C  py                23      0.080606  2 C  py         

 Vector    9  Occ=2.000000D+00  E=-1.332763D-01  Symmetry=e
              MO Center= -7.6D-02,  1.1D-02, -4.9D-01, r^2= 1.3D+00
   Bfn.  Coefficient  Atom+Function         Bfn.  Coefficient  Atom+Function  
  ----- ------------  ---------------      ----- ------------  ---------------
     3      0.548094  1 O  px                 7      0.470287  1 O  px         
    36      0.335158  5 H  s                 34     -0.184926  4 H  s          
     4     -0.182541  1 O  py                 8     -0.156627  1 O  py         
    35      0.157341  5 H  s                 32     -0.150232  3 H  s          
    18     -0.086986  2 C  px                33     -0.086814  4 H  s          

 Vector   10  Occ=0.000000D+00  E= 1.403479D-01  Symmetry=a1
              MO Center=  1.1D-15, -6.5D-15,  1.1D+00, r^2= 3.4D+00
   Bfn.  Coefficient  Atom+Function         Bfn.  Coefficient  Atom+Function  
  ----- ------------  ---------------      ----- ------------  ---------------
    21      2.322753  2 C  s                 32     -1.191474  3 H  s          
    34     -1.191474  4 H  s                 36     -1.191474  5 H  s          
    24      0.755860  2 C  pz                20      0.218597  2 C  pz         
    17      0.150847  2 C  s                 16     -0.138828  2 C  s          
     6      0.070723  1 O  s                  5     -0.032936  1 O  pz         

 Vector   11  Occ=0.000000D+00  E= 2.137990D-01  Symmetry=e
              MO Center= -4.5D-01,  7.7D-02,  9.1D-01, r^2= 2.8D+00
   Bfn.  Coefficient  Atom+Function         Bfn.  Coefficient  Atom+Function  
  ----- ------------  ---------------      ----- ------------  ---------------
    36      1.770980  5 H  s                 22      1.285494  2 C  px         
    34     -0.955513  4 H  s                 32     -0.815467  3 H  s          
    18      0.436566  2 C  px                23     -0.408130  2 C  py         
     7     -0.302193  1 O  px                 3     -0.138859  1 O  px         
    19     -0.138605  2 C  py                 8      0.095943  1 O  py         

 Vector   12  Occ=0.000000D+00  E= 2.137990D-01  Symmetry=e
              MO Center=  4.5D-01, -7.7D-02,  9.1D-01, r^2= 2.8D+00
   Bfn.  Coefficient  Atom+Function         Bfn.  Coefficient  Atom+Function  
  ----- ------------  ---------------      ----- ------------  ---------------
    32      1.574141  3 H  s                 34     -1.493286  4 H  s          
    23     -1.285494  2 C  py                19     -0.436566  2 C  py         
    22     -0.408130  2 C  px                 8      0.302193  1 O  py         
     4      0.138859  1 O  py                18     -0.138605  2 C  px         
     7      0.095943  1 O  px                36     -0.080855  5 H  s          

 Vector   13  Occ=0.000000D+00  E= 2.546255D-01  Symmetry=a1
              MO Center= -1.9D-15,  1.7D-15,  5.6D-01, r^2= 2.5D+00
   Bfn.  Coefficient  Atom+Function         Bfn.  Coefficient  Atom+Function  
  ----- ------------  ---------------      ----- ------------  ---------------
     6      1.676596  1 O  s                 24      1.624548  2 C  pz         
    21     -1.532636  2 C  s                  9      0.934248  1 O  pz         
     5      0.265549  1 O  pz                20      0.131429  2 C  pz         
     1     -0.104183  1 O  s                 32      0.096182  3 H  s          
    34      0.096182  4 H  s                 36      0.096182  5 H  s          

 Vector   14  Occ=0.000000D+00  E= 6.132174D-01  Symmetry=e
              MO Center= -1.8D-01,  1.6D-01,  5.0D-01, r^2= 2.0D+00
   Bfn.  Coefficient  Atom+Function         Bfn.  Coefficient  Atom+Function  
  ----- ------------  ---------------      ----- ------------  ---------------
    23      1.789912  2 C  py                19     -0.753247  2 C  py         
    34      0.478633  4 H  s                 33      0.436775  4 H  s          
    32     -0.363282  3 H  s                 31     -0.331512  3 H  s          
     8     -0.259289  1 O  py                 4     -0.194579  1 O  py         
    26     -0.123441  2 C  dxy               36     -0.115351  5 H  s          

 Vector   15  Occ=0.000000D+00  E= 6.132174D-01  Symmetry=e
              MO Center=  1.8D-01, -1.6D-01,  5.0D-01, r^2= 2.0D+00
   Bfn.  Coefficient  Atom+Function         Bfn.  Coefficient  Atom+Function  
  ----- ------------  ---------------      ----- ------------  ---------------
    22      1.789912  2 C  px                18     -0.753247  2 C  px         
    36      0.486080  5 H  s                 35      0.443571  5 H  s          
    32     -0.342937  3 H  s                 31     -0.312946  3 H  s          
     7     -0.259289  1 O  px                 3     -0.194579  1 O  px         
    34     -0.143143  4 H  s                 33     -0.130625  4 H  s          

 Vector   16  Occ=0.000000D+00  E= 6.438755D-01  Symmetry=a1
              MO Center= -1.3D-15,  4.3D-17,  2.2D-01, r^2= 1.4D+00
   Bfn.  Coefficient  Atom+Function         Bfn.  Coefficient  Atom+Function  
  ----- ------------  ---------------      ----- ------------  ---------------
    24      1.150018  2 C  pz                20     -1.018765  2 C  pz         
     6      0.593083  1 O  s                 17      0.405167  2 C  s          
     5     -0.392248  1 O  pz                 2     -0.195995  1 O  s          
    32     -0.143618  3 H  s                 34     -0.143618  4 H  s          
    36     -0.143618  5 H  s                 15      0.121738  1 O  dzz        

 Vector   17  Occ=0.000000D+00  E= 8.915879D-01  Symmetry=a1
              MO Center= -3.4D-14,  4.2D-14, -5.6D-01, r^2= 2.5D+00
   Bfn.  Coefficient  Atom+Function         Bfn.  Coefficient  Atom+Function  
  ----- ------------  ---------------      ----- ------------  ---------------
     6      1.417721  1 O  s                 21      1.033538  2 C  s          
     2     -0.866302  1 O  s                  9     -0.627657  1 O  pz         
     5      0.483120  1 O  pz                24      0.463497  2 C  pz         
    31     -0.398119  3 H  s                 33     -0.398119  4 H  s          
    35     -0.398119  5 H  s                 15     -0.340599  1 O  dzz        

 Vector   18  Occ=0.000000D+00  E= 8.924072D-01  Symmetry=e
              MO Center=  3.8D-01,  3.7D-02,  8.6D-01, r^2= 2.0D+00
   Bfn.  Coefficient  Atom+Function         Bfn.  Coefficient  Atom+Function  
  ----- ------------  ---------------      ----- ------------  ---------------
    32      1.515639  3 H  s                 34     -1.228921  4 H  s          
    23     -1.144129  2 C  py                31     -0.775305  3 H  s          
    19      0.738720  2 C  py                33      0.628638  4 H  s          
    22     -0.539760  2 C  px                18      0.348502  2 C  px         
    36     -0.286717  5 H  s                 26     -0.230114  2 C  dxy        

 Vector   19  Occ=0.000000D+00  E= 8.924072D-01  Symmetry=e
              MO Center= -3.8D-01, -3.7D-02,  8.6D-01, r^2= 2.0D+00
   Bfn.  Coefficient  Atom+Function         Bfn.  Coefficient  Atom+Function  
  ----- ------------  ---------------      ----- ------------  ---------------
    36      1.584572  5 H  s                 22      1.144129  2 C  px         
    34     -1.040591  4 H  s                 35     -0.810567  5 H  s          
    18     -0.738720  2 C  px                32     -0.543982  3 H  s          
    23     -0.539760  2 C  py                33      0.532300  4 H  s          
    19      0.348502  2 C  py                31      0.278267  3 H  s          

 Vector   20  Occ=0.000000D+00  E= 9.715307D-01  Symmetry=a1
              MO Center= -2.3D-16,  3.0D-16,  6.2D-01, r^2= 2.4D+00
   Bfn.  Coefficient  Atom+Function         Bfn.  Coefficient  Atom+Function  
  ----- ------------  ---------------      ----- ------------  ---------------
    21      2.327578  2 C  s                 17     -1.045315  2 C  s          
    32     -0.866400  3 H  s                 34     -0.866400  4 H  s          
    36     -0.866400  5 H  s                  9     -0.604685  1 O  pz         
    31      0.570642  3 H  s                 33      0.570642  4 H  s          
    35      0.570642  5 H  s                 20     -0.459588  2 C  pz         

 Vector   21  Occ=0.000000D+00  E= 1.078138D+00  Symmetry=a1
              MO Center=  6.5D-16,  6.4D-16,  2.8D-01, r^2= 2.6D+00
   Bfn.  Coefficient  Atom+Function         Bfn.  Coefficient  Atom+Function  
  ----- ------------  ---------------      ----- ------------  ---------------
    21      3.782354  2 C  s                 17     -1.652091  2 C  s          
    32     -0.945297  3 H  s                 34     -0.945297  4 H  s          
    36     -0.945297  5 H  s                 24      0.864816  2 C  pz         
     9      0.643436  1 O  pz                 5     -0.480201  1 O  pz         
    31     -0.235460  3 H  s                 33     -0.235460  4 H  s          

 Vector   22  Occ=0.000000D+00  E= 1.078273D+00  Symmetry=e
              MO Center= -1.0D-02,  1.4D-02, -8.0D-01, r^2= 1.3D+00
   Bfn.  Coefficient  Atom+Function         Bfn.  Coefficient  Atom+Function  
  ----- ------------  ---------------      ----- ------------  ---------------
     8      1.223121  1 O  py                 4     -0.952358  1 O  py         
    23     -0.657655  2 C  py                33     -0.147961  4 H  s          
    34     -0.148251  4 H  s                 26      0.116118  2 C  dxy        
    14     -0.107029  1 O  dyz               31      0.098640  3 H  s          
    32      0.098833  3 H  s                  7     -0.087823  1 O  px         

 Vector   23  Occ=0.000000D+00  E= 1.078273D+00  Symmetry=e
              MO Center=  1.0D-02, -1.4D-02, -8.0D-01, r^2= 1.3D+00
   Bfn.  Coefficient  Atom+Function         Bfn.  Coefficient  Atom+Function  
  ----- ------------  ---------------      ----- ------------  ---------------
     7      1.223121  1 O  px                 3     -0.952358  1 O  px         
    22     -0.657655  2 C  px                35     -0.142375  5 H  s          
    36     -0.142654  5 H  s                 26      0.134083  2 C  dxy        
    31      0.113901  3 H  s                 32      0.114124  3 H  s          
    12     -0.107029  1 O  dxz                8      0.087823  1 O  py         

 Vector   24  Occ=0.000000D+00  E= 1.553185D+00  Symmetry=a1
              MO Center=  1.1D-18,  1.2D-16, -1.4D-01, r^2= 2.1D+00
   Bfn.  Coefficient  Atom+Function         Bfn.  Coefficient  Atom+Function  
  ----- ------------  ---------------      ----- ------------  ---------------
     6      4.507930  1 O  s                 21     -4.368057  2 C  s          
     9      1.763733  1 O  pz                 2     -1.506830  1 O  s          
    24      1.105239  2 C  pz                17      0.878708  2 C  s          
    15     -0.615038  1 O  dzz               32      0.435582  3 H  s          
    34      0.435582  4 H  s                 36      0.435582  5 H  s          

 Vector   25  Occ=0.000000D+00  E= 1.595939D+00  Symmetry=e
              MO Center=  9.2D-03, -8.2D-04,  9.0D-02, r^2= 1.1D+00
   Bfn.  Coefficient  Atom+Function         Bfn.  Coefficient  Atom+Function  
  ----- ------------  ---------------      ----- ------------  ---------------
    27      0.988670  2 C  dxz               12     -0.771565  1 O  dxz        
    25      0.359065  2 C  dxx               28     -0.359065  2 C  dyy        
    29     -0.358668  2 C  dyz               26     -0.335791  2 C  dxy        
    14      0.279907  1 O  dyz               36     -0.192742  5 H  s          
    22     -0.182273  2 C  px                18      0.169259  2 C  px         

 Vector   26  Occ=0.000000D+00  E= 1.595939D+00  Symmetry=e
              MO Center= -9.2D-03,  8.2D-04,  9.0D-02, r^2= 1.1D+00
   Bfn.  Coefficient  Atom+Function         Bfn.  Coefficient  Atom+Function  
  ----- ------------  ---------------      ----- ------------  ---------------
    29      0.988670  2 C  dyz               14     -0.771565  1 O  dyz        
    26     -0.718130  2 C  dxy               27      0.358668  2 C  dxz        
    12     -0.279907  1 O  dxz               11     -0.232112  1 O  dxy        
    23     -0.182273  2 C  py                32      0.175248  3 H  s          
    19      0.169259  2 C  py                25     -0.167895  2 C  dxx        

 Vector   27  Occ=0.000000D+00  E= 1.905846D+00  Symmetry=e
              MO Center=  4.7D-03,  3.3D-03, -5.8D-01, r^2= 9.2D-01
   Bfn.  Coefficient  Atom+Function         Bfn.  Coefficient  Atom+Function  
  ----- ------------  ---------------      ----- ------------  ---------------
    10      0.768973  1 O  dxx               13     -0.768973  1 O  dyy        
    22     -0.289837  2 C  px                12      0.288035  1 O  dxz        
    27     -0.286255  2 C  dxz               35     -0.277391  5 H  s          
    33      0.251004  4 H  s                 25      0.248563  2 C  dxx        
    28     -0.248563  2 C  dyy               23      0.243689  2 C  py         

 Vector   28  Occ=0.000000D+00  E= 1.905846D+00  Symmetry=e
              MO Center= -4.7D-03, -3.3D-03, -5.8D-01, r^2= 9.2D-01
   Bfn.  Coefficient  Atom+Function         Bfn.  Coefficient  Atom+Function  
  ----- ------------  ---------------      ----- ------------  ---------------
    11      1.537946  1 O  dxy               26      0.497126  2 C  dxy        
    31     -0.305069  3 H  s                 23      0.289837  2 C  py         
    14     -0.288035  1 O  dyz               29      0.286255  2 C  dyz        
    22      0.243689  2 C  px                12     -0.242174  1 O  dxz        
    27      0.240677  2 C  dxz               33      0.175387  4 H  s          

 Vector   29  Occ=0.000000D+00  E= 2.233845D+00  Symmetry=a1
              MO Center=  1.5D-17,  1.3D-16,  3.4D-01, r^2= 9.5D-01
   Bfn.  Coefficient  Atom+Function         Bfn.  Coefficient  Atom+Function  
  ----- ------------  ---------------      ----- ------------  ---------------
    30      0.915691  2 C  dzz               25     -0.544372  2 C  dxx        
    28     -0.544372  2 C  dyy                5     -0.500728  1 O  pz         
     2     -0.432881  1 O  s                 24     -0.400519  2 C  pz         
     9      0.338758  1 O  pz                31      0.252451  3 H  s          
    33      0.252451  4 H  s                 35      0.252451  5 H  s          

 Vector   30  Occ=0.000000D+00  E= 2.243098D+00  Symmetry=e
              MO Center= -7.0D-02, -2.5D-02,  1.6D-01, r^2= 1.3D+00
   Bfn.  Coefficient  Atom+Function         Bfn.  Coefficient  Atom+Function  
  ----- ------------  ---------------      ----- ------------  ---------------
    25      0.754509  2 C  dxx               28     -0.754509  2 C  dyy        
    12      0.672659  1 O  dxz               35     -0.592240  5 H  s          
    22     -0.500259  2 C  px                33      0.454472  4 H  s          
    14     -0.422901  1 O  dyz               10     -0.361090  1 O  dxx        
    13      0.361090  1 O  dyy               26     -0.344015  2 C  dxy        

 Vector   31  Occ=0.000000D+00  E= 2.243098D+00  Symmetry=e
              MO Center=  7.0D-02,  2.5D-02,  1.6D-01, r^2= 1.3D+00
   Bfn.  Coefficient  Atom+Function         Bfn.  Coefficient  Atom+Function  
  ----- ------------  ---------------      ----- ------------  ---------------
    26      1.509018  2 C  dxy               11     -0.722180  1 O  dxy        
    14     -0.672659  1 O  dyz               31     -0.604319  3 H  s          
    23      0.500259  2 C  py                12     -0.422901  1 O  dxz        
    33      0.421471  4 H  s                 22      0.314513  2 C  px         
     8     -0.274827  1 O  py                35      0.182849  5 H  s          

 Vector   32  Occ=0.000000D+00  E= 2.560455D+00  Symmetry=e
              MO Center=  1.8D-03, -5.2D-03, -3.6D-02, r^2= 1.3D+00
   Bfn.  Coefficient  Atom+Function         Bfn.  Coefficient  Atom+Function  
  ----- ------------  ---------------      ----- ------------  ---------------
    29      1.569915  2 C  dyz               14      1.424623  1 O  dyz        
    33      0.368833  4 H  s                 27     -0.362570  2 C  dxz        
    12     -0.329015  1 O  dxz                8      0.299934  1 O  py         
    34     -0.260552  4 H  s                 26      0.258190  2 C  dxy        
    25      0.206631  2 C  dxx               28     -0.206631  2 C  dyy        

 Vector   33  Occ=0.000000D+00  E= 2.560455D+00  Symmetry=e
              MO Center= -1.8D-03,  5.2D-03, -3.6D-02, r^2= 1.3D+00
   Bfn.  Coefficient  Atom+Function         Bfn.  Coefficient  Atom+Function  
  ----- ------------  ---------------      ----- ------------  ---------------
    27      1.569915  2 C  dxz               12      1.424623  1 O  dxz        
    26      0.413262  2 C  dxy               29      0.362570  2 C  dyz        
    14      0.329015  1 O  dyz               35      0.325845  5 H  s          
    31     -0.312993  3 H  s                  7      0.299934  1 O  px         
    36     -0.230184  5 H  s                 32      0.221105  3 H  s          

 Vector   34  Occ=0.000000D+00  E= 2.909015D+00  Symmetry=a1
              MO Center=  1.1D-17, -1.1D-17, -4.7D-01, r^2= 1.3D+00
   Bfn.  Coefficient  Atom+Function         Bfn.  Coefficient  Atom+Function  
  ----- ------------  ---------------      ----- ------------  ---------------
     6      2.571191  1 O  s                 21     -1.656412  2 C  s          
     9      1.541666  1 O  pz                15      1.265233  1 O  dzz        
    20      1.000791  2 C  pz                30     -0.832274  2 C  dzz        
     2     -0.785266  1 O  s                 24      0.786219  2 C  pz         
    10     -0.678784  1 O  dxx               13     -0.678784  1 O  dyy        

[...]

     2   2 0 0    -11.700902     -8.635776     -8.635776      5.570650
     2   1 1 0      0.000000     -0.000000     -0.000000      0.000000
     2   1 0 1      0.000000     -0.000000     -0.000000      0.000000
     2   0 2 0    -11.700902     -8.635776     -8.635776      5.570650
     2   0 1 1     -0.000000     -0.000000     -0.000000      0.000000
     2   0 0 2    -14.435931    -25.360658    -25.360658     36.285386

 Line search: 
     step= 1.00 grad=-1.4D-10 hess= 4.1D-09 energy=   -115.194360 mode=accept  
 new step= 1.00                   predicted energy=   -115.194360
  no constraints, skipping    0.0000000000000000     
  no constraints, skipping    0.0000000000000000     
  no constraints, skipping    0.0000000000000000     

          --------
          Step   1
          --------


                         Geometry "geometry" -> "geometry"
                         ---------------------------------

 Output coordinates in angstroms (scale by  1.889725989 to convert to a.u.)

  No.       Tag          Charge          X              Y              Z
 ---- ---------------- ---------- -------------- -------------- --------------
    1 o                    8.0000    -0.00000000    -0.00000000    -0.82574311
    2 c                    6.0000    -0.00000000    -0.00000000     0.51110821
    3 h                    1.0000     0.72109662     0.72109662     1.02286218
    4 h                    1.0000     0.26393968    -0.98503631     1.02286218
    5 h                    1.0000    -0.98503631     0.26393968     1.02286218

      Atomic Mass 
      ----------- 

      o                 15.994910
      c                 12.000000
      h                  1.007825


 Effective nuclear repulsion energy (a.u.)      34.2627906903

            Nuclear Dipole moment (a.u.) 
            ----------------------------
        X                 Y               Z
 ---------------- ---------------- ----------------
     0.0000000000     0.0000000000    -0.8895111844

      Symmetry information
      --------------------

 Group name             C3v       
 Group number             17
 Group order               6
 No. of unique centers     3

      Symmetry unique atoms

     1    2    3


                                 NWChem DFT Module
                                 -----------------




 Summary of "ao basis" -> "ao basis" (cartesian)
 ------------------------------------------------------------------------------
       Tag                 Description            Shells   Functions and Types
 ---------------- ------------------------------  ------  ---------------------
 o                           6-31g*                  6       15   3s2p1d
 c                           6-31g*                  6       15   3s2p1d
 h                           6-31g*                  2        2   2s


      Symmetry analysis of basis
      --------------------------

        a1         16
        a2          0
        e          20


 solvent parameters
 solvname_short: h2o     
 solvname_long:  water                              
 dielec:       78.4000
 dielecinf:     1.7769

          ---------------
          -cosmo- solvent
          ---------------
 Cosmo: York-Karplus, doi: 10.1021/jp992097l
 dielectric constant -eps-     =  78.40
 screen = (eps-1)/(eps    )    =   0.98724
 surface charge correction     = lagrangian
 -lineq- algorithm             =   0
 -bem- low  level              =   2
 -bem- from -octahedral-
 gaussian surface charge width =   0.98000
 degree of switching           =   1.00000
 switching function tolerance  =   0.00010
 atomic radii = 
 --------------
    1  8.000  1.720
    2  6.000  2.000
    3  1.000  1.300
    4  1.000  1.300
    5  1.000  1.300

 solvent accessible surface
 --------------------------

 ---------- ATOMIC COORDINATES (A.U.) ------------ VDWR(ANG.) --
     1   -0.00000000   -0.00000000   -1.56042822     1.720
     2   -0.00000000   -0.00000000    0.96585447     2.000
     3    1.36267503    1.36267503    1.93292925     1.300
     4    0.49877368   -1.86144871    1.93292925     1.300
     5   -1.86144871    0.49877368    1.93292925     1.300
 number of segments per atom =         32
 number of   points per atom =         32
 atom (   nspa,  nppa )
 ----------------------
    1 (     24,     0 )       0
    2 (     21,     0 )       0
    3 (     16,     0 )       0
    4 (     16,     0 )       0
    5 (     16,     0 )       0
 number of -cosmo- surface points =       93
 molecular surface =     64.994 angstrom**2
 molecular volume  =     36.555 angstrom**3
 G(cav/disp)       =      1.185 kcal/mol
 ...... end of -cosmo- initialization ......



  The DFT is already converged 

         Total DFT energy =   -115.194360008095


            General Information
            -------------------
          SCF calculation type: DFT
          Wavefunction type:  closed shell.
          No. of atoms     :     5
          No. of electrons :    18
           Alpha electrons :     9
            Beta electrons :     9
          Charge           :    -1
          Spin multiplicity:     1
          Use of symmetry is: on ; symmetry adaption is: on 
          Maximum number of iterations:  30
          AO basis - number of functions:    36
                     number of shells:    18
          Convergence on energy requested:  1.00D-06
          Convergence on density requested:  1.00D-05
          Convergence on gradient requested:  5.00D-04

              XC Information
              --------------
                         B3LYP Method XC Potential
                     Hartree-Fock (Exact) Exchange  0.200          
                        Slater Exchange Functional  0.800 local    
                    Becke 1988 Exchange Functional  0.720 non-local
              Lee-Yang-Parr Correlation Functional  0.810          
                  VWN I RPA Correlation Functional  0.190 local    

             Grid Information
             ----------------
          Grid used for XC integration:  medium    
          Radial quadrature: Mura-Knowles        
          Angular quadrature: Lebedev. 
          Tag              B.-S. Rad. Rad. Pts. Rad. Cut. Ang. Pts.
          ---              ---------- --------- --------- ---------
          o                   0.60       49           7.0       434
          c                   0.70       49           6.0       434
          h                   0.35       45           6.0       434
          Grid pruning is: on 
          Number of quadrature shells:   143
          Spatial weights used:  Erf1

          Convergence Information
          -----------------------
          Convergence aids based upon iterative change in 
          total energy or number of iterations. 
          Levelshifting, if invoked, occurs when the 
          HOMO/LUMO gap drops below (HL_TOL):  1.00D-02
          DIIS, if invoked, will attempt to extrapolate 
          using up to (NFOCK): 10 stored Fock matrices.

                    Damping( 0%)  Levelshifting(0.5)       DIIS
                  --------------- ------------------- ---------------
          dE  on:    start            ASAP                start   
          dE off:    2 iters         30 iters            30 iters 


      Screening Tolerance Information
      -------------------------------
          Density screening/tol_rho:  1.00D-10
          AO Gaussian exp screening on grid/accAOfunc:  14
          CD Gaussian exp screening on grid/accCDfunc:  20
          XC Gaussian exp screening on grid/accXCfunc:  20
          Schwarz screening/accCoul:  1.00D-08



                            NWChem DFT Gradient Module
                            --------------------------



  charge          =  -1.00
  wavefunction    = closed shell

  Rotation of axis 
  Using symmetry


                         DFT ENERGY GRADIENTS

    atom               coordinates                        gradient
                 x          y          z           x          y          z
   1 o      -0.000000  -0.000000  -1.560428   -0.000000  -0.000000   0.000000
   2 c      -0.000000  -0.000000   0.965854   -0.000000   0.000000   0.000000
   3 h       1.362675   1.362675   1.932929    0.000000   0.000000  -0.000000
   4 h       0.498774  -1.861449   1.932929    0.000000  -0.000000  -0.000000
   5 h      -1.861449   0.498774   1.932929   -0.000000   0.000000  -0.000000

                 ----------------------------------------
                 |  Time  |  1-e(secs)   |  2-e(secs)   |
                 ----------------------------------------
                 |  CPU   |       0.02   |       0.15   |
                 ----------------------------------------
                 |  WALL  |       0.02   |       0.15   |
                 ----------------------------------------
  no constraints, skipping    0.0000000000000000     

  Step       Energy      Delta E   Gmax     Grms     Xrms     Xmax   Walltime
  ---- ---------------- -------- -------- -------- -------- -------- --------
@    1    -115.19436001  4.0D-09  0.00000  0.00000  0.00001  0.00001      5.5
                                     ok       ok       ok       ok  



                                Z-matrix (autoz)
                                -------- 

 Units are Angstrom for bonds and degrees for angles

      Type          Name      I     J     K     L     M      Value     Gradient
      ----------- --------  ----- ----- ----- ----- ----- ---------- ----------
    1 Stretch                  1     2                       1.33685   -0.00000
    2 Stretch                  2     3                       1.14099    0.00000
    3 Stretch                  2     4                       1.14099    0.00000
    4 Stretch                  2     5                       1.14099    0.00000
    5 Bend                     1     2     3               116.64867   -0.00000
    6 Bend                     1     2     4               116.64867   -0.00000
    7 Bend                     1     2     5               116.64867   -0.00000
    8 Bend                     3     2     4               101.43446    0.00000
    9 Bend                     3     2     5               101.43446    0.00000
   10 Bend                     4     2     5               101.43446    0.00000


      ----------------------
      Optimization converged
      ----------------------


  Step       Energy      Delta E   Gmax     Grms     Xrms     Xmax   Walltime
  ---- ---------------- -------- -------- -------- -------- -------- --------
@    1    -115.19436001  4.0D-09  0.00000  0.00000  0.00001  0.00001      5.5
                                     ok       ok       ok       ok  



                                Z-matrix (autoz)
                                -------- 

 Units are Angstrom for bonds and degrees for angles

      Type          Name      I     J     K     L     M      Value     Gradient
      ----------- --------  ----- ----- ----- ----- ----- ---------- ----------
    1 Stretch                  1     2                       1.33685   -0.00000
    2 Stretch                  2     3                       1.14099    0.00000
    3 Stretch                  2     4                       1.14099    0.00000
    4 Stretch                  2     5                       1.14099    0.00000
    5 Bend                     1     2     3               116.64867   -0.00000
    6 Bend                     1     2     4               116.64867   -0.00000
    7 Bend                     1     2     5               116.64867   -0.00000
    8 Bend                     3     2     4               101.43446    0.00000
    9 Bend                     3     2     5               101.43446    0.00000
   10 Bend                     4     2     5               101.43446    0.00000



                         Geometry "geometry" -> "geometry"
                         ---------------------------------

 Output coordinates in angstroms (scale by  1.889725989 to convert to a.u.)

  No.       Tag          Charge          X              Y              Z
 ---- ---------------- ---------- -------------- -------------- --------------
    1 o                    8.0000    -0.00000000    -0.00000000    -0.82574311
    2 c                    6.0000    -0.00000000    -0.00000000     0.51110821
    3 h                    1.0000     0.72109662     0.72109662     1.02286218
    4 h                    1.0000     0.26393968    -0.98503631     1.02286218
    5 h                    1.0000    -0.98503631     0.26393968     1.02286218

      Atomic Mass 
      ----------- 

      o                 15.994910
      c                 12.000000
      h                  1.007825


 Effective nuclear repulsion energy (a.u.)      34.2627906903

            Nuclear Dipole moment (a.u.) 
            ----------------------------
        X                 Y               Z
 ---------------- ---------------- ----------------
     0.0000000000     0.0000000000    -0.8895111844

      Symmetry information
      --------------------

 Group name             C3v       
 Group number             17
 Group order               6
 No. of unique centers     3

      Symmetry unique atoms

     1    2    3


                Final and change from initial internal coordinates
                --------------------------------------------------



                                Z-matrix (autoz)
                                -------- 

 Units are Angstrom for bonds and degrees for angles

      Type          Name      I     J     K     L     M      Value       Change
      ----------- --------  ----- ----- ----- ----- ----- ---------- ----------
    1 Stretch                  1     2                       1.33685   -0.00000
    2 Stretch                  2     3                       1.14099   -0.00000
    3 Stretch                  2     4                       1.14099   -0.00000
    4 Stretch                  2     5                       1.14099   -0.00000
    5 Bend                     1     2     3               116.64867    0.00048
    6 Bend                     1     2     4               116.64867    0.00048
    7 Bend                     1     2     5               116.64867    0.00048
    8 Bend                     3     2     4               101.43446   -0.00059
    9 Bend                     3     2     5               101.43446   -0.00059
   10 Bend                     4     2     5               101.43446   -0.00059

 ==============================================================================
                                internuclear distances
 ------------------------------------------------------------------------------
       center one      |      center two      | atomic units |  angstroms
 ------------------------------------------------------------------------------
    2 c                |   1 o                |     2.52628  |     1.33685
    3 h                |   2 c                |     2.15615  |     1.14099
    4 h                |   2 c                |     2.15615  |     1.14099
    5 h                |   2 c                |     2.15615  |     1.14099
 ------------------------------------------------------------------------------
                         number of included internuclear distances:          4
 ==============================================================================



 ==============================================================================
                                 internuclear angles
 ------------------------------------------------------------------------------
        center 1       |       center 2       |       center 3       |  degrees
 ------------------------------------------------------------------------------
    1 o                |   2 c                |   3 h                |   116.65
    1 o                |   2 c                |   4 h                |   116.65
    1 o                |   2 c                |   5 h                |   116.65
    3 h                |   2 c                |   4 h                |   101.43
    3 h                |   2 c                |   5 h                |   101.43
    4 h                |   2 c                |   5 h                |   101.43
 ------------------------------------------------------------------------------
                            number of included internuclear angles:          6
 ==============================================================================




 Task  times  cpu:        1.8s     wall:        1.8s


                                NWChem Input Module
                                -------------------


 Summary of allocated global arrays
-----------------------------------
  No active global arrays



                         GA Statistics for process    0
                         ------------------------------

       create   destroy   get      put      acc     scatter   gather  read&inc
calls: 2583     2583     1.08e+05 7136     3.00e+04    0        0     1.30e+04 
number of processes/call 1.10e+00 1.48e+00 1.10e+00 0.00e+00 0.00e+00
bytes total:             5.10e+07 1.28e+07 2.41e+07 0.00e+00 0.00e+00 1.04e+05
bytes remote:            1.13e+07 1.79e+06 6.01e+06 0.00e+00 0.00e+00 0.00e+00
Max memory consumed for GA by this process: 272352 bytes

MA_summarize_allocated_blocks: starting scan ...
MA_summarize_allocated_blocks: scan completed: 0 heap blocks, 0 stack blocks
MA usage statistics:

	allocation statistics:
					      heap	     stack
					      ----	     -----
	current number of blocks	         0	         0
	maximum number of blocks	        27	        57
	current total bytes		         0	         0
	maximum total bytes		 276211072	  32697448
	maximum total K-bytes		    276212	     32698
	maximum total M-bytes		       277	        33


                                     CITATION
                                     --------
                Please cite the following reference when publishing
                           results obtained with NWChem:

                 M. Valiev, E.J. Bylaska, N. Govind, K. Kowalski,
              T.P. Straatsma, H.J.J. van Dam, D. Wang, J. Nieplocha,
                        E. Apra, T.L. Windus, W.A. de Jong
                 "NWChem: a comprehensive and scalable open-source
                  solution for large scale molecular simulations"
                      Comput. Phys. Commun. 181, 1477 (2010)
                           doi:10.1016/j.cpc.2010.04.018

                                      AUTHORS
                                      -------
          E. Apra, E. J. Bylaska, W. A. de Jong, N. Govind, K. Kowalski,
       T. P. Straatsma, M. Valiev, H. J. J. van Dam, D. Wang, T. L. Windus,
        J. Hammond, J. Autschbach, K. Bhaskaran-Nair, J. Brabec, K. Lopata,
    S. A. Fischer, S. Krishnamoorthy, M. Jacquelin, W. Ma, M. Klemm, O. Villa,
      Y. Chen, V. Anisimov, F. Aquino, S. Hirata, M. T. Hackler, V. Konjkov,
            D. Mejia-Rodriguez, T. Risthaus, M. Malagoli, A. Marenich,
   A. Otero-de-la-Roza, J. Mullin, P. Nichols, R. Peverati, J. Pittner, Y. Zhao,
        P.-D. Fan, A. Fonari, M. J. Williamson, R. J. Harrison, J. R. Rehr,
      M. Dupuis, D. Silverstein, D. M. A. Smith, J. Nieplocha, V. Tipparaju,
    M. Krishnan, B. E. Van Kuiken, A. Vazquez-Mayagoitia, L. Jensen, M. Swart,
      Q. Wu, T. Van Voorhis, A. A. Auer, M. Nooijen, L. D. Crosby, E. Brown,
      G. Cisneros, G. I. Fann, H. Fruchtl, J. Garza, K. Hirao, R. A. Kendall,
      J. A. Nichols, K. Tsemekhman, K. Wolinski, J. Anchell, D. E. Bernholdt,
      P. Borowski, T. Clark, D. Clerc, H. Dachsel, M. J. O. Deegan, K. Dyall,
    D. Elwood, E. Glendening, M. Gutowski, A. C. Hess, J. Jaffe, B. G. Johnson,
     J. Ju, R. Kobayashi, R. Kutteh, Z. Lin, R. Littlefield, X. Long, B. Meng,
      T. Nakajima, S. Niu, L. Pollack, M. Rosing, K. Glaesemann, G. Sandrone,
      M. Stave, H. Taylor, G. Thomas, J. H. van Lenthe, A. T. Wong, Z. Zhang.

 Total times  cpu:        5.4s     wall:        5.5s
