 argument  1 = /home/list1234/source/nwchem-6.8.1-release/QA/tests/cosmo_h2cco2mg_ecp/cosmo_h2cco2mg_ecp.nw



============================== echo of input deck ==============================
echo

start cosmo_h2cco2mg_dat

geometry
    symmetry c1
    mg     0.00000000     0.00000000    -1.54656110
    o      0.00000000    -1.11909860    -0.09529177
    o      0.00000000     1.11909860    -0.09529177
    c      0.00000000     0.00000000     0.66838924
    c      0.00000000     0.00000000     1.99717688
    h      0.00000000    -0.92756722     2.53578926
    h      0.00000000     0.92756722     2.53578926
end

basis
  h  library 6-31g*
  c  library 6-31g*
  mg library "stuttgart rlc ecp"
  o  library "stuttgart rlc ecp"
end

ecp
  mg library "stuttgart rlc ecp"
  o  library "stuttgart rlc ecp"
end

cosmo
end

scf
  print forces cosmo_energies
end

task scf gradient
================================================================================


                                         
                                         


              Northwest Computational Chemistry Package (NWChem) 6.8
              ------------------------------------------------------


                    Environmental Molecular Sciences Laboratory
                       Pacific Northwest National Laboratory
                                Richland, WA 99352

                              Copyright (c) 1994-2018
                       Pacific Northwest National Laboratory
                            Battelle Memorial Institute

             NWChem is an open-source computational chemistry package
                        distributed under the terms of the
                      Educational Community License (ECL) 2.0
             A copy of the license is included with this distribution
                              in the LICENSE.TXT file

                                  ACKNOWLEDGMENT
                                  --------------

            This software and its documentation were developed at the
            EMSL at Pacific Northwest National Laboratory, a multiprogram
            national laboratory, operated for the U.S. Department of Energy
            by Battelle under Contract Number DE-AC05-76RL01830. Support
            for this work was provided by the Department of Energy Office
            of Biological and Environmental Research, Office of Basic
            Energy Sciences, and the Office of Advanced Scientific Computing.


           Job information
           ---------------

    hostname        = list1234-B360M-H
    program         = /home/list1234/source/nwchem-6.8.1-release/bin/LINUX64/nwchem
    date            = Sun Jun 30 05:47:02 2019

    compiled        = Sun_Jun_30_05:21:11_2019
    source          = /home/list1234/source/nwchem-6.8.1-release
    nwchem branch   = Development
    nwchem revision = N/A
    ga revision     = 5.6.5
    use scalapack   = T
    input           = /home/list1234/source/nwchem-6.8.1-release/QA/tests/cosmo_h2cco2mg_ecp/cosmo_h2cco2mg_ecp.nw
    prefix          = cosmo_h2cco2mg_dat.
    data base       = ./cosmo_h2cco2mg_dat.db
    status          = startup
    nproc           =        4
    time left       =     -1s



           Memory information
           ------------------

    heap     =   86247168 doubles =    658.0 Mbytes
    stack    =   86247165 doubles =    658.0 Mbytes
    global   =  172494336 doubles =   1316.0 Mbytes (distinct from heap & stack)
    total    =  344988669 doubles =   2632.1 Mbytes
    verify   = yes
    hardfail = no 


           Directory information
           ---------------------

  0 permanent = .
  0 scratch   = .




                                NWChem Input Module
                                -------------------



 Scaling coordinates for geometry "geometry" by  1.889725989
 (inverse scale =  0.529177249)

 Turning off AUTOSYM since
 SYMMETRY directive was detected!


          ------
          auto-z
          ------
  no constraints, skipping    0.0000000000000000     
  no constraints, skipping    0.0000000000000000     


                             Geometry "geometry" -> ""
                             -------------------------

 Output coordinates in angstroms (scale by  1.889725989 to convert to a.u.)

  No.       Tag          Charge          X              Y              Z
 ---- ---------------- ---------- -------------- -------------- --------------
    1 mg                  12.0000     0.00000000     0.00000000    -1.56993190
    2 o                    8.0000     0.00000000    -1.11909860    -0.11866257
    3 o                    8.0000     0.00000000     1.11909860    -0.11866257
    4 c                    6.0000     0.00000000     0.00000000     0.64501844
    5 c                    6.0000     0.00000000     0.00000000     1.97380608
    6 h                    1.0000     0.00000000    -0.92756722     2.51241846
    7 h                    1.0000     0.00000000     0.92756722     2.51241846

      Atomic Mass 
      ----------- 

      mg                23.985040
      o                 15.994910
      c                 12.000000
      h                  1.007825


 Effective nuclear repulsion energy (a.u.)     189.8004546191

            Nuclear Dipole moment (a.u.) 
            ----------------------------
        X                 Y               Z
 ---------------- ---------------- ----------------
     0.0000000000     0.0000000000     0.0000000000



                                Z-matrix (autoz)
                                -------- 

 Units are Angstrom for bonds and degrees for angles

      Type          Name      I     J     K     L     M      Value
      ----------- --------  ----- ----- ----- ----- ----- ----------
    1 Stretch                  1     2                       1.83264
    2 Stretch                  1     3                       1.83264
    3 Stretch                  1     4                       2.21495
    4 Stretch                  2     4                       1.35484
    5 Stretch                  3     4                       1.35484
    6 Stretch                  4     5                       1.32879
    7 Stretch                  5     6                       1.07261
    8 Stretch                  5     7                       1.07261
    9 Bend                     1     2     4                86.67348
   10 Bend                     1     3     4                86.67348
   11 Bend                     1     4     2                55.69009
   12 Bend                     1     4     3                55.69009
   13 Bend                     2     1     3                75.27286
   14 Bend                     2     1     4                37.63643
   15 Bend                     2     4     3               111.38018
   16 Bend                     2     4     5               124.30991
   17 Bend                     3     1     4                37.63643
   18 Bend                     3     4     5               124.30991
   19 Bend                     4     5     6               120.14254
   20 Bend                     4     5     7               120.14254
   21 Bend                     6     5     7               119.71492
   22 Torsion                  1     2     4     3           0.00000
   23 Torsion                  1     2     4     5         180.00000
   24 Torsion                  1     3     4     2           0.00000
   25 Torsion                  1     3     4     5         180.00000
   26 Torsion                  2     1     3     4           0.00000
   27 Torsion                  2     1     4     3         180.00000
   28 Torsion                  2     1     5     6           0.00000
   29 Torsion                  2     1     5     7         180.00000
   30 Torsion                  2     4     1     3         180.00000
   31 Torsion                  2     4     5     6           0.00000
   32 Torsion                  2     4     5     7         180.00000
   33 Torsion                  3     1     2     4          -0.00000
   34 Torsion                  3     1     5     6         180.00000
   35 Torsion                  3     1     5     7           0.00000
   36 Torsion                  3     4     5     6         180.00000
   37 Torsion                  3     4     5     7           0.00000
   38 Torsion                  1     4     6     5         180.00000
   39 Torsion                  1     4     7     5         180.00000


            XYZ format geometry
            -------------------
     7
 geometry
 mg                    0.00000000     0.00000000    -1.56993190
 o                     0.00000000    -1.11909860    -0.11866257
 o                     0.00000000     1.11909860    -0.11866257
 c                     0.00000000     0.00000000     0.64501844
 c                     0.00000000     0.00000000     1.97380608
 h                     0.00000000    -0.92756722     2.51241846
 h                     0.00000000     0.92756722     2.51241846

 ==============================================================================
                                internuclear distances
 ------------------------------------------------------------------------------
       center one      |      center two      | atomic units |  angstroms
 ------------------------------------------------------------------------------
    2 o                |   1 mg               |     3.46318  |     1.83264
    3 o                |   1 mg               |     3.46318  |     1.83264
    4 c                |   1 mg               |     4.18565  |     2.21495
    4 c                |   2 o                |     2.56028  |     1.35484
    4 c                |   3 o                |     2.56028  |     1.35484
    5 c                |   4 c                |     2.51104  |     1.32879
    6 h                |   5 c                |     2.02693  |     1.07261
    7 h                |   5 c                |     2.02693  |     1.07261
 ------------------------------------------------------------------------------
                         number of included internuclear distances:          8
 ==============================================================================



 ==============================================================================
                                 internuclear angles
 ------------------------------------------------------------------------------
        center 1       |       center 2       |       center 3       |  degrees
 ------------------------------------------------------------------------------
    2 o                |   1 mg               |   3 o                |    75.27
    1 mg               |   2 o                |   4 c                |    86.67
    1 mg               |   3 o                |   4 c                |    86.67
    1 mg               |   2 o                |   4 c                |    86.67
    1 mg               |   3 o                |   4 c                |    86.67
    4 c                |   2 o                |   1 mg               |    86.67
    4 c                |   3 o                |   1 mg               |    86.67
    1 mg               |   4 c                |   5 c                |   180.00
    2 o                |   4 c                |   3 o                |   111.38
    2 o                |   4 c                |   5 c                |   124.31
    3 o                |   4 c                |   5 c                |   124.31
    4 c                |   5 c                |   6 h                |   120.14
    4 c                |   5 c                |   7 h                |   120.14
    6 h                |   5 c                |   7 h                |   119.71
 ------------------------------------------------------------------------------
                            number of included internuclear angles:         14
 ==============================================================================



                      Basis "ao basis" -> "" (cartesian)
                      -----
  h (Hydrogen)
  ------------
            Exponent  Coefficients 
       -------------- ---------------------------------------------------------
  1 S  1.87311370E+01  0.033495
  1 S  2.82539370E+00  0.234727
  1 S  6.40121700E-01  0.813757

  2 S  1.61277800E-01  1.000000

  c (Carbon)
  ----------
            Exponent  Coefficients 
       -------------- ---------------------------------------------------------
  1 S  3.04752490E+03  0.001835
  1 S  4.57369510E+02  0.014037
  1 S  1.03948690E+02  0.068843
  1 S  2.92101550E+01  0.232184
  1 S  9.28666300E+00  0.467941
  1 S  3.16392700E+00  0.362312

  2 S  7.86827240E+00 -0.119332
  2 S  1.88128850E+00 -0.160854
  2 S  5.44249300E-01  1.143456

  3 P  7.86827240E+00  0.068999
  3 P  1.88128850E+00  0.316424
  3 P  5.44249300E-01  0.744308

  4 S  1.68714400E-01  1.000000

  5 P  1.68714400E-01  1.000000

  6 D  8.00000000E-01  1.000000

  mg (Magnesium)
  --------------
            Exponent  Coefficients 
       -------------- ---------------------------------------------------------
  1 S  2.42571930E+00  0.026764
  1 S  8.22625000E-01 -0.223880
  1 S  1.07749000E-01  0.620464

  2 S  3.94850000E-02  1.000000

  3 P  7.69047000E-01 -0.036648
  3 P  1.88675000E-01  0.243145
  3 P  7.51010000E-02  0.554784

  4 P  2.94970000E-02  1.000000

  o (Oxygen)
  ----------
            Exponent  Coefficients 
       -------------- ---------------------------------------------------------
  1 S  4.71055180E+01 -0.014408
  1 S  5.91134600E+00  0.129568
  1 S  9.76483000E-01 -0.563118

  2 S  2.96070000E-01  1.000000

  3 P  1.66922190E+01  0.044856
  3 P  3.90070200E+00  0.222613
  3 P  1.07825300E+00  0.500188

  4 P  2.84189000E-01  1.000000

  5 P  7.02000000E-02  1.000000



 Summary of "ao basis" -> "" (cartesian)
 ------------------------------------------------------------------------------
       Tag                 Description            Shells   Functions and Types
 ---------------- ------------------------------  ------  ---------------------
 h                           6-31g*                  2        2   2s
 c                           6-31g*                  6       15   3s2p1d
 mg                    stuttgart rlc ecp             4        8   2s2p
 o                     stuttgart rlc ecp             5       11   2s3p



 **** WARNING Zero Coefficient **** on atom "              mg"
 angular momentum value:-1  standard basis set name: "stuttgart rlc ecp"
 input line that generated warning:
  1567: 2      1.000000000            0.000000000
  
 Local ECP potential is zero and ignored
  

 **** WARNING Zero Coefficient **** on atom "               o"
 angular momentum value:-1  standard basis set name: "stuttgart rlc ecp"
 input line that generated warning:
  1519: 2      1.000000000            0.000000000
  
 Local ECP potential is zero and ignored
  
                 ECP       "ecp basis" -> "" (cartesian)
                -----
  mg (Magnesium) Replaces    10 electrons
  ---------------------------------------
             Channel    R-exponent     Exponent     Coefficients
         ------------ ---------------------------------------------------------
  1 U-s       Both         2.00        1.732000      14.676000

  2 U-p       Both         2.00        1.115000       5.175700

  3 U-d       Both         2.00        1.203000      -1.816000

  o (Oxygen) Replaces     2 electrons
  -----------------------------------
             Channel    R-exponent     Exponent     Coefficients
         ------------ ---------------------------------------------------------
  1 U-s       Both         2.00       10.445670      50.771069

  2 U-p       Both         2.00       18.045174      -4.903551

  3 U-d       Both         2.00        8.164798      -3.312124


 solvent parameters
 solvname_short: h2o     
 solvname_long:  water                              
 dielec:       78.4000
 dielecinf:     1.7769

          ---------------
          -cosmo- solvent
          ---------------
 Cosmo: York-Karplus, doi: 10.1021/jp992097l
 dielectric constant -eps-     =  78.40
 screen = (eps-1)/(eps    )    =   0.98724
 surface charge correction     = lagrangian
 -lineq- algorithm             =   0
 -bem- low  level              =   2
 -bem- from -octahedral-
 gaussian surface charge width =   0.98000
 degree of switching           =   1.00000
 switching function tolerance  =   0.00010
 atomic radii = 
 --------------
    1  2.000  1.638
    2  6.000  1.720
    3  6.000  1.720
    4  6.000  2.000
    5  6.000  2.000
    6  1.000  1.300
    7  1.000  1.300

 solvent accessible surface
 --------------------------

 ---------- ATOMIC COORDINATES (A.U.) ------------ VDWR(ANG.) --
     1    0.00000000    0.00000000   -2.96674112     1.638
     2    0.00000000   -2.11478971   -0.22423975     1.720
     3    0.00000000    2.11478971   -0.22423975     1.720
     4    0.00000000    0.00000000    1.21890810     2.000
     5    0.00000000    0.00000000    3.72995264     2.000
     6    0.00000000   -1.75284788    4.74778245     1.300
     7    0.00000000    1.75284788    4.74778245     1.300
 number of segments per atom =         32
 number of   points per atom =         32
 atom (   nspa,  nppa )
 ----------------------
    1 (     20,     0 )       0
    2 (     16,     0 )       0
    3 (     16,     0 )       0
    4 (     12,     0 )       0
    5 (     20,     0 )       0
    6 (     16,     0 )       0
    7 (     16,     0 )       0
 number of -cosmo- surface points =      116
 molecular surface =    104.636 angstrom**2
 molecular volume  =     61.213 angstrom**3
 G(cav/disp)       =      1.383 kcal/mol
 ...... end of -cosmo- initialization ......


                                 NWChem SCF Module
                                 -----------------



  ao basis        = "ao basis"
  functions       =    64
  atoms           =     7
  closed shells   =    14
  open shells     =     0
  charge          =   0.00
  wavefunction    = RHF 
  input vectors   = atomic
  output vectors  = ./cosmo_h2cco2mg_dat.movecs
  use symmetry    = F
  symmetry adapt  = F


 Summary of "ao basis" -> "ao basis" (cartesian)
 ------------------------------------------------------------------------------
       Tag                 Description            Shells   Functions and Types
 ---------------- ------------------------------  ------  ---------------------
 h                           6-31g*                  2        2   2s
 c                           6-31g*                  6       15   3s2p1d
 mg                    stuttgart rlc ecp             4        8   2s2p
 o                     stuttgart rlc ecp             5       11   2s3p



 Forming initial guess at       0.1s


      Superposition of Atomic Density Guess
      -------------------------------------

 Sum of atomic energies:        -111.84313933

      Non-variational initial energy
      ------------------------------

 Total energy =    -110.022300
 1-e energy   =    -338.559107
 2-e energy   =     135.852580
 HOMO         =      -0.248490
 LUMO         =      -0.133298


 Starting SCF solution at       0.1s



 ----------------------------------------------
         Quadratically convergent ROHF

 Convergence threshold     :          1.000E-04
 Maximum no. of iterations :           30
 Final Fock-matrix accuracy:          1.000E-07
 ----------------------------------------------

     COSMO gas phase

              iter       energy          gnorm     gmax       time
             ----- ------------------- --------- --------- --------
                 1     -109.0401914964  1.41D+00  3.81D-01      0.3
                 2     -109.1463423260  3.31D-01  9.20D-02      0.5
                 3     -109.1576005680  2.36D-02  7.87D-03      0.9
                 4     -109.1577423942  5.36D-04  1.17D-04      1.4
                 5     -109.1577424496  9.65D-06  3.47D-06      1.9
     COSMO solvation phase
 Alternative 1
 -atmefc- energy =       0.738946138182
 -elcefc- energy =      -0.991808776260
 -efcefc- energy =       0.126431319039
 -lambda- energy =       0.000000000000
 -solnrg- energy =      -0.126431319039
 -allefc- energy =      -0.252862638078     -0.252862638078
 -ecos  - energy =       0.865377457221
 Alternative 2
 -atmefc- energy =       0.738946138182
 -elcefc- energy =      -0.991808776260
 -allefc- energy =      -0.252862638078
 -solnrg- energy =      -0.126431319039
 -ecos  - energy =       0.865377457221

              iter       energy          gnorm     gmax       time
             ----- ------------------- --------- --------- --------
                 1     -109.2841737687  3.10D-01  1.35D-01      2.1
 Alternative 1
 -atmefc- energy =       0.802914115656
 -elcefc- energy =      -1.116488250200
 -efcefc- energy =       0.156787067272
 -lambda- energy =       0.000000000000
 -solnrg- energy =      -0.156787067272
 -allefc- energy =      -0.313574134544     -0.313574134544
 -ecos  - energy =       0.959701182928
 Alternative 2
 -atmefc- energy =       0.802914115656
 -elcefc- energy =      -1.116488250200
 -allefc- energy =      -0.313574134544
 -solnrg- energy =      -0.156787067272
 -ecos  - energy =       0.959701182928
 Alternative 1
 -atmefc- energy =       0.824446105639
 -elcefc- energy =      -1.163623394533
 -efcefc- energy =       0.169588644447
 -lambda- energy =      -0.000000000000
 -solnrg- energy =      -0.169588644447
 -allefc- energy =      -0.339177288895     -0.339177288895
 -ecos  - energy =       0.994034750086
 Alternative 2
 -atmefc- energy =       0.824446105639
 -elcefc- energy =      -1.163623394533
 -allefc- energy =      -0.339177288895
 -solnrg- energy =      -0.169588644447
 -ecos  - energy =       0.994034750086
                 2     -109.3070637814  1.32D-01  3.10D-02      2.3
 Alternative 1
 -atmefc- energy =       0.809031201170
 -elcefc- energy =      -1.152101596461
 -efcefc- energy =       0.171535197645
 -lambda- energy =      -0.000000000000
 -solnrg- energy =      -0.171535197645
 -allefc- energy =      -0.343070395291     -0.343070395291
 -ecos  - energy =       0.980566398815
 Alternative 2
 -atmefc- energy =       0.809031201170
 -elcefc- energy =      -1.152101596461
 -allefc- energy =      -0.343070395291
 -solnrg- energy =      -0.171535197645
 -ecos  - energy =       0.980566398815
                 3     -109.3087161523  1.58D-02  6.48D-03      2.7
 Alternative 1
 -atmefc- energy =       0.806604170529
 -elcefc- energy =      -1.152061741664
 -efcefc- energy =       0.172728785568
 -lambda- energy =      -0.000000000000
 -solnrg- energy =      -0.172728785568
 -allefc- energy =      -0.345457571136     -0.345457571136
 -ecos  - energy =       0.979332956096
 Alternative 2
 -atmefc- energy =       0.806604170529
 -elcefc- energy =      -1.152061741664
 -allefc- energy =      -0.345457571136
 -solnrg- energy =      -0.172728785568
 -ecos  - energy =       0.979332956096
                 4     -109.3087743212  3.22D-03  1.33D-03      3.3
 Alternative 1
 -atmefc- energy =       0.805789791530
 -elcefc- energy =      -1.151750352956
 -efcefc- energy =       0.172980280713
 -lambda- energy =      -0.000000000000
 -solnrg- energy =      -0.172980280713
 -allefc- energy =      -0.345960561425     -0.345960561425
 -ecos  - energy =       0.978770072243
 Alternative 2
 -atmefc- energy =       0.805789791530
 -elcefc- energy =      -1.151750352956
 -allefc- energy =      -0.345960561425
 -solnrg- energy =      -0.172980280713
 -ecos  - energy =       0.978770072243
                 5     -109.3087768686  8.22D-04  3.44D-04      4.1
 Alternative 1
 -atmefc- energy =       0.805561359475
 -elcefc- energy =      -1.151640244268
 -efcefc- energy =       0.173039442396
 -lambda- energy =       0.000000000000
 -solnrg- energy =      -0.173039442396
 -allefc- energy =      -0.346078884793     -0.346078884793
 -ecos  - energy =       0.978600801871
 Alternative 2
 -atmefc- energy =       0.805561359475
 -elcefc- energy =      -1.151640244268
 -allefc- energy =      -0.346078884793
 -solnrg- energy =      -0.173039442396
 -ecos  - energy =       0.978600801871
                 6     -109.3087770337  2.10D-04  8.95D-05      4.8
 Alternative 1
 -atmefc- energy =       0.805501751362
 -elcefc- energy =      -1.151609584300
 -efcefc- energy =       0.173053916469
 -lambda- energy =       0.000000000000
 -solnrg- energy =      -0.173053916469
 -allefc- energy =      -0.346107832938     -0.346107832938
 -ecos  - energy =       0.978555667831
 Alternative 2
 -atmefc- energy =       0.805501751362
 -elcefc- energy =      -1.151609584300
 -allefc- energy =      -0.346107832938
 -solnrg- energy =      -0.173053916469
 -ecos  - energy =       0.978555667831
                 7     -109.3087770444  5.42D-05  2.54D-05      5.2
 
                  COSMO solvation results
                  -----------------------
 
                 gas phase energy =      -109.1577424496
                 sol phase energy =      -109.3087770444
 (electrostatic) solvation energy =         0.1510345949 (   94.78 kcal/mol)


       Final RHF  results 
       ------------------ 

         Total SCF energy =   -109.308777044447
      One-electron energy =   -344.429319203971
      Two-electron energy =    141.457759885622
 Nuclear repulsion energy =     92.684226606071
             COSMO energy =      0.978555667831

        Time for solution =      5.0s


             Final eigenvalues
             -----------------

              1      
    1  -11.3193
    2  -11.1633
    3   -1.3793
    4   -1.2592
    5   -0.9695
    6   -0.7041
    7   -0.6177
    8   -0.6173
    9   -0.5693
   10   -0.5130
   11   -0.4782
   12   -0.4379
   13   -0.4337
   14   -0.2950
   15    0.0529
   16    0.0710
   17    0.0755
   18    0.1116
   19    0.2139
   20    0.2261
   21    0.2358
   22    0.2404
   23    0.2460
   24    0.2688

                       ROHF Final Molecular Orbital Analysis
                       -------------------------------------

 Vector    3  Occ=2.000000D+00  E=-1.379310D+00
              MO Center=  1.3D-17, -2.2D-12,  3.7D-02, r^2= 1.2D+00
   Bfn.  Coefficient  Atom+Function         Bfn.  Coefficient  Atom+Function  
  ----- ------------  ---------------      ----- ------------  ---------------
    10     -0.281471  2 O  s                 21     -0.281471  3 O  s          
     9      0.269303  2 O  s                 20      0.269303  3 O  s          
    32     -0.206717  4 C  s          

 Vector    4  Occ=2.000000D+00  E=-1.259152D+00
              MO Center= -7.8D-18,  2.1D-12, -2.3D-02, r^2= 1.5D+00
   Bfn.  Coefficient  Atom+Function         Bfn.  Coefficient  Atom+Function  
  ----- ------------  ---------------      ----- ------------  ---------------
    10      0.361535  2 O  s                 21     -0.361535  3 O  s          
     9     -0.310417  2 O  s                 20      0.310417  3 O  s          
    34     -0.183471  4 C  py         

 Vector    5  Occ=2.000000D+00  E=-9.695150D-01
              MO Center= -1.4D-16, -1.8D-13,  1.4D+00, r^2= 1.3D+00
   Bfn.  Coefficient  Atom+Function         Bfn.  Coefficient  Atom+Function  
  ----- ------------  ---------------      ----- ------------  ---------------
    47      0.318469  5 C  s                 51      0.283843  5 C  s          
    35      0.227199  4 C  pz                32      0.218538  4 C  s          
    46     -0.175301  5 C  s          

 Vector    6  Occ=2.000000D+00  E=-7.040587D-01
              MO Center= -9.7D-17, -9.0D-13,  8.5D-01, r^2= 3.1D+00
   Bfn.  Coefficient  Atom+Function         Bfn.  Coefficient  Atom+Function  
  ----- ------------  ---------------      ----- ------------  ---------------
    32      0.262316  4 C  s                 10     -0.234685  2 O  s          
    21     -0.234685  3 O  s                 50     -0.204783  5 C  pz         
    36      0.194671  4 C  s                 12      0.186107  2 O  py         
    23     -0.186107  3 O  py         

 Vector    7  Occ=2.000000D+00  E=-6.177078D-01
              MO Center=  8.8D-18, -4.3D-11,  6.5D-01, r^2= 2.7D+00
   Bfn.  Coefficient  Atom+Function         Bfn.  Coefficient  Atom+Function  
  ----- ------------  ---------------      ----- ------------  ---------------
    34      0.303741  4 C  py                13     -0.258244  2 O  pz         
    24      0.258244  3 O  pz                49      0.247181  5 C  py         
    16     -0.195113  2 O  pz                27      0.195113  3 O  pz         
    10      0.150355  2 O  s                 21     -0.150355  3 O  s          

 Vector    8  Occ=2.000000D+00  E=-6.173254D-01
              MO Center=  4.3D-17,  4.2D-11,  8.7D-01, r^2= 2.7D+00
   Bfn.  Coefficient  Atom+Function         Bfn.  Coefficient  Atom+Function  
  ----- ------------  ---------------      ----- ------------  ---------------
    35      0.305583  4 C  pz                50     -0.272728  5 C  pz         
    12     -0.253800  2 O  py                23      0.253800  3 O  py         
    15     -0.182850  2 O  py                26      0.182850  3 O  py         
    51     -0.153217  5 C  s          

 Vector    9  Occ=2.000000D+00  E=-5.692720D-01
              MO Center=  3.3D-16, -1.8D-12,  1.9D-01, r^2= 1.8D+00
   Bfn.  Coefficient  Atom+Function         Bfn.  Coefficient  Atom+Function  
  ----- ------------  ---------------      ----- ------------  ---------------
    11      0.325699  2 O  px                22      0.325699  3 O  px         
    33      0.282153  4 C  px                14      0.246811  2 O  px         
    25      0.246811  3 O  px                37      0.156622  4 C  px         

 Vector   10  Occ=2.000000D+00  E=-5.130052D-01
              MO Center= -3.5D-17,  4.5D-13,  1.4D+00, r^2= 2.9D+00
   Bfn.  Coefficient  Atom+Function         Bfn.  Coefficient  Atom+Function  
  ----- ------------  ---------------      ----- ------------  ---------------
    49      0.342261  5 C  py                61     -0.205664  6 H  s          
    63      0.205664  7 H  s                 34     -0.201835  4 C  py         
    62     -0.177559  6 H  s                 64      0.177559  7 H  s          
    13      0.172551  2 O  pz                24     -0.172551  3 O  pz         
    53      0.170557  5 C  py                12      0.154797  2 O  py         

 Vector   11  Occ=2.000000D+00  E=-4.782360D-01
              MO Center=  1.8D-16, -2.4D-12,  2.5D-01, r^2= 2.4D+00
   Bfn.  Coefficient  Atom+Function         Bfn.  Coefficient  Atom+Function  
  ----- ------------  ---------------      ----- ------------  ---------------
    13      0.355369  2 O  pz                24      0.355369  3 O  pz         
    16      0.284080  2 O  pz                27      0.284080  3 O  pz         
    50      0.238146  5 C  pz                35     -0.236614  4 C  pz         
     1     -0.197175  1 Mg s          

 Vector   12  Occ=2.000000D+00  E=-4.379015D-01
              MO Center= -2.3D-16,  1.4D-12, -1.1D-01, r^2= 2.0D+00
   Bfn.  Coefficient  Atom+Function         Bfn.  Coefficient  Atom+Function  
  ----- ------------  ---------------      ----- ------------  ---------------
    11      0.424208  2 O  px                22     -0.424208  3 O  px         
    14      0.362833  2 O  px                25     -0.362833  3 O  px         

 Vector   13  Occ=2.000000D+00  E=-4.337429D-01
              MO Center= -7.4D-18,  4.4D-12,  4.1D-03, r^2= 2.3D+00
   Bfn.  Coefficient  Atom+Function         Bfn.  Coefficient  Atom+Function  
  ----- ------------  ---------------      ----- ------------  ---------------
    12      0.364802  2 O  py                23      0.364802  3 O  py         
    15      0.316410  2 O  py                26      0.316410  3 O  py         
    13     -0.233461  2 O  pz                24      0.233461  3 O  pz         
    16     -0.209833  2 O  pz                27      0.209833  3 O  pz         

 Vector   14  Occ=2.000000D+00  E=-2.950379D-01
              MO Center=  1.6D-15,  4.7D-13,  1.3D+00, r^2= 2.1D+00
   Bfn.  Coefficient  Atom+Function         Bfn.  Coefficient  Atom+Function  
  ----- ------------  ---------------      ----- ------------  ---------------
    52      0.439374  5 C  px                48      0.419653  5 C  px         
    33      0.226845  4 C  px                14     -0.210520  2 O  px         
    25     -0.210520  3 O  px                11     -0.208392  2 O  px         
    22     -0.208392  3 O  px         

 Vector   15  Occ=0.000000D+00  E= 5.291735D-02
              MO Center= -4.4D-16, -5.7D-14, -3.2D+00, r^2= 6.4D+00
   Bfn.  Coefficient  Atom+Function         Bfn.  Coefficient  Atom+Function  
  ----- ------------  ---------------      ----- ------------  ---------------
     2      0.921626  1 Mg s                  8     -0.793795  1 Mg pz         
    19      0.234628  2 O  pz                30      0.234628  3 O  pz         
     1      0.191990  1 Mg s                 51     -0.192563  5 C  s          
    39      0.159350  4 C  pz                 5      0.155844  1 Mg pz         

 Vector   16  Occ=0.000000D+00  E= 7.102261D-02
              MO Center= -7.8D-16,  1.8D-14, -2.0D+00, r^2= 1.4D+01
   Bfn.  Coefficient  Atom+Function         Bfn.  Coefficient  Atom+Function  
  ----- ------------  ---------------      ----- ------------  ---------------
     6      1.250025  1 Mg px                17     -0.179354  2 O  px         
    28     -0.179354  3 O  px         

 Vector   17  Occ=0.000000D+00  E= 7.547179D-02
              MO Center= -1.7D-15, -1.2D-13, -2.2D+00, r^2= 1.5D+01
   Bfn.  Coefficient  Atom+Function         Bfn.  Coefficient  Atom+Function  
  ----- ------------  ---------------      ----- ------------  ---------------
     7      1.466447  1 Mg py                18     -0.366552  2 O  py         
    29     -0.366552  3 O  py                19     -0.154603  2 O  pz         
    30      0.154603  3 O  pz         

 Vector   18  Occ=0.000000D+00  E= 1.116248D-01
              MO Center= -1.4D-15,  8.8D-14, -5.2D-01, r^2= 1.2D+01
   Bfn.  Coefficient  Atom+Function         Bfn.  Coefficient  Atom+Function  
  ----- ------------  ---------------      ----- ------------  ---------------
     8      1.076052  1 Mg pz                 2      0.837243  1 Mg s          
    51     -0.356518  5 C  s                  5     -0.234916  1 Mg pz         
    36     -0.226265  4 C  s                 10     -0.194460  2 O  s          
    21     -0.194460  3 O  s                 19      0.160281  2 O  pz         
    30      0.160281  3 O  pz                 1      0.153095  1 Mg s          

 Vector   19  Occ=0.000000D+00  E= 2.138854D-01
              MO Center=  8.0D-17, -9.9D-13, -1.5D+00, r^2= 8.5D+00
   Bfn.  Coefficient  Atom+Function         Bfn.  Coefficient  Atom+Function  
  ----- ------------  ---------------      ----- ------------  ---------------
     2      0.804911  1 Mg s                  5      0.801906  1 Mg pz         
    18     -0.610893  2 O  py                29      0.610893  3 O  py         
     8     -0.581254  1 Mg pz                 1     -0.483272  1 Mg s          
    19      0.321340  2 O  pz                30      0.321340  3 O  pz         
    39     -0.173152  4 C  pz                54     -0.153998  5 C  pz         

 Vector   20  Occ=0.000000D+00  E= 2.261342D-01
              MO Center= -2.0D-15,  2.8D-13,  4.5D-01, r^2= 9.9D+00
   Bfn.  Coefficient  Atom+Function         Bfn.  Coefficient  Atom+Function  
  ----- ------------  ---------------      ----- ------------  ---------------
    18      0.958638  2 O  py                29      0.958638  3 O  py         
    19     -0.769951  2 O  pz                30      0.769951  3 O  pz         
     7     -0.405040  1 Mg py                38     -0.376235  4 C  py         
    15     -0.263717  2 O  py                26     -0.263717  3 O  py         
    53     -0.257305  5 C  py         

 Vector   21  Occ=0.000000D+00  E= 2.357941D-01
              MO Center=  1.3D-15, -3.4D-12,  1.2D-01, r^2= 7.7D+00
   Bfn.  Coefficient  Atom+Function         Bfn.  Coefficient  Atom+Function  
  ----- ------------  ---------------      ----- ------------  ---------------
    17      0.897398  2 O  px                28      0.897398  3 O  px         
    37     -0.882031  4 C  px                 6     -0.711224  1 Mg px         
    52      0.409342  5 C  px                33     -0.367896  4 C  px         

 Vector   22  Occ=0.000000D+00  E= 2.403668D-01
              MO Center=  6.1D-15,  1.3D-12, -5.4D-01, r^2= 9.2D+00
   Bfn.  Coefficient  Atom+Function         Bfn.  Coefficient  Atom+Function  
  ----- ------------  ---------------      ----- ------------  ---------------
    36      1.136928  4 C  s                 19     -0.937620  2 O  pz         
    30     -0.937620  3 O  pz                 2     -0.898518  1 Mg s          
    18     -0.771382  2 O  py                29      0.771382  3 O  py         
    51      0.676460  5 C  s                  5     -0.353988  1 Mg pz         
     8      0.330914  1 Mg pz                39     -0.329251  4 C  pz         

 Vector   23  Occ=0.000000D+00  E= 2.459503D-01
              MO Center=  9.9D-15,  2.0D-12, -1.2D-01, r^2= 8.5D+00
   Bfn.  Coefficient  Atom+Function         Bfn.  Coefficient  Atom+Function  
  ----- ------------  ---------------      ----- ------------  ---------------
    17      1.176514  2 O  px                28     -1.176514  3 O  px         
    14     -0.303259  2 O  px                25      0.303259  3 O  px         

 Vector   24  Occ=0.000000D+00  E= 2.688224D-01
              MO Center= -1.0D-15,  7.1D-13, -9.8D-01, r^2= 6.3D+00
   Bfn.  Coefficient  Atom+Function         Bfn.  Coefficient  Atom+Function  
  ----- ------------  ---------------      ----- ------------  ---------------
     3      1.459872  1 Mg px                17     -0.516079  2 O  px         
    28     -0.516079  3 O  px                 6     -0.397416  1 Mg px         
    52      0.286583  5 C  px                48      0.155664  5 C  px         

 Vector   25  Occ=0.000000D+00  E= 2.702629D-01
              MO Center= -5.6D-15, -3.5D-14, -7.0D-01, r^2= 1.1D+01
   Bfn.  Coefficient  Atom+Function         Bfn.  Coefficient  Atom+Function  
  ----- ------------  ---------------      ----- ------------  ---------------
     7      1.133237  1 Mg py                18     -1.061403  2 O  py         
    29     -1.061403  3 O  py                19     -0.948927  2 O  pz         
    30      0.948927  3 O  pz                53     -0.745361  5 C  py         
    62     -0.560755  6 H  s                 64      0.560755  7 H  s          
    10     -0.336006  2 O  s                 21      0.336006  3 O  s          

 Vector   26  Occ=0.000000D+00  E= 2.830523D-01
              MO Center= -3.4D-15,  6.2D-13, -2.5D-02, r^2= 5.8D+00
   Bfn.  Coefficient  Atom+Function         Bfn.  Coefficient  Atom+Function  
  ----- ------------  ---------------      ----- ------------  ---------------
     6      0.665796  1 Mg px                17     -0.499277  2 O  px         
    28     -0.499277  3 O  px                52      0.499056  5 C  px         
     3     -0.448311  1 Mg px                37     -0.411388  4 C  px         
    14      0.394433  2 O  px                25      0.394433  3 O  px         
    33     -0.305237  4 C  px                11      0.231353  2 O  px         

 Vector   27  Occ=0.000000D+00  E= 3.144139D-01
              MO Center= -1.6D-15,  7.2D-13,  1.0D+00, r^2= 7.9D+00
   Bfn.  Coefficient  Atom+Function         Bfn.  Coefficient  Atom+Function  
  ----- ------------  ---------------      ----- ------------  ---------------
    62      1.244237  6 H  s                 64      1.244237  7 H  s          
    54     -1.186155  5 C  pz                 5     -1.112392  1 Mg pz         
    39     -0.901972  4 C  pz                51     -0.780714  5 C  s          
     2     -0.581681  1 Mg s                 36     -0.288499  4 C  s          
    50     -0.195930  5 C  pz                 8      0.181836  1 Mg pz         

 Vector   28  Occ=0.000000D+00  E= 3.488113D-01
              MO Center= -4.2D-16, -4.7D-13, -6.3D-01, r^2= 8.3D+00
   Bfn.  Coefficient  Atom+Function         Bfn.  Coefficient  Atom+Function  
  ----- ------------  ---------------      ----- ------------  ---------------
     4      1.907889  1 Mg py                19     -0.930247  2 O  pz         
    30      0.930247  3 O  pz                53     -0.824757  5 C  py         
    62     -0.723531  6 H  s                 64      0.723531  7 H  s          
    18     -0.460060  2 O  py                29     -0.460060  3 O  py         
     7     -0.353861  1 Mg py                10      0.242413  2 O  s          

 Vector   29  Occ=0.000000D+00  E= 3.703326D-01
              MO Center= -3.2D-17,  3.8D-11,  3.6D-01, r^2= 9.0D+00
   Bfn.  Coefficient  Atom+Function         Bfn.  Coefficient  Atom+Function  
  ----- ------------  ---------------      ----- ------------  ---------------
    51      2.702920  5 C  s                  5     -1.403651  1 Mg pz         
    39     -1.341714  4 C  pz                62     -1.125442  6 H  s          
    64     -1.125442  7 H  s                 36     -0.875729  4 C  s          
    19      0.534419  2 O  pz                30      0.534419  3 O  pz         
     8      0.480516  1 Mg pz                54     -0.327648  5 C  pz         

 Vector   30  Occ=0.000000D+00  E= 3.722454D-01
              MO Center= -2.9D-16, -3.8D-11,  1.3D+00, r^2= 7.3D+00
   Bfn.  Coefficient  Atom+Function         Bfn.  Coefficient  Atom+Function  
  ----- ------------  ---------------      ----- ------------  ---------------
    62      1.552065  6 H  s                 64     -1.552065  7 H  s          
    19     -1.402143  2 O  pz                30      1.402143  3 O  pz         
    53      1.188372  5 C  py                 4      0.955473  1 Mg py         
    18     -0.598565  2 O  py                29     -0.598565  3 O  py         
     7      0.383103  1 Mg py                38     -0.236674  4 C  py         

 Vector   31  Occ=0.000000D+00  E= 5.007202D-01
              MO Center= -8.7D-17, -2.2D-13,  1.4D+00, r^2= 4.0D+00
   Bfn.  Coefficient  Atom+Function         Bfn.  Coefficient  Atom+Function  
  ----- ------------  ---------------      ----- ------------  ---------------
    36      4.208656  4 C  s                 54      2.559550  5 C  pz         
    51     -2.476538  5 C  s                 39      1.325629  4 C  pz         
     5     -0.533819  1 Mg pz                16     -0.465219  2 O  pz         
    27     -0.465219  3 O  pz                62     -0.376255  6 H  s          
    64     -0.376255  7 H  s                  1     -0.289330  1 Mg s          


 center of mass
 --------------
 x =   0.00000000 y =   0.00000000 z =  -0.11433758

 moments of inertia (a.u.)
 ------------------
         591.119585027575           0.000000000000           0.000000000000
           0.000000000000         441.857341447479           0.000000000000
           0.000000000000           0.000000000000         149.262243580096

  Mulliken analysis of the total density
  --------------------------------------

    Atom       Charge   Shell Charges
 -----------   ------   -------------------------------------------------------
    1 Mg   2     0.33   0.20 -0.00  0.14 -0.01
    2 O    6     6.91   0.83  1.02  2.75  2.16  0.13
    3 O    6     6.91   0.83  1.02  2.75  2.16  0.13
    4 C    6     5.51   2.00  0.68  1.85  0.33  0.47  0.18
    5 C    6     6.66   2.00  0.62  2.07  0.60  1.32  0.06
    6 H    1     0.85   0.52  0.32
    7 H    1     0.85   0.52  0.32

       Multipole analysis of the density wrt the origin
       ------------------------------------------------

     L   x y z        total         open         nuclear
     -   - - -        -----         ----         -------
     0   0 0 0      0.000000      0.000000     28.000000

     1   1 0 0     -0.000000      0.000000      0.000000
     1   0 1 0     -0.000000      0.000000      0.000000
     1   0 0 1     -5.489763      0.000000     30.564370

     2   2 0 0    -21.250556      0.000000      0.000000
     2   1 1 0     -0.000000      0.000000      0.000000
     2   1 0 1     -0.000000      0.000000      0.000000
     2   0 2 0    -29.885970      0.000000     59.812978
     2   0 1 1     -0.000000      0.000000      0.000000
     2   0 0 2     -5.932835      0.000000    155.679086

                              NWChem Gradients Module
                              -----------------------



  wavefunction    =   RHF     

nuclear repulsion gradient  
     0.000000    -0.000000     2.599494
     0.000000     8.114435     4.242213
     0.000000    -8.114435     4.242213
     0.000000     0.000000    -0.474589
     0.000000     0.000000    -7.667794
     0.000000     1.598609    -1.470769
     0.000000    -1.598609    -1.470769

weighted density gradient  
    -0.000000    -0.000000     0.040479
     0.000000     0.315843     0.146052
     0.000000    -0.315843     0.146052
     0.000000     0.000000     0.007493
    -0.000000    -0.000000    -0.170287
    -0.000000     0.165911    -0.084895
    -0.000000    -0.165911    -0.084895

kinetic energy gradient  
     0.000000     0.000000    -2.788004
    -0.000000   -17.181482    -9.322597
    -0.000000    17.181482    -9.322597
     0.000000    -0.000000    -3.059286
     0.000000     0.000000    17.699654
    -0.000000    -4.289296     3.396415
     0.000000     4.289296     3.396415

2-electron gradient  
    -0.000000    -0.000000     0.150042
     0.000000     8.734671     4.945409
     0.000000    -8.734671     4.945409
    -0.000000     0.000000     3.542451
    -0.000000    -0.000000    -9.880901
     0.000000     2.542080    -1.851205
    -0.000000    -2.542080    -1.851205

nuclear-cosmo charge gradient  
     0.000000     0.000000    -0.576127
     0.000000     0.147747     0.277363
     0.000000    -0.147747     0.277363
    -0.000000     0.000000     0.159688
    -0.000000     0.000000    -0.127323
     0.000000     0.003173    -0.005482
    -0.000000    -0.003173    -0.005482

electron-cosmo charge gradient  
    -0.000000    -0.000000     0.661941
    -0.000000    -0.141352    -0.325388
    -0.000000     0.141352    -0.325388
     0.000000    -0.000000    -0.170487
     0.000000     0.000000     0.130744
    -0.000000    -0.019839     0.014289
     0.000000     0.019839     0.014289

cosmo charge-cosmo charge gradient  
    -0.000000    -0.000000    -0.014843
     0.000000    -0.001260     0.006539
     0.000000     0.001260     0.006539
     0.000000     0.000000     0.001922
    -0.000000     0.000000    -0.000142
     0.000000     0.000001    -0.000008
    -0.000000    -0.000001    -0.000008

total RHF gradient
     0.000000     0.000000     0.072982
     0.000000    -0.011398    -0.030408
     0.000000     0.011398    -0.030408
    -0.000000    -0.000000     0.007193
    -0.000000     0.000000    -0.016050
     0.000000     0.000639    -0.001654
     0.000000    -0.000639    -0.001654



                         RHF ENERGY GRADIENTS

    atom               coordinates                        gradient
                 x          y          z           x          y          z
   1 mg      0.000000   0.000000  -2.966741    0.000000   0.000000   0.072982
   2 o       0.000000  -2.114790  -0.224240    0.000000  -0.011398  -0.030408
   3 o       0.000000   2.114790  -0.224240    0.000000   0.011398  -0.030408
   4 c       0.000000   0.000000   1.218908   -0.000000  -0.000000   0.007193
   5 c       0.000000   0.000000   3.729953   -0.000000   0.000000  -0.016050
   6 h       0.000000  -1.752848   4.747782    0.000000   0.000639  -0.001654
   7 h       0.000000   1.752848   4.747782    0.000000  -0.000639  -0.001654

                 ----------------------------------------
                 |  Time  |  1-e(secs)   |  2-e(secs)   |
                 ----------------------------------------
                 |  CPU   |       0.11   |       0.49   |
                 ----------------------------------------
                 |  WALL  |       0.12   |       0.50   |
                 ----------------------------------------

 Task  times  cpu:        5.7s     wall:        5.9s


                                NWChem Input Module
                                -------------------


 Summary of allocated global arrays
-----------------------------------
  No active global arrays



                         GA Statistics for process    0
                         ------------------------------

       create   destroy   get      put      acc     scatter   gather  read&inc
calls:  827      827     2.16e+04 2124     4374        0        0     4083     
number of processes/call 1.16e+00 1.36e+00 1.13e+00 0.00e+00 0.00e+00
bytes total:             1.77e+07 6.03e+06 5.60e+06 0.00e+00 0.00e+00 3.27e+04
bytes remote:            8.82e+06 1.08e+06 2.21e+06 0.00e+00 0.00e+00 0.00e+00
Max memory consumed for GA by this process: 174576 bytes

MA_summarize_allocated_blocks: starting scan ...
MA_summarize_allocated_blocks: scan completed: 0 heap blocks, 0 stack blocks
MA usage statistics:

	allocation statistics:
					      heap	     stack
					      ----	     -----
	current number of blocks	         0	         0
	maximum number of blocks	        41	        31
	current total bytes		         0	         0
	maximum total bytes		    229416	  32876552
	maximum total K-bytes		       230	     32877
	maximum total M-bytes		         1	        33


                                     CITATION
                                     --------
                Please cite the following reference when publishing
                           results obtained with NWChem:

                 M. Valiev, E.J. Bylaska, N. Govind, K. Kowalski,
              T.P. Straatsma, H.J.J. van Dam, D. Wang, J. Nieplocha,
                        E. Apra, T.L. Windus, W.A. de Jong
                 "NWChem: a comprehensive and scalable open-source
                  solution for large scale molecular simulations"
                      Comput. Phys. Commun. 181, 1477 (2010)
                           doi:10.1016/j.cpc.2010.04.018

                                      AUTHORS
                                      -------
          E. Apra, E. J. Bylaska, W. A. de Jong, N. Govind, K. Kowalski,
       T. P. Straatsma, M. Valiev, H. J. J. van Dam, D. Wang, T. L. Windus,
        J. Hammond, J. Autschbach, K. Bhaskaran-Nair, J. Brabec, K. Lopata,
    S. A. Fischer, S. Krishnamoorthy, M. Jacquelin, W. Ma, M. Klemm, O. Villa,
      Y. Chen, V. Anisimov, F. Aquino, S. Hirata, M. T. Hackler, V. Konjkov,
            D. Mejia-Rodriguez, T. Risthaus, M. Malagoli, A. Marenich,
   A. Otero-de-la-Roza, J. Mullin, P. Nichols, R. Peverati, J. Pittner, Y. Zhao,
        P.-D. Fan, A. Fonari, M. J. Williamson, R. J. Harrison, J. R. Rehr,
      M. Dupuis, D. Silverstein, D. M. A. Smith, J. Nieplocha, V. Tipparaju,
    M. Krishnan, B. E. Van Kuiken, A. Vazquez-Mayagoitia, L. Jensen, M. Swart,
      Q. Wu, T. Van Voorhis, A. A. Auer, M. Nooijen, L. D. Crosby, E. Brown,
      G. Cisneros, G. I. Fann, H. Fruchtl, J. Garza, K. Hirao, R. A. Kendall,
      J. A. Nichols, K. Tsemekhman, K. Wolinski, J. Anchell, D. E. Bernholdt,
      P. Borowski, T. Clark, D. Clerc, H. Dachsel, M. J. O. Deegan, K. Dyall,
    D. Elwood, E. Glendening, M. Gutowski, A. C. Hess, J. Jaffe, B. G. Johnson,
     J. Ju, R. Kobayashi, R. Kutteh, Z. Lin, R. Littlefield, X. Long, B. Meng,
      T. Nakajima, S. Niu, L. Pollack, M. Rosing, K. Glaesemann, G. Sandrone,
      M. Stave, H. Taylor, G. Thomas, J. H. van Lenthe, A. T. Wong, Z. Zhang.

 Total times  cpu:        5.8s     wall:        6.0s
