 argument  1 = /home/list1234/source/nwchem-6.8.1-release/QA/tests/cosmo_cl/cosmo_cl.nw



============================== echo of input deck ==============================
start cosmo_cl_dat
echo
title "Cl-"
geometry
  cl 0.0 0.0 0.0
end
charge -1
basis
  cl library 6-311+g*
end
cosmo
end
scf
  print cosmo_energies
end
task scf energy
================================================================================


                                         
                                         


              Northwest Computational Chemistry Package (NWChem) 6.8
              ------------------------------------------------------


                    Environmental Molecular Sciences Laboratory
                       Pacific Northwest National Laboratory
                                Richland, WA 99352

                              Copyright (c) 1994-2018
                       Pacific Northwest National Laboratory
                            Battelle Memorial Institute

             NWChem is an open-source computational chemistry package
                        distributed under the terms of the
                      Educational Community License (ECL) 2.0
             A copy of the license is included with this distribution
                              in the LICENSE.TXT file

                                  ACKNOWLEDGMENT
                                  --------------

            This software and its documentation were developed at the
            EMSL at Pacific Northwest National Laboratory, a multiprogram
            national laboratory, operated for the U.S. Department of Energy
            by Battelle under Contract Number DE-AC05-76RL01830. Support
            for this work was provided by the Department of Energy Office
            of Biological and Environmental Research, Office of Basic
            Energy Sciences, and the Office of Advanced Scientific Computing.


           Job information
           ---------------

    hostname        = list1234-B360M-H
    program         = /home/list1234/source/nwchem-6.8.1-release/bin/LINUX64/nwchem
    date            = Sun Jun 30 05:42:47 2019

    compiled        = Sun_Jun_30_05:21:11_2019
    source          = /home/list1234/source/nwchem-6.8.1-release
    nwchem branch   = Development
    nwchem revision = N/A
    ga revision     = 5.6.5
    use scalapack   = T
    input           = /home/list1234/source/nwchem-6.8.1-release/QA/tests/cosmo_cl/cosmo_cl.nw
    prefix          = cosmo_cl_dat.
    data base       = ./cosmo_cl_dat.db
    status          = startup
    nproc           =        4
    time left       =     -1s



           Memory information
           ------------------

    heap     =   86247166 doubles =    658.0 Mbytes
    stack    =   86247163 doubles =    658.0 Mbytes
    global   =  172494336 doubles =   1316.0 Mbytes (distinct from heap & stack)
    total    =  344988665 doubles =   2632.1 Mbytes
    verify   = yes
    hardfail = no 


           Directory information
           ---------------------

  0 permanent = .
  0 scratch   = .




                                NWChem Input Module
                                -------------------


                                        Cl-
                                        ---

 Scaling coordinates for geometry "geometry" by  1.889725989
 (inverse scale =  0.529177249)



                             Geometry "geometry" -> ""
                             -------------------------

 Output coordinates in angstroms (scale by  1.889725989 to convert to a.u.)

  No.       Tag          Charge          X              Y              Z
 ---- ---------------- ---------- -------------- -------------- --------------
    1 cl                  17.0000     0.00000000     0.00000000     0.00000000

      Atomic Mass 
      ----------- 

      cl                34.968850


 Effective nuclear repulsion energy (a.u.)       0.0000000000

            Nuclear Dipole moment (a.u.) 
            ----------------------------
        X                 Y               Z
 ---------------- ---------------- ----------------
     0.0000000000     0.0000000000     0.0000000000


            XYZ format geometry
            -------------------
     1
 geometry
 cl                    0.00000000     0.00000000     0.00000000

                      Basis "ao basis" -> "" (cartesian)
                      -----
  cl (Chlorine)
  -------------
            Exponent  Coefficients 
       -------------- ---------------------------------------------------------
  1 S  1.05819000E+05  0.000738
  1 S  1.58720000E+04  0.005718
  1 S  3.61965000E+03  0.029495
  1 S  1.03080000E+03  0.117286
  1 S  3.39908000E+02  0.362949
  1 S  1.24538000E+02  0.584149

  2 S  1.24538000E+02  0.134177
  2 S  4.95135000E+01  0.624250
  2 S  2.08056000E+01  0.291756

  3 S  6.58346000E+00  1.000000

  4 S  2.56468000E+00  1.000000

  5 S  5.59763000E-01  1.000000

  6 S  1.83273000E-01  1.000000

  7 P  5.89776000E+02  0.002391
  7 P  1.39849000E+02  0.018504
  7 P  4.51413000E+01  0.081377
  7 P  1.68733000E+01  0.221552
  7 P  6.74110000E+00  0.772569

  8 P  6.74110000E+00 -1.572244
  8 P  2.77152000E+00  0.992389

  9 P  1.02387000E+00  1.000000

 10 P  3.81368000E-01  1.000000

 11 P  1.09437000E-01  1.000000

 12 S  4.83000000E-02  1.000000

 13 P  4.83000000E-02  1.000000

 14 D  7.50000000E-01  1.000000



 Summary of "ao basis" -> "" (cartesian)
 ------------------------------------------------------------------------------
       Tag                 Description            Shells   Functions and Types
 ---------------- ------------------------------  ------  ---------------------
 cl                         6-311+g*                14       31   7s6p1d



 solvent parameters
 solvname_short: h2o     
 solvname_long:  water                              
 dielec:       78.4000
 dielecinf:     1.7769

          ---------------
          -cosmo- solvent
          ---------------
 Cosmo: York-Karplus, doi: 10.1021/jp992097l
 dielectric constant -eps-     =  78.40
 screen = (eps-1)/(eps    )    =   0.98724
 surface charge correction     = lagrangian
 -lineq- algorithm             =   0
 -bem- low  level              =   2
 -bem- from -octahedral-
 gaussian surface charge width =   0.98000
 degree of switching           =   1.00000
 switching function tolerance  =   0.00010
 atomic radii = 
 --------------
    1 17.000  2.050

 solvent accessible surface
 --------------------------

 ---------- ATOMIC COORDINATES (A.U.) ------------ VDWR(ANG.) --
     1    0.00000000    0.00000000    0.00000000     2.050
 number of segments per atom =         32
 number of   points per atom =         32
 atom (   nspa,  nppa )
 ----------------------
    1 (     32,     0 )       0
 number of -cosmo- surface points =       32
 molecular surface =     52.810 angstrom**2
 molecular volume  =     36.087 angstrom**3
 G(cav/disp)       =      1.124 kcal/mol
 ...... end of -cosmo- initialization ......


                                 NWChem SCF Module
                                 -----------------


                                        Cl-



  ao basis        = "ao basis"
  functions       =    31
  atoms           =     1
  closed shells   =     9
  open shells     =     0
  charge          =  -1.00
  wavefunction    = RHF 
  input vectors   = atomic
  output vectors  = ./cosmo_cl_dat.movecs
  use symmetry    = F
  symmetry adapt  = F


 Summary of "ao basis" -> "ao basis" (cartesian)
 ------------------------------------------------------------------------------
       Tag                 Description            Shells   Functions and Types
 ---------------- ------------------------------  ------  ---------------------
 cl                         6-311+g*                14       31   7s6p1d



 Forming initial guess at       0.0s


      Superposition of Atomic Density Guess
      -------------------------------------

 Sum of atomic energies:        -459.47804774

 Renormalizing density from      17.00 to     18

      Non-variational initial energy
      ------------------------------

 Total energy =    -475.352365
 1-e energy   =    -672.202919
 2-e energy   =     196.850554
 HOMO         =       0.093348
 LUMO         =       0.318290


 Starting SCF solution at       0.1s



 ----------------------------------------------
         Quadratically convergent ROHF

 Convergence threshold     :          1.000E-04
 Maximum no. of iterations :           30
 Final Fock-matrix accuracy:          1.000E-07
 ----------------------------------------------

     COSMO gas phase

              iter       energy          gnorm     gmax       time
             ----- ------------------- --------- --------- --------
                 1     -459.2135286134  3.61D+00  1.11D+00      0.2
                 2     -459.5306925527  5.67D-01  1.82D-01      0.2
                 3     -459.5630990911  2.26D-01  8.23D-02      0.2
                 4     -459.5656175819  7.83D-03  3.92D-03      0.3
                 5     -459.5656215398  5.55D-05  1.86D-05      0.4
     COSMO solvation phase
 Alternative 1
 -atmefc- energy =       4.332326036618
 -elcefc- energy =      -4.574395517570
 -efcefc- energy =       0.125575565769
 -lambda- energy =       0.004540825293
 -solnrg- energy =      -0.116493915183
 -allefc- energy =      -0.242069480952     -0.251151131537
 -ecos  - energy =       4.453360777094
 Alternative 2
 -atmefc- energy =       4.332326036618
 -elcefc- energy =      -4.574395517570
 -allefc- energy =      -0.242069480952
 -solnrg- energy =      -0.121034740476
 -ecos  - energy =       4.453360777094

              iter       energy          gnorm     gmax       time
             ----- ------------------- --------- --------- --------
                 1     -459.6866562802  6.99D-02  3.20D-02      0.4
 Alternative 1
 -atmefc- energy =       4.332326036618
 -elcefc- energy =      -4.576905817852
 -efcefc- energy =       0.125575565769
 -lambda- energy =       0.003285675151
 -solnrg- energy =      -0.119004215466
 -allefc- energy =      -0.244579781234     -0.251151131537
 -ecos  - energy =       4.454615927235
 Alternative 2
 -atmefc- energy =       4.332326036618
 -elcefc- energy =      -4.576905817852
 -allefc- energy =      -0.244579781234
 -solnrg- energy =      -0.122289890617
 -ecos  - energy =       4.454615927235
                 2     -459.6868211066  2.80D-03  1.18D-03      0.5
 Alternative 1
 -atmefc- energy =       4.332326036618
 -elcefc- energy =      -4.576973610734
 -efcefc- energy =       0.125575565769
 -lambda- energy =       0.003251778711
 -solnrg- energy =      -0.119072008347
 -allefc- energy =      -0.244647574116     -0.251151131537
 -ecos  - energy =       4.454649823676
 Alternative 2
 -atmefc- energy =       4.332326036618
 -elcefc- energy =      -4.576973610734
 -allefc- energy =      -0.244647574116
 -solnrg- energy =      -0.122323787058
 -ecos  - energy =       4.454649823676
 Alternative 1
 -atmefc- energy =       4.332326036618
 -elcefc- energy =      -4.576951062070
 -efcefc- energy =       0.125575565769
 -lambda- energy =       0.003263053042
 -solnrg- energy =      -0.119049459684
 -allefc- energy =      -0.244625025452     -0.251151131537
 -ecos  - energy =       4.454638549344
 Alternative 2
 -atmefc- energy =       4.332326036618
 -elcefc- energy =      -4.576951062070
 -allefc- energy =      -0.244625025452
 -solnrg- energy =      -0.122312512726
 -ecos  - energy =       4.454638549344
 Alternative 1
 -atmefc- energy =       4.332326036618
 -elcefc- energy =      -4.576936002425
 -efcefc- energy =       0.125575565769
 -lambda- energy =       0.003270582865
 -solnrg- energy =      -0.119034400038
 -allefc- energy =      -0.244609965807     -0.251151131537
 -ecos  - energy =       4.454631019521
 Alternative 2
 -atmefc- energy =       4.332326036618
 -elcefc- energy =      -4.576936002425
 -allefc- energy =      -0.244609965807
 -solnrg- energy =      -0.122304982903
 -ecos  - energy =       4.454631019521
 Alternative 1
 -atmefc- energy =       4.332326036618
 -elcefc- energy =      -4.576973673152
 -efcefc- energy =       0.125575565769
 -lambda- energy =       0.003251747502
 -solnrg- energy =      -0.119072070765
 -allefc- energy =      -0.244647636534     -0.251151131537
 -ecos  - energy =       4.454649854885
 Alternative 2
 -atmefc- energy =       4.332326036618
 -elcefc- energy =      -4.576973673152
 -allefc- energy =      -0.244647636534
 -solnrg- energy =      -0.122323818267
 -ecos  - energy =       4.454649854885
 Alternative 1
 -atmefc- energy =       4.332326036618
 -elcefc- energy =      -4.576951103773
 -efcefc- energy =       0.125575565769
 -lambda- energy =       0.003263032191
 -solnrg- energy =      -0.119049501386
 -allefc- energy =      -0.244625067155     -0.251151131537
 -ecos  - energy =       4.454638570195
 Alternative 2
 -atmefc- energy =       4.332326036618
 -elcefc- energy =      -4.576951103773
 -allefc- energy =      -0.244625067155
 -solnrg- energy =      -0.122312533577
 -ecos  - energy =       4.454638570195
 Alternative 1
 -atmefc- energy =       4.332326036618
 -elcefc- energy =      -4.576936030267
 -efcefc- energy =       0.125575565769
 -lambda- energy =       0.003270568944
 -solnrg- energy =      -0.119034427880
 -allefc- energy =      -0.244609993648     -0.251151131537
 -ecos  - energy =       4.454631033442
 Alternative 2
 -atmefc- energy =       4.332326036618
 -elcefc- energy =      -4.576936030267
 -allefc- energy =      -0.244609993648
 -solnrg- energy =      -0.122304996824
 -ecos  - energy =       4.454631033442
 Alternative 1
 -atmefc- energy =       4.332326036618
 -elcefc- energy =      -4.576973673188
 -efcefc- energy =       0.125575565769
 -lambda- energy =       0.003251747483
 -solnrg- energy =      -0.119072070802
 -allefc- energy =      -0.244647636570     -0.251151131537
 -ecos  - energy =       4.454649854903
 Alternative 2
 -atmefc- energy =       4.332326036618
 -elcefc- energy =      -4.576973673188
 -allefc- energy =      -0.244647636570
 -solnrg- energy =      -0.122323818285
 -ecos  - energy =       4.454649854903
 Alternative 1
 -atmefc- energy =       4.332326036618
 -elcefc- energy =      -4.576951103797
 -efcefc- energy =       0.125575565769
 -lambda- energy =       0.003263032179
 -solnrg- energy =      -0.119049501410
 -allefc- energy =      -0.244625067179     -0.251151131537
 -ecos  - energy =       4.454638570208
 Alternative 2
 -atmefc- energy =       4.332326036618
 -elcefc- energy =      -4.576951103797
 -allefc- energy =      -0.244625067179
 -solnrg- energy =      -0.122312533590
 -ecos  - energy =       4.454638570208
 Alternative 1
 -atmefc- energy =       4.332326036618
 -elcefc- energy =      -4.576936030283
 -efcefc- energy =       0.125575565769
 -lambda- energy =       0.003270568936
 -solnrg- energy =      -0.119034427896
 -allefc- energy =      -0.244609993665     -0.251151131537
 -ecos  - energy =       4.454631033451
 Alternative 2
 -atmefc- energy =       4.332326036618
 -elcefc- energy =      -4.576936030283
 -allefc- energy =      -0.244609993665
 -solnrg- energy =      -0.122304996832
 -ecos  - energy =       4.454631033451
 Alternative 1
 -atmefc- energy =       4.332326036618
 -elcefc- energy =      -4.576973673188
 -efcefc- energy =       0.125575565769
 -lambda- energy =       0.003251747483
 -solnrg- energy =      -0.119072070802
 -allefc- energy =      -0.244647636570     -0.251151131537
 -ecos  - energy =       4.454649854903
 Alternative 2
 -atmefc- energy =       4.332326036618
 -elcefc- energy =      -4.576973673188
 -allefc- energy =      -0.244647636570
 -solnrg- energy =      -0.122323818285
 -ecos  - energy =       4.454649854903
 Alternative 1
 -atmefc- energy =       4.332326036618
 -elcefc- energy =      -4.576951103797
 -efcefc- energy =       0.125575565769
 -lambda- energy =       0.003263032179
 -solnrg- energy =      -0.119049501410
 -allefc- energy =      -0.244625067179     -0.251151131537
 -ecos  - energy =       4.454638570208
 Alternative 2
 -atmefc- energy =       4.332326036618
 -elcefc- energy =      -4.576951103797
 -allefc- energy =      -0.244625067179
 -solnrg- energy =      -0.122312533590
 -ecos  - energy =       4.454638570208
 Alternative 1
 -atmefc- energy =       4.332326036618
 -elcefc- energy =      -4.576936030283
 -efcefc- energy =       0.125575565769
 -lambda- energy =       0.003270568936
 -solnrg- energy =      -0.119034427896
 -allefc- energy =      -0.244609993665     -0.251151131537
 -ecos  - energy =       4.454631033451
 Alternative 2
 -atmefc- energy =       4.332326036618
 -elcefc- energy =      -4.576936030283
 -allefc- energy =      -0.244609993665
 -solnrg- energy =      -0.122304996832
 -ecos  - energy =       4.454631033451
 Alternative 1
 -atmefc- energy =       4.332326036618
 -elcefc- energy =      -4.576973673188
 -efcefc- energy =       0.125575565769
 -lambda- energy =       0.003251747483
 -solnrg- energy =      -0.119072070802
 -allefc- energy =      -0.244647636570     -0.251151131537
 -ecos  - energy =       4.454649854903
 Alternative 2
 -atmefc- energy =       4.332326036618
 -elcefc- energy =      -4.576973673188
 -allefc- energy =      -0.244647636570
 -solnrg- energy =      -0.122323818285
 -ecos  - energy =       4.454649854903
 Alternative 1
 -atmefc- energy =       4.332326036618
 -elcefc- energy =      -4.576951103797
 -efcefc- energy =       0.125575565769
 -lambda- energy =       0.003263032179
 -solnrg- energy =      -0.119049501410
 -allefc- energy =      -0.244625067179     -0.251151131537
 -ecos  - energy =       4.454638570208
 Alternative 2
 -atmefc- energy =       4.332326036618
 -elcefc- energy =      -4.576951103797
 -allefc- energy =      -0.244625067179
 -solnrg- energy =      -0.122312533590
 -ecos  - energy =       4.454638570208
 Alternative 1
 -atmefc- energy =       4.332326036618
 -elcefc- energy =      -4.576936030283
 -efcefc- energy =       0.125575565769
 -lambda- energy =       0.003270568936
 -solnrg- energy =      -0.119034427896
 -allefc- energy =      -0.244609993665     -0.251151131537
 -ecos  - energy =       4.454631033451
 Alternative 2
 -atmefc- energy =       4.332326036618
 -elcefc- energy =      -4.576936030283
 -allefc- energy =      -0.244609993665
 -solnrg- energy =      -0.122304996832
 -ecos  - energy =       4.454631033451
 Alternative 1
 -atmefc- energy =       4.332326036618
 -elcefc- energy =      -4.576973673188
 -efcefc- energy =       0.125575565769
 -lambda- energy =       0.003251747483
 -solnrg- energy =      -0.119072070802
 -allefc- energy =      -0.244647636570     -0.251151131537
 -ecos  - energy =       4.454649854903
 Alternative 2
 -atmefc- energy =       4.332326036618
 -elcefc- energy =      -4.576973673188
 -allefc- energy =      -0.244647636570
 -solnrg- energy =      -0.122323818285
 -ecos  - energy =       4.454649854903
 Alternative 1
 -atmefc- energy =       4.332326036618
 -elcefc- energy =      -4.576951103797
 -efcefc- energy =       0.125575565769
 -lambda- energy =       0.003263032179
 -solnrg- energy =      -0.119049501410
 -allefc- energy =      -0.244625067179     -0.251151131537
 -ecos  - energy =       4.454638570208
 Alternative 2
 -atmefc- energy =       4.332326036618
 -elcefc- energy =      -4.576951103797
 -allefc- energy =      -0.244625067179
 -solnrg- energy =      -0.122312533590
 -ecos  - energy =       4.454638570208
 Alternative 1
 -atmefc- energy =       4.332326036618
 -elcefc- energy =      -4.576936030283
 -efcefc- energy =       0.125575565769
 -lambda- energy =       0.003270568936
 -solnrg- energy =      -0.119034427896
 -allefc- energy =      -0.244609993665     -0.251151131537
 -ecos  - energy =       4.454631033451
 Alternative 2
 -atmefc- energy =       4.332326036618
 -elcefc- energy =      -4.576936030283
 -allefc- energy =      -0.244609993665
 -solnrg- energy =      -0.122304996832
 -ecos  - energy =       4.454631033451
 Alternative 1
 -atmefc- energy =       4.332326036618
 -elcefc- energy =      -4.576973673188
 -efcefc- energy =       0.125575565769
 -lambda- energy =       0.003251747483
 -solnrg- energy =      -0.119072070802
 -allefc- energy =      -0.244647636570     -0.251151131537
 -ecos  - energy =       4.454649854903
 Alternative 2
 -atmefc- energy =       4.332326036618
 -elcefc- energy =      -4.576973673188
 -allefc- energy =      -0.244647636570
 -solnrg- energy =      -0.122323818285
 -ecos  - energy =       4.454649854903
                 3     -459.6867885922  1.36D-06  5.82D-07      1.1
 
                  COSMO solvation results
                  -----------------------
 
                 gas phase energy =      -459.5656215398
                 sol phase energy =      -459.6867885922
 (electrostatic) solvation energy =         0.1211670524 (   76.03 kcal/mol)


       Final RHF  results 
       ------------------ 

         Total SCF energy =   -459.686788592161
      One-electron energy =   -645.955292306319
      Two-electron energy =    181.813853859255
 Nuclear repulsion energy =      0.000000000000
             COSMO energy =      4.454649854903

        Time for solution =      0.9s


             Final eigenvalues
             -----------------

              1      
    1 -104.7408
    2  -10.4662
    3   -7.9333
    4   -7.9333
    5   -7.9333
    6   -0.9757
    7   -0.3938
    8   -0.3938
    9   -0.3938
   10    0.1104
   11    0.1276
   12    0.1276
   13    0.1276
   14    0.6248
   15    0.6248
   16    0.6248
   17    0.9562
   18    1.2286
   19    1.2286

                       ROHF Final Molecular Orbital Analysis
                       -------------------------------------

 Vector    2  Occ=2.000000D+00  E=-1.046620D+01
              MO Center= -1.7D-16, -2.3D-17,  1.8D-16, r^2= 6.5D-02
   Bfn.  Coefficient  Atom+Function         Bfn.  Coefficient  Atom+Function  
  ----- ------------  ---------------      ----- ------------  ---------------
     4      0.598500  1 Cl s                  3      0.513984  1 Cl s          
     2     -0.331695  1 Cl s          

 Vector    3  Occ=2.000000D+00  E=-7.933252D+00
              MO Center=  1.5D-17, -1.1D-17, -1.4D-16, r^2= 5.7D-02
   Bfn.  Coefficient  Atom+Function         Bfn.  Coefficient  Atom+Function  
  ----- ------------  ---------------      ----- ------------  ---------------
     9      1.227628  1 Cl pz                12      0.326343  1 Cl pz         

 Vector    4  Occ=2.000000D+00  E=-7.933252D+00
              MO Center=  1.7D-17, -3.8D-17, -2.6D-17, r^2= 5.7D-02
   Bfn.  Coefficient  Atom+Function         Bfn.  Coefficient  Atom+Function  
  ----- ------------  ---------------      ----- ------------  ---------------
     8      1.211515  1 Cl py                11      0.322059  1 Cl py         
     7     -0.204203  1 Cl px         

 Vector    5  Occ=2.000000D+00  E=-7.933252D+00
              MO Center=  1.8D-16,  3.5D-17, -4.9D-18, r^2= 5.7D-02
   Bfn.  Coefficient  Atom+Function         Bfn.  Coefficient  Atom+Function  
  ----- ------------  ---------------      ----- ------------  ---------------
     7      1.212397  1 Cl px                10      0.322294  1 Cl px         
     8      0.207447  1 Cl py         

 Vector    6  Occ=2.000000D+00  E=-9.757432D-01
              MO Center=  4.8D-16,  5.9D-16, -8.0D-16, r^2= 8.5D-01
   Bfn.  Coefficient  Atom+Function         Bfn.  Coefficient  Atom+Function  
  ----- ------------  ---------------      ----- ------------  ---------------
     6      0.583905  1 Cl s                  5      0.580248  1 Cl s          
     4     -0.395070  1 Cl s                  3     -0.210150  1 Cl s          

 Vector    7  Occ=2.000000D+00  E=-3.937673D-01
              MO Center=  2.2D-16, -1.0D-14,  2.2D-14, r^2= 1.4D+00
   Bfn.  Coefficient  Atom+Function         Bfn.  Coefficient  Atom+Function  
  ----- ------------  ---------------      ----- ------------  ---------------
    18      0.488922  1 Cl pz                21      0.378804  1 Cl pz         
     9     -0.287305  1 Cl pz                17     -0.232471  1 Cl py         
    15      0.205846  1 Cl pz                20     -0.180112  1 Cl py         

 Vector    8  Occ=2.000000D+00  E=-3.937673D-01
              MO Center= -1.0D-15, -6.9D-15, -3.8D-15, r^2= 1.4D+00
   Bfn.  Coefficient  Atom+Function         Bfn.  Coefficient  Atom+Function  
  ----- ------------  ---------------      ----- ------------  ---------------
    17      0.488687  1 Cl py                20      0.378622  1 Cl py         
     8     -0.287166  1 Cl py                18      0.227986  1 Cl pz         
    14      0.205747  1 Cl py                21      0.176637  1 Cl pz         

 Vector    9  Occ=2.000000D+00  E=-3.937673D-01
              MO Center= -2.5D-14,  1.8D-15,  2.6D-15, r^2= 1.4D+00
   Bfn.  Coefficient  Atom+Function         Bfn.  Coefficient  Atom+Function  
  ----- ------------  ---------------      ----- ------------  ---------------
    16      0.538064  1 Cl px                19      0.416878  1 Cl px         
     7     -0.316182  1 Cl px                13      0.226535  1 Cl px         

 Vector   10  Occ=0.000000D+00  E= 1.103640D-01
              MO Center=  4.5D-14,  2.3D-14, -3.8D-14, r^2= 6.8D+00
   Bfn.  Coefficient  Atom+Function         Bfn.  Coefficient  Atom+Function  
  ----- ------------  ---------------      ----- ------------  ---------------
    22      1.498176  1 Cl s                  6     -1.086340  1 Cl s          
     4      0.180813  1 Cl s                  5     -0.161321  1 Cl s          

 Vector   11  Occ=0.000000D+00  E= 1.276026D-01
              MO Center= -2.3D-14, -2.4D-15,  1.4D-14, r^2= 1.0D+01
   Bfn.  Coefficient  Atom+Function         Bfn.  Coefficient  Atom+Function  
  ----- ------------  ---------------      ----- ------------  ---------------
    23      1.386649  1 Cl px                19     -0.793700  1 Cl px         
    25     -0.705143  1 Cl pz                21      0.403615  1 Cl pz         
    24      0.176837  1 Cl py         

 Vector   12  Occ=0.000000D+00  E= 1.276026D-01
              MO Center=  4.5D-15, -3.3D-15,  8.3D-15, r^2= 1.0D+01
   Bfn.  Coefficient  Atom+Function         Bfn.  Coefficient  Atom+Function  
  ----- ------------  ---------------      ----- ------------  ---------------
    25      1.289319  1 Cl pz                21     -0.737990  1 Cl pz         
    23      0.721683  1 Cl px                24     -0.517807  1 Cl py         
    19     -0.413082  1 Cl px                20      0.296386  1 Cl py         

 Vector   13  Occ=0.000000D+00  E= 1.276026D-01
              MO Center= -2.2D-16, -4.6D-15, -1.6D-15, r^2= 1.0D+01
   Bfn.  Coefficient  Atom+Function         Bfn.  Coefficient  Atom+Function  
  ----- ------------  ---------------      ----- ------------  ---------------
    24      1.466935  1 Cl py                20     -0.839655  1 Cl py         
    25      0.540115  1 Cl pz                21     -0.309155  1 Cl pz         

 Vector   14  Occ=0.000000D+00  E= 6.248455D-01
              MO Center= -2.3D-15, -2.9D-15,  6.6D-15, r^2= 4.7D+00
   Bfn.  Coefficient  Atom+Function         Bfn.  Coefficient  Atom+Function  
  ----- ------------  ---------------      ----- ------------  ---------------
    19      1.404749  1 Cl px                21      1.353745  1 Cl pz         
    20      0.971341  1 Cl py                16     -0.773397  1 Cl px         
    18     -0.745316  1 Cl pz                23     -0.746925  1 Cl px         
    25     -0.719805  1 Cl pz                17     -0.534780  1 Cl py         
    24     -0.516476  1 Cl py         

 Vector   15  Occ=0.000000D+00  E= 6.248455D-01
              MO Center= -1.7D-15, -2.7D-16, -1.7D-15, r^2= 4.7D+00
   Bfn.  Coefficient  Atom+Function         Bfn.  Coefficient  Atom+Function  
  ----- ------------  ---------------      ----- ------------  ---------------
    19      1.543722  1 Cl px                21     -1.535517  1 Cl pz         
    16     -0.849910  1 Cl px                18      0.845392  1 Cl pz         
    23     -0.820819  1 Cl px                25      0.816456  1 Cl pz         

 Vector   16  Occ=0.000000D+00  E= 6.248455D-01
              MO Center=  7.7D-17,  1.8D-15,  6.5D-16, r^2= 4.7D+00
   Bfn.  Coefficient  Atom+Function         Bfn.  Coefficient  Atom+Function  
  ----- ------------  ---------------      ----- ------------  ---------------
    20      1.948689  1 Cl py                17     -1.072868  1 Cl py         
    24     -1.036145  1 Cl py                21     -0.747669  1 Cl pz         
    19     -0.626936  1 Cl px                18      0.411636  1 Cl pz         
    25      0.397546  1 Cl pz                16      0.345165  1 Cl px         
    23      0.333351  1 Cl px                 8      0.183529  1 Cl py         

 Vector   17  Occ=0.000000D+00  E= 9.562197D-01
              MO Center= -1.3D-15,  6.7D-16,  7.0D-17, r^2= 2.8D+00
   Bfn.  Coefficient  Atom+Function         Bfn.  Coefficient  Atom+Function  
  ----- ------------  ---------------      ----- ------------  ---------------
     6      2.918088  1 Cl s                  5     -1.208984  1 Cl s          
    22     -0.917549  1 Cl s                 26     -0.555552  1 Cl dxx        
    29     -0.555552  1 Cl dyy               31     -0.555552  1 Cl dzz        
     3      0.259392  1 Cl s          

 Vector   18  Occ=0.000000D+00  E= 1.228620D+00
              MO Center=  2.8D-15,  1.4D-15, -7.1D-15, r^2= 6.5D-01
   Bfn.  Coefficient  Atom+Function         Bfn.  Coefficient  Atom+Function  
  ----- ------------  ---------------      ----- ------------  ---------------
    31      0.990705  1 Cl dzz               29     -0.613153  1 Cl dyy        
    26     -0.377552  1 Cl dxx        

 Vector   19  Occ=0.000000D+00  E= 1.228620D+00
              MO Center= -1.2D-17,  1.2D-15, -8.9D-17, r^2= 6.5D-01
   Bfn.  Coefficient  Atom+Function         Bfn.  Coefficient  Atom+Function  
  ----- ------------  ---------------      ----- ------------  ---------------
    26      0.925988  1 Cl dxx               29     -0.789964  1 Cl dyy        


 center of mass
 --------------
 x =   0.00000000 y =   0.00000000 z =   0.00000000

 moments of inertia (a.u.)
 ------------------
           0.000000000000           0.000000000000           0.000000000000
           0.000000000000           0.000000000000           0.000000000000
           0.000000000000           0.000000000000           0.000000000000

  Mulliken analysis of the total density
  --------------------------------------

    Atom       Charge   Shell Charges
 -----------   ------   -------------------------------------------------------
    1 Cl  17    18.00   0.78  1.19  0.91  1.07  0.93  1.06  7.41 -1.49  1.01  3.03  2.05  0.03 -0.00  0.04

       Multipole analysis of the density wrt the origin
       ------------------------------------------------

     L   x y z        total         open         nuclear
     -   - - -        -----         ----         -------
     0   0 0 0     -1.000000      0.000000     17.000000

     1   1 0 0      0.000000      0.000000      0.000000
     1   0 1 0      0.000000      0.000000      0.000000
     1   0 0 1     -0.000000      0.000000      0.000000

     2   2 0 0    -12.367518      0.000000      0.000000
     2   1 1 0     -0.000000      0.000000      0.000000
     2   1 0 1     -0.000000      0.000000      0.000000
     2   0 2 0    -12.367518      0.000000      0.000000
     2   0 1 1     -0.000000      0.000000      0.000000
     2   0 0 2    -12.367518      0.000000      0.000000


 Task  times  cpu:        1.0s     wall:        1.0s


                                NWChem Input Module
                                -------------------


 Summary of allocated global arrays
-----------------------------------
  No active global arrays



                         GA Statistics for process    0
                         ------------------------------

       create   destroy   get      put      acc     scatter   gather  read&inc
calls:  621      621     4340     1753     3882        0        0     3973     
number of processes/call 1.04e+00 1.10e+00 1.02e+00 0.00e+00 0.00e+00
bytes total:             5.30e+06 3.29e+06 9.72e+05 0.00e+00 0.00e+00 3.18e+04
bytes remote:            6.92e+04 6.75e+04 3.20e+04 0.00e+00 0.00e+00 0.00e+00
Max memory consumed for GA by this process: 93456 bytes

MA_summarize_allocated_blocks: starting scan ...
MA_summarize_allocated_blocks: scan completed: 0 heap blocks, 0 stack blocks
MA usage statistics:

	allocation statistics:
					      heap	     stack
					      ----	     -----
	current number of blocks	         0	         0
	maximum number of blocks	        20	        23
	current total bytes		         0	         0
	maximum total bytes		     80120	  22509880
	maximum total K-bytes		        81	     22510
	maximum total M-bytes		         1	        23


                                     CITATION
                                     --------
                Please cite the following reference when publishing
                           results obtained with NWChem:

                 M. Valiev, E.J. Bylaska, N. Govind, K. Kowalski,
              T.P. Straatsma, H.J.J. van Dam, D. Wang, J. Nieplocha,
                        E. Apra, T.L. Windus, W.A. de Jong
                 "NWChem: a comprehensive and scalable open-source
                  solution for large scale molecular simulations"
                      Comput. Phys. Commun. 181, 1477 (2010)
                           doi:10.1016/j.cpc.2010.04.018

                                      AUTHORS
                                      -------
          E. Apra, E. J. Bylaska, W. A. de Jong, N. Govind, K. Kowalski,
       T. P. Straatsma, M. Valiev, H. J. J. van Dam, D. Wang, T. L. Windus,
        J. Hammond, J. Autschbach, K. Bhaskaran-Nair, J. Brabec, K. Lopata,
    S. A. Fischer, S. Krishnamoorthy, M. Jacquelin, W. Ma, M. Klemm, O. Villa,
      Y. Chen, V. Anisimov, F. Aquino, S. Hirata, M. T. Hackler, V. Konjkov,
            D. Mejia-Rodriguez, T. Risthaus, M. Malagoli, A. Marenich,
   A. Otero-de-la-Roza, J. Mullin, P. Nichols, R. Peverati, J. Pittner, Y. Zhao,
        P.-D. Fan, A. Fonari, M. J. Williamson, R. J. Harrison, J. R. Rehr,
      M. Dupuis, D. Silverstein, D. M. A. Smith, J. Nieplocha, V. Tipparaju,
    M. Krishnan, B. E. Van Kuiken, A. Vazquez-Mayagoitia, L. Jensen, M. Swart,
      Q. Wu, T. Van Voorhis, A. A. Auer, M. Nooijen, L. D. Crosby, E. Brown,
      G. Cisneros, G. I. Fann, H. Fruchtl, J. Garza, K. Hirao, R. A. Kendall,
      J. A. Nichols, K. Tsemekhman, K. Wolinski, J. Anchell, D. E. Bernholdt,
      P. Borowski, T. Clark, D. Clerc, H. Dachsel, M. J. O. Deegan, K. Dyall,
    D. Elwood, E. Glendening, M. Gutowski, A. C. Hess, J. Jaffe, B. G. Johnson,
     J. Ju, R. Kobayashi, R. Kutteh, Z. Lin, R. Littlefield, X. Long, B. Meng,
      T. Nakajima, S. Niu, L. Pollack, M. Rosing, K. Glaesemann, G. Sandrone,
      M. Stave, H. Taylor, G. Thomas, J. H. van Lenthe, A. T. Wong, Z. Zhang.

 Total times  cpu:        1.0s     wall:        1.0s
