 argument  1 = /home/list1234/source/nwchem-6.8.1-release/QA/tests/dft_feco5/dft_feco5.nw



============================== echo of input deck ==============================
echo

start dft_feco5

# test of DFT with Fe(CO)5 using cd basis and xc basis

# There are 2 million integrals

geometry units au
  symmetry group d3h

  fe 0.0 0.0 0.0

  c 0.0 0.0 3.414358
  o 0.0 0.0 5.591323

  c 2.4417087 2.4417087 0.0
  o 3.9810552 3.9810552 0.0
end

basis "ao basis"
  o library "DZVP (DFT Orbital)"
  c library "DZVP (DFT Orbital)"
 fe library "DZVP (DFT Orbital)"
end
basis "cd basis"
  o library "DGauss A1 DFT Coulomb Fitting"
  c library "DGauss A1 DFT Coulomb Fitting"
 fe library "DGauss A1 DFT Coulomb Fitting"
end

dft
end
title  "case t19 --- Default DFT (energy)"
task dft energy

dft
 xc becke88 perdew86
end
title "case t20 --- DFT (energy) with Becke '88 and Perdew '86"
task dft energy

dft
 xc becke88 perdew91
end
title "case t21 --- Default DFT (energy) with Becke '88 and Perdew '91"
task dft energy

basis "xc basis"
  o library "DGauss A1 DFT Exchange Fitting"
  c library "DGauss A1 DFT Exchange Fitting"
 fe library "DGauss A1 DFT Exchange Fitting"
end

dft
  xc acm
end
title "case t22 --- (acm) DFT (energy)"
task dft energy

dft
  xc b3lyp
end
title "case t23 --- (b3lyp) DFT (energy)"
task dft energy



================================================================================


                                         
                                         


              Northwest Computational Chemistry Package (NWChem) 6.8
              ------------------------------------------------------


                    Environmental Molecular Sciences Laboratory
                       Pacific Northwest National Laboratory
                                Richland, WA 99352

                              Copyright (c) 1994-2018
                       Pacific Northwest National Laboratory
                            Battelle Memorial Institute

             NWChem is an open-source computational chemistry package
                        distributed under the terms of the
                      Educational Community License (ECL) 2.0
             A copy of the license is included with this distribution
                              in the LICENSE.TXT file

                                  ACKNOWLEDGMENT
                                  --------------

            This software and its documentation were developed at the
            EMSL at Pacific Northwest National Laboratory, a multiprogram
            national laboratory, operated for the U.S. Department of Energy
            by Battelle under Contract Number DE-AC05-76RL01830. Support
            for this work was provided by the Department of Energy Office
            of Biological and Environmental Research, Office of Basic
            Energy Sciences, and the Office of Advanced Scientific Computing.


           Job information
           ---------------

    hostname        = list1234-B360M-H
    program         = /home/list1234/source/nwchem-6.8.1-release/bin/LINUX64/nwchem
    date            = Sun Jun 30 05:50:56 2019

    compiled        = Sun_Jun_30_05:21:11_2019
    source          = /home/list1234/source/nwchem-6.8.1-release
    nwchem branch   = Development
    nwchem revision = N/A
    ga revision     = 5.6.5
    use scalapack   = T
    input           = /home/list1234/source/nwchem-6.8.1-release/QA/tests/dft_feco5/dft_feco5.nw
    prefix          = dft_feco5.
    data base       = ./dft_feco5.db
    status          = startup
    nproc           =        4
    time left       =     -1s



           Memory information
           ------------------

    heap     =   86247164 doubles =    658.0 Mbytes
    stack    =   86247169 doubles =    658.0 Mbytes
    global   =  172494336 doubles =   1316.0 Mbytes (distinct from heap & stack)
    total    =  344988669 doubles =   2632.1 Mbytes
    verify   = yes
    hardfail = no 


           Directory information
           ---------------------

  0 permanent = .
  0 scratch   = .




                                NWChem Input Module
                                -------------------


 Turning off AUTOSYM since
 SYMMETRY directive was detected!


          ------
          auto-z
          ------
  Looking for out-of-plane bends
  no constraints, skipping    0.0000000000000000     
  no constraints, skipping    0.0000000000000000     


                             Geometry "geometry" -> ""
                             -------------------------

 Output coordinates in a.u. (scale by  1.000000000 to convert to a.u.)

  No.       Tag          Charge          X              Y              Z
 ---- ---------------- ---------- -------------- -------------- --------------
    1 fe                  26.0000     0.00000000     0.00000000     0.00000000
    2 c                    6.0000    -0.00000000    -0.00000000     3.41435800
    3 c                    6.0000     0.00000000    -0.00000000    -3.41435800
    4 o                    8.0000    -0.00000000    -0.00000000     5.59132300
    5 o                    8.0000     0.00000000    -0.00000000    -5.59132300
    6 c                    6.0000     2.44170870     2.44170870     0.00000000
    7 c                    6.0000    -3.33543611     0.89372741     0.00000000
    8 c                    6.0000     0.89372741    -3.33543611     0.00000000
    9 o                    8.0000     3.98105520     3.98105520     0.00000000
   10 o                    8.0000    -5.43822254     1.45716734     0.00000000
   11 o                    8.0000     1.45716734    -5.43822254     0.00000000

      Atomic Mass 
      ----------- 

      fe                55.934900
      c                 12.000000
      o                 15.994910


 Effective nuclear repulsion energy (a.u.)     798.4956180942

            Nuclear Dipole moment (a.u.) 
            ----------------------------
        X                 Y               Z
 ---------------- ---------------- ----------------
    -0.0000000000    -0.0000000000     0.0000000000

      Symmetry information
      --------------------

 Group name             D3h       
 Group number             27
 Group order              12
 No. of unique centers     5

      Symmetry unique atoms

     1    2    4    6    9



                                Z-matrix (autoz)
                                -------- 

 Units are Angstrom for bonds and degrees for angles

      Type          Name      I     J     K     L     M      Value
      ----------- --------  ----- ----- ----- ----- ----- ----------
    1 Stretch                  1     2                       1.80680
    2 Stretch                  1     3                       1.80680
    3 Stretch                  1     6                       1.82730
    4 Stretch                  1     7                       1.82730
    5 Stretch                  1     8                       1.82730
    6 Stretch                  2     4                       1.15200
    7 Stretch                  3     5                       1.15200
    8 Stretch                  6     9                       1.15200
    9 Stretch                  7    10                       1.15200
   10 Stretch                  8    11                       1.15200
   11 Bend                     2     1     6                90.00000
   12 Bend                     2     1     7                90.00000
   13 Bend                     2     1     8                90.00000
   14 Bend                     3     1     6                90.00000
   15 Bend                     3     1     7                90.00000
   16 Bend                     3     1     8                90.00000
   17 Bend                     4     1     6                90.00000
   18 Bend                     4     1     7                90.00000
   19 Bend                     4     1     8                90.00000
   20 Bend                     5     1     6                90.00000
   21 Bend                     5     1     7                90.00000
   22 Bend                     5     1     8                90.00000
   23 Bend                     6     1     7               120.00000
   24 Bend                     6     1     8               120.00000
   25 Bend                     7     1     8               120.00000
   26 Bend                     9     1     2                90.00000
   27 Bend                     9     1     3                90.00000
   28 Bend                     9     1     7               120.00000
   29 Bend                     9     1     8               120.00000
   30 Bend                    10     1     2                90.00000
   31 Bend                    10     1     3                90.00000
   32 Bend                    10     1     6               120.00000
   33 Bend                    10     1     8               120.00000
   34 Bend                    11     1     2                90.00000
   35 Bend                    11     1     3                90.00000
   36 Bend                    11     1     6               120.00000
   37 Bend                    11     1     7               120.00000
   38 Torsion                  1     2     6     9         180.00000
   39 Torsion                  1     2     7    10         180.00000
   40 Torsion                  1     2     8    11        -180.00000
   41 Torsion                  1     3     6     9        -180.00000
   42 Torsion                  1     3     7    10        -180.00000
   43 Torsion                  1     3     8    11         180.00000
   44 Torsion                  1     6     2     4         180.00000
   45 Torsion                  1     6     3     5        -180.00000
   46 Torsion                  1     6     7    10         180.00000
   47 Torsion                  1     6     8    11         180.00000
   48 Torsion                  1     7     2     4        -180.00000
   49 Torsion                  1     7     3     5         180.00000
   50 Torsion                  1     7     6     9         180.00000
   51 Torsion                  1     7     8    11         180.00000
   52 Torsion                  1     8     2     4         180.00000
   53 Torsion                  1     8     3     5        -180.00000
   54 Torsion                  1     8     6     9         180.00000
   55 Torsion                  1     8     7    10         180.00000


            XYZ format geometry
            -------------------
    11
 geometry
 fe                    0.00000000     0.00000000     0.00000000
 c                    -0.00000000    -0.00000000     1.80680057
 c                     0.00000000    -0.00000000    -1.80680057
 o                    -0.00000000    -0.00000000     2.95880092
 o                     0.00000000    -0.00000000    -2.95880092
 c                     1.29209669     1.29209669     0.00000000
 c                    -1.76503691     0.47294021     0.00000000
 c                     0.47294021    -1.76503691     0.00000000
 o                     2.10668384     2.10668384     0.00000000
 o                    -2.87778364     0.77109980     0.00000000
 o                     0.77109980    -2.87778364     0.00000000

 ==============================================================================
                                internuclear distances
 ------------------------------------------------------------------------------
       center one      |      center two      | atomic units |       a.u.
 ------------------------------------------------------------------------------
    2 c                |   1 fe               |     3.41436  |     3.41436
    3 c                |   1 fe               |     3.41436  |     3.41436
    4 o                |   2 c                |     2.17697  |     2.17697
    5 o                |   3 c                |     2.17697  |     2.17697
    6 c                |   1 fe               |     3.45310  |     3.45310
    7 c                |   1 fe               |     3.45310  |     3.45310
    8 c                |   1 fe               |     3.45310  |     3.45310
    9 o                |   6 c                |     2.17696  |     2.17696
   10 o                |   7 c                |     2.17696  |     2.17696
   11 o                |   8 c                |     2.17696  |     2.17696
 ------------------------------------------------------------------------------
                         number of included internuclear distances:         10
 ==============================================================================



 ==============================================================================
                                 internuclear angles
 ------------------------------------------------------------------------------
        center 1       |       center 2       |       center 3       |  degrees
 ------------------------------------------------------------------------------
    2 c                |   1 fe               |   3 c                |   180.00
    2 c                |   1 fe               |   6 c                |    90.00
    2 c                |   1 fe               |   7 c                |    90.00
    2 c                |   1 fe               |   8 c                |    90.00
    3 c                |   1 fe               |   6 c                |    90.00
    3 c                |   1 fe               |   7 c                |    90.00
    3 c                |   1 fe               |   8 c                |    90.00
    6 c                |   1 fe               |   7 c                |   120.00
    6 c                |   1 fe               |   8 c                |   120.00
    7 c                |   1 fe               |   8 c                |   120.00
    1 fe               |   2 c                |   4 o                |   180.00
    1 fe               |   3 c                |   5 o                |   180.00
    1 fe               |   6 c                |   9 o                |   180.00
    1 fe               |   7 c                |  10 o                |   180.00
    1 fe               |   8 c                |  11 o                |   180.00
 ------------------------------------------------------------------------------
                            number of included internuclear angles:         15
 ==============================================================================



                      Basis "ao basis" -> "" (cartesian)
                      -----
  o (Oxygen)
  ----------
            Exponent  Coefficients 
       -------------- ---------------------------------------------------------
  1 S  5.22290220E+03 -0.001936
  1 S  7.82539940E+02 -0.014851
  1 S  1.77267430E+02 -0.073319
  1 S  4.95166880E+01 -0.245116
  1 S  1.56664400E+01 -0.480285
  1 S  5.17935990E+00 -0.335943

  2 S  1.06014410E+01  0.078806
  2 S  9.42317000E-01 -0.567695

  3 S  2.77474600E-01  1.000000

  4 P  3.34241260E+01  0.017560
  4 P  7.62217140E+00  0.107630
  4 P  2.23820930E+00  0.323526
  4 P  6.86730000E-01  0.483223

  5 P  1.93813500E-01  1.000000

  6 D  8.00000000E-01  1.000000

  c (Carbon)
  ----------
            Exponent  Coefficients 
       -------------- ---------------------------------------------------------
  1 S  2.80806450E+03  0.002018
  1 S  4.21138280E+02  0.015433
  1 S  9.55866160E+01  0.075582
  1 S  2.67390040E+01  0.247828
  1 S  8.43282680E+00  0.479373
  1 S  2.76058210E+00  0.333834

  2 S  5.44700450E+00 -0.077841
  2 S  4.79242200E-01  0.568956

  3 S  1.46156500E-01  1.000000

  4 P  1.81308520E+01  0.015855
  4 P  4.09988320E+00  0.095683
  4 P  1.18583700E+00  0.304912
  4 P  3.68597400E-01  0.493502

  5 P  1.09720000E-01  1.000000

  6 D  6.00000000E-01  1.000000

  fe (Iron)
  ---------
            Exponent  Coefficients 
       -------------- ---------------------------------------------------------
  1 S  6.14302270E+04  0.001756
  1 S  9.22217600E+03  0.013417
  1 S  2.09759690E+03  0.066695
  1 S  5.91490400E+02  0.228205
  1 S  1.91860620E+02  0.469450
  1 S  6.58263280E+01  0.363557

  2 S  1.28740740E+02 -0.104917
  2 S  1.47181330E+01  0.617962
  2 S  5.95075430E+00  0.456009

  3 S  1.08598790E+01  0.218492
  3 S  1.71944710E+00 -0.711331
  3 S  6.66453200E-01 -0.418695

  4 S  9.75476100E-01 -0.144105
  4 S  1.23114300E-01  0.595813

  5 S  4.48795000E-02  1.000000

  6 P  7.80620300E+02 -0.009122
  6 P  1.84006220E+02 -0.068004
  6 P  5.80844670E+01 -0.259768
  6 P  2.07597950E+01 -0.506014
  6 P  7.59345150E+00 -0.341908

  7 P  4.02791730E+00 -0.327296
  7 P  1.52647000E+00 -0.548150
  7 P  5.57370200E-01 -0.250663

  8 P  1.21000000E-01  1.000000

  9 D  2.39293160E+01 -0.063492
  9 D  6.39990130E+00 -0.278391
  9 D  1.93174170E+00 -0.493820
  9 D  5.11527900E-01 -0.486269

 10 D  9.00000000E-02  1.000000



 Summary of "ao basis" -> "" (cartesian)
 ------------------------------------------------------------------------------
       Tag                 Description            Shells   Functions and Types
 ---------------- ------------------------------  ------  ---------------------
 o                     DZVP (DFT Orbital)            6       15   3s2p1d
 c                     DZVP (DFT Orbital)            6       15   3s2p1d
 fe                    DZVP (DFT Orbital)           10       26   5s3p2d


                      Basis "cd basis" -> "" (cartesian)
                      -----
  o (Oxygen)
  ----------
            Exponent  Coefficients 
       -------------- ---------------------------------------------------------
  1 S  2.00000000E+03  1.000000

  2 S  4.00000000E+02  1.000000

  3 S  1.00000000E+02  1.000000

  4 S  2.50000000E+01  1.000000

  5 S  7.80000000E+00  1.000000

  6 P  7.80000000E+00  1.000000

  7 S  1.56000000E+00  1.000000

  8 P  1.56000000E+00  1.000000

  9 S  3.90000000E-01  1.000000

 10 P  3.90000000E-01  1.000000

 11 D  7.80000000E+00  1.000000

 12 D  1.56000000E+00  1.000000

 13 D  3.90000000E-01  1.000000

  c (Carbon)
  ----------
            Exponent  Coefficients 
       -------------- ---------------------------------------------------------
  1 S  1.11400000E+03  1.000000

  2 S  2.23000000E+02  1.000000

  3 S  5.57200000E+01  1.000000

  4 S  1.39000000E+01  1.000000

  5 S  4.40000000E+00  1.000000

  6 P  4.40000000E+00  1.000000

  7 S  8.70000000E-01  1.000000

  8 P  8.70000000E-01  1.000000

  9 S  2.20000000E-01  1.000000

 10 P  2.20000000E-01  1.000000

 11 D  4.40000000E+00  1.000000

 12 D  8.70000000E-01  1.000000

 13 D  2.20000000E-01  1.000000

  fe (Iron)
  ---------
            Exponent  Coefficients 
       -------------- ---------------------------------------------------------
  1 S  4.40000000E+04  1.000000

  2 S  8.80000000E+03  1.000000

  3 S  2.20000000E+03  1.000000

  4 S  5.50000000E+02  1.000000

  5 S  1.37000000E+02  1.000000

  6 S  4.32000000E+01  1.000000

  7 P  4.32000000E+01  1.000000

  8 S  8.60000000E+00  1.000000

  9 P  8.60000000E+00  1.000000

 10 S  2.20000000E+00  1.000000

 11 P  2.20000000E+00  1.000000

 12 S  5.40000000E-01  1.000000

 13 P  5.40000000E-01  1.000000

 14 S  1.35000000E-01  1.000000

 15 P  1.35000000E-01  1.000000

 16 D  4.32000000E+01  1.000000

 17 D  8.60000000E+00  1.000000

 18 D  2.20000000E+00  1.000000

 19 D  5.40000000E-01  1.000000

 20 D  1.35000000E-01  1.000000



 Summary of "cd basis" -> "" (cartesian)
 ------------------------------------------------------------------------------
       Tag                 Description            Shells   Functions and Types
 ---------------- ------------------------------  ------  ---------------------
 o                DGauss A1 DFT Coulomb Fitting     13       34   7s3p3d
 c                DGauss A1 DFT Coulomb Fitting     13       34   7s3p3d
 fe               DGauss A1 DFT Coulomb Fitting     20       55   10s5p5d


                         case t19 --- Default DFT (energy)
                         ---------------------------------

                                 NWChem DFT Module
                                 -----------------


                         case t19 --- Default DFT (energy)




 Summary of "ao basis" -> "ao basis" (cartesian)
 ------------------------------------------------------------------------------
       Tag                 Description            Shells   Functions and Types
 ---------------- ------------------------------  ------  ---------------------
 o                     DZVP (DFT Orbital)            6       15   3s2p1d
 c                     DZVP (DFT Orbital)            6       15   3s2p1d
 fe                    DZVP (DFT Orbital)           10       26   5s3p2d


      Symmetry analysis of basis
      --------------------------

        a1'        39
        a1"         2
        a2'         6
        a2"        23
        e'         70
        e"         36

  Caching 1-el integrals 
  Rotation of axis 

            General Information
            -------------------
          SCF calculation type: DFT
          Wavefunction type:  closed shell.
          No. of atoms     :    11
          No. of electrons :    96
           Alpha electrons :    48
            Beta electrons :    48
          Charge           :     0
          Spin multiplicity:     1
          Use of symmetry is: on ; symmetry adaption is: on 
          Maximum number of iterations:  30
          AO basis - number of functions:   176
                     number of shells:    70
          A Charge density fitting basis will be used.
          CD basis - number of functions:   395
                     number of shells:   150
          Convergence on energy requested:  1.00D-06
          Convergence on density requested:  1.00D-05
          Convergence on gradient requested:  5.00D-04

              XC Information
              --------------
                        Slater Exchange Functional  1.000 local    
                      VWN V Correlation Functional  1.000 local    

             Grid Information
             ----------------
          Grid used for XC integration:  medium    
          Radial quadrature: Mura-Knowles        
          Angular quadrature: Lebedev. 
          Tag              B.-S. Rad. Rad. Pts. Rad. Cut. Ang. Pts.
          ---              ---------- --------- --------- ---------
          fe                  1.40      112           8.0       590
          c                   0.70       49          11.0       434
          o                   0.60       49          13.0       434
          Grid pruning is: on 
          Number of quadrature shells:   308
          Spatial weights used:  Erf1

          Convergence Information
          -----------------------
          Convergence aids based upon iterative change in 
          total energy or number of iterations. 
          Levelshifting, if invoked, occurs when the 
          HOMO/LUMO gap drops below (HL_TOL):  1.00D-02
          DIIS, if invoked, will attempt to extrapolate 
          using up to (NFOCK): 10 stored Fock matrices.

                    Damping( 0%)  Levelshifting(0.5)       DIIS
                  --------------- ------------------- ---------------
          dE  on:    start            ASAP                start   
          dE off:    2 iters         30 iters            30 iters 


      Screening Tolerance Information
      -------------------------------
          Density screening/tol_rho:  1.00D-10
          AO Gaussian exp screening on grid/accAOfunc:  14
          CD Gaussian exp screening on grid/accCDfunc:  20
          XC Gaussian exp screening on grid/accXCfunc:  20
          Schwarz screening/accCoul:  1.00D-08


      Superposition of Atomic Density Guess
      -------------------------------------

 Sum of atomic energies:       -1824.13130503

      Non-variational initial energy
      ------------------------------

 Total energy =   -1827.679833
 1-e energy   =   -4099.408592
 2-e energy   =    1473.233141
 HOMO         =      -0.328823
 LUMO         =      -0.090738


      Symmetry analysis of molecular orbitals - initial
      -------------------------------------------------

  Numbering of irreducible representations: 

     1 a1'         2 a1"         3 a2'         4 a2"         5 e'      
     6 e"      

  Orbital symmetries:

     1 a1'         2 a1'         3 a2"         4 e'          5 e'      
     6 a1'         7 a2"         8 a1'         9 e'         10 e'      
    11 a1'        12 a2"        13 a1'        14 e'         15 e'      
    16 a1'        17 a2"        18 e'         19 e'         20 a1'     
    21 a2"        22 e'         23 e'         24 a1'        25 a1'     
    26 e'         27 e'         28 a2"        29 a1'        30 a1'     
    31 e"         32 e"         33 e'         34 e'         35 a2"     
    36 e'         37 e'         38 a2'        39 a1'        40 e"      
    41 e"         42 e'         43 e'         44 a2"        45 e"      
    46 e"         47 e'         48 e'         49 a1'        50 e"      
    51 e"         52 e'         53 e'         54 a2"        55 a2'     
    56 e'         57 e'         58 a1'     

   Time after variat. SCF:      0.7

      3 Center 2 Electron Integral Information
      ----------------------------------------
          Maximum number of 3-center 2e- integrals is:        12235520.
            This is reduced with Schwarz screening to:         5806895.
            Incore requires a per proc buffer size of:         1551166.
          Minimum dble words available (all nodes) is:       172479700
                   This is reduced (for later use) to:       172096079
                      proc 0 Suggested buffer size is:         1551166
                         Max Suggested buffer size is:         1551166
                              no. integral batches is:            1000

           1.551 MW buffer allocated for incore 3-center 
          2e- integral storage on stack. 
   Time prior to 1st pass:      0.8

 Grid_pts file          = ./dft_feco5.gridpts.0
 Record size in doubles =  12289        No. of grid_pts per rec  =   3070
 Max. records in memory =     18        Max. recs in file   = 253312716


           Memory utilization after 1st SCF pass: 
           Heap Space remaining (MW):       51.90            51902892
          Stack Space remaining (MW):       84.69            84693764

   convergence    iter        energy       DeltaE   RMS-Dens  Diis-err    time
 ---------------- ----- ----------------- --------- --------- ---------  ------
 d= 0,ls=0.0,diis     1  -1822.8238770427 -2.62D+03  6.20D-02  9.95D+00     0.9
 d= 0,ls=0.0,diis     2  -1811.2269257119  1.16D+01  7.18D-02  6.78D+01     1.0
 d= 0,ls=0.0,diis     3  -1819.6761944281 -8.45D+00  9.88D-03  3.75D+01     1.1
 d= 0,ls=0.0,diis     4  -1821.7870721203 -2.11D+00  3.10D-03  1.88D+01     1.1
 d= 0,ls=0.0,diis     5  -1821.2546113008  5.32D-01  3.05D-03  2.34D+01     1.2
 d= 0,ls=0.0,diis     6  -1821.5446547181 -2.90D-01  4.72D-03  2.13D+01     1.3
 d= 0,ls=0.0,diis     7  -1821.9353968666 -3.91D-01  5.47D-03  1.80D+01     1.3
 d= 0,ls=0.0,diis     8  -1821.6794324733  2.56D-01  2.03D-03  1.97D+01     1.4
 d= 0,ls=0.0,diis     9  -1821.7478980869 -6.85D-02  2.58D-05  1.90D+01     1.5
  Resetting Diis
 d= 0,ls=0.0,diis    10  -1821.7460932772  1.80D-03  1.30D-03  1.90D+01     1.6
 d= 0,ls=0.0,diis    11  -1821.6761347676  7.00D-02  9.38D-02  1.95D+01     1.6
 d= 0,ls=0.0,diis    12  -1802.9471189805  1.87D+01  6.83D-02  1.55D+02     1.7
 d= 0,ls=0.0,diis    13  -1816.8592949964 -1.39D+01  4.31D-02  5.88D+01     1.8
 d= 0,ls=0.0,diis    14  -1823.2755143358 -6.42D+00  1.45D-02  2.91D+00     1.9
 d= 0,ls=0.0,diis    15  -1823.5345050568 -2.59D-01  5.27D-03  1.41D+00     1.9
 d= 0,ls=0.0,diis    16  -1823.6259859641 -9.15D-02  2.99D-03  4.64D-01     2.0
 d= 0,ls=0.0,diis    17  -1823.6660526067 -4.01D-02  9.38D-04  1.87D-01     2.1
 d= 0,ls=0.0,diis    18  -1823.6490586318  1.70D-02  1.03D-03  4.07D-01     2.2
 d= 0,ls=0.0,diis    19  -1823.6668447457 -1.78D-02  1.69D-03  1.72D-01     2.2
 d= 0,ls=0.0,diis    20  -1823.6800555866 -1.32D-02  1.69D-04  1.56D-03     2.3
 d= 0,ls=0.0,diis    21  -1823.6802016617 -1.46D-04  2.71D-05  1.25D-05     2.4
 d= 0,ls=0.0,diis    22  -1823.6801989761  2.69D-06  2.46D-05  5.20D-05     2.5
 d= 0,ls=0.0,diis    23  -1823.6802027456 -3.77D-06  6.15D-06  2.21D-06     2.5
 d= 0,ls=0.0,diis    24  -1823.6802029126 -1.67D-07  9.87D-08  5.36D-10     2.6


         Total DFT energy =    -1823.680202912582
      One electron energy =    -4105.877364879233
           Coulomb energy =     1601.847599085701
    Exchange-Corr. energy =     -118.146055213241
 Nuclear repulsion energy =      798.495618094190

 Numeric. integr. density =       95.999997054256

     Total iterative time =      1.8s



                  Occupations of the irreducible representations
                  ----------------------------------------------

                     irrep           alpha         beta
                     --------     --------     --------
                     a1'              13.0         13.0
                     a1"               0.0          0.0
                     a2'               1.0          1.0
                     a2"               8.0          8.0
                     e'               20.0         20.0
                     e"                6.0          6.0


                       DFT Final Molecular Orbital Analysis
                       ------------------------------------

 Vector    1  Occ=2.000000D+00  E=-2.541970D+02  Symmetry=a1'
              MO Center= -8.1D-20, -4.8D-20,  3.2D-20, r^2= 1.3D-03
   Bfn.  Coefficient  Atom+Function         Bfn.  Coefficient  Atom+Function  
  ----- ------------  ---------------      ----- ------------  ---------------
     1      0.995585   1 Fe s                 4     -0.030308   1 Fe s         

 Vector    2  Occ=2.000000D+00  E=-2.955251D+01  Symmetry=a1'
              MO Center=  2.0D-21,  2.6D-21, -2.4D-21, r^2= 2.4D-02
   Bfn.  Coefficient  Atom+Function         Bfn.  Coefficient  Atom+Function  
  ----- ------------  ---------------      ----- ------------  ---------------
     2      1.045683   1 Fe s                 1     -0.332832   1 Fe s         

 Vector    3  Occ=2.000000D+00  E=-2.556163D+01  Symmetry=a2"
              MO Center=  1.5D-20, -6.1D-20,  3.0D-17, r^2= 1.9D-02
   Bfn.  Coefficient  Atom+Function         Bfn.  Coefficient  Atom+Function  
  ----- ------------  ---------------      ----- ------------  ---------------
     8      0.993895   1 Fe pz        

 Vector    4  Occ=2.000000D+00  E=-2.554755D+01  Symmetry=e'
              MO Center= -2.3D-07, -6.5D-06, -5.8D-22, r^2= 1.9D-02
   Bfn.  Coefficient  Atom+Function         Bfn.  Coefficient  Atom+Function  
  ----- ------------  ---------------      ----- ------------  ---------------
     7      0.911521   1 Fe py                6     -0.396446   1 Fe px        

 Vector    5  Occ=2.000000D+00  E=-2.554755D+01  Symmetry=e'
              MO Center=  2.3D-07,  6.5D-06, -9.2D-22, r^2= 1.9D-02
   Bfn.  Coefficient  Atom+Function         Bfn.  Coefficient  Atom+Function  
  ----- ------------  ---------------      ----- ------------  ---------------
     6      0.911521   1 Fe px                7      0.396446   1 Fe py        

 Vector    6  Occ=2.000000D+00  E=-1.872439D+01  Symmetry=a1'
              MO Center=  5.0D-19, -1.5D-17,  4.9D-10, r^2= 8.8D+00
   Bfn.  Coefficient  Atom+Function         Bfn.  Coefficient  Atom+Function  
  ----- ------------  ---------------      ----- ------------  ---------------
    57      0.705566   4 O  s                72      0.705566   5 O  s         

 Vector    7  Occ=2.000000D+00  E=-1.872439D+01  Symmetry=a2"
              MO Center=  2.3D-18,  2.9D-18, -4.9D-10, r^2= 8.8D+00
   Bfn.  Coefficient  Atom+Function         Bfn.  Coefficient  Atom+Function  
  ----- ------------  ---------------      ----- ------------  ---------------
    57      0.705517   4 O  s                72     -0.705517   5 O  s         

 Vector    8  Occ=2.000000D+00  E=-1.871442D+01  Symmetry=a1'
              MO Center=  1.0D-08, -6.8D-09,  7.6D-17, r^2= 8.9D+00
   Bfn.  Coefficient  Atom+Function         Bfn.  Coefficient  Atom+Function  
  ----- ------------  ---------------      ----- ------------  ---------------
   132      0.576074   9 O  s               147      0.576074  10 O  s         
   162      0.576074  11 O  s         

 Vector    9  Occ=2.000000D+00  E=-1.871442D+01  Symmetry=e'
              MO Center= -7.7D-01, -1.3D+00, -3.1D-18, r^2= 6.7D+00
   Bfn.  Coefficient  Atom+Function         Bfn.  Coefficient  Atom+Function  
  ----- ------------  ---------------      ----- ------------  ---------------
   162      0.749001  11 O  s               147     -0.651965  10 O  s         
   132     -0.097037   9 O  s         

 Vector   10  Occ=2.000000D+00  E=-1.871442D+01  Symmetry=e'
              MO Center=  7.7D-01,  1.3D+00,  2.7D-18, r^2= 6.7D+00
   Bfn.  Coefficient  Atom+Function         Bfn.  Coefficient  Atom+Function  
  ----- ------------  ---------------      ----- ------------  ---------------
   132      0.808848   9 O  s               147     -0.488460  10 O  s         
   162     -0.320388  11 O  s         

 Vector   11  Occ=2.000000D+00  E=-9.950001D+00  Symmetry=a1'
              MO Center=  7.4D-17, -1.0D-16,  8.3D-11, r^2= 3.3D+00
   Bfn.  Coefficient  Atom+Function         Bfn.  Coefficient  Atom+Function  
  ----- ------------  ---------------      ----- ------------  ---------------
    27      0.705770   2 C  s                42      0.705770   3 C  s         

 Vector   12  Occ=2.000000D+00  E=-9.949997D+00  Symmetry=a2"
              MO Center= -5.3D-22,  9.2D-22, -8.3D-11, r^2= 3.3D+00
   Bfn.  Coefficient  Atom+Function         Bfn.  Coefficient  Atom+Function  
  ----- ------------  ---------------      ----- ------------  ---------------
    27      0.705656   2 C  s                42     -0.705656   3 C  s         

 Vector   13  Occ=2.000000D+00  E=-9.938565D+00  Symmetry=a1'
              MO Center= -4.1D-16,  1.6D-16, -3.8D-22, r^2= 3.4D+00
   Bfn.  Coefficient  Atom+Function         Bfn.  Coefficient  Atom+Function  
  ----- ------------  ---------------      ----- ------------  ---------------
    87      0.576226   6 C  s               102      0.576226   7 C  s         
   117      0.576226   8 C  s         

 Vector   14  Occ=2.000000D+00  E=-9.938562D+00  Symmetry=e'
              MO Center= -4.6D-01, -7.9D-01,  7.3D-22, r^2= 2.5D+00
   Bfn.  Coefficient  Atom+Function         Bfn.  Coefficient  Atom+Function  
  ----- ------------  ---------------      ----- ------------  ---------------
   117      0.751329   8 C  s               102     -0.648737   7 C  s         
    87     -0.102593   6 C  s         

 Vector   15  Occ=2.000000D+00  E=-9.938562D+00  Symmetry=e'
              MO Center=  4.6D-01,  7.9D-01,  1.1D-17, r^2= 2.5D+00
   Bfn.  Coefficient  Atom+Function         Bfn.  Coefficient  Atom+Function  
  ----- ------------  ---------------      ----- ------------  ---------------
    87      0.808328   6 C  s               102     -0.493012   7 C  s         
   117     -0.315316   8 C  s         

 Vector   16  Occ=2.000000D+00  E=-3.312084D+00  Symmetry=a1'
              MO Center= -6.3D-20, -2.4D-19, -1.5D-17, r^2= 2.2D-01
   Bfn.  Coefficient  Atom+Function         Bfn.  Coefficient  Atom+Function  
  ----- ------------  ---------------      ----- ------------  ---------------
     3      1.123992   1 Fe s                 2      0.466397   1 Fe s         
     1     -0.126940   1 Fe s                 4     -0.046901   1 Fe s         

 Vector   17  Occ=2.000000D+00  E=-2.161250D+00  Symmetry=a2"
              MO Center= -8.1D-17,  4.8D-18, -1.4D-16, r^2= 2.5D-01
   Bfn.  Coefficient  Atom+Function         Bfn.  Coefficient  Atom+Function  
  ----- ------------  ---------------      ----- ------------  ---------------
    11      1.073643   1 Fe pz                8     -0.405669   1 Fe pz        
    14      0.048940   1 Fe pz               29     -0.032350   2 C  s         
    44      0.032350   3 C  s         

 Vector   18  Occ=2.000000D+00  E=-2.132708D+00  Symmetry=e'
              MO Center=  1.7D-03, -1.6D-03,  6.0D-18, r^2= 2.5D-01
   Bfn.  Coefficient  Atom+Function         Bfn.  Coefficient  Atom+Function  
  ----- ------------  ---------------      ----- ------------  ---------------
    10      1.073999   1 Fe py                7     -0.405686   1 Fe py        
   119      0.030531   8 C  s                13      0.027355   1 Fe py        

 Vector   19  Occ=2.000000D+00  E=-2.132708D+00  Symmetry=e'
              MO Center= -1.7D-03,  1.6D-03, -1.5D-17, r^2= 2.5D-01
   Bfn.  Coefficient  Atom+Function         Bfn.  Coefficient  Atom+Function  
  ----- ------------  ---------------      ----- ------------  ---------------
     9      1.073999   1 Fe px                6     -0.405686   1 Fe px        
   104      0.030640   7 C  s                12      0.027355   1 Fe px        

 Vector   20  Occ=2.000000D+00  E=-1.070170D+00  Symmetry=a1'
              MO Center=  1.8D-18, -4.0D-18,  1.2D-16, r^2= 7.3D+00
   Bfn.  Coefficient  Atom+Function         Bfn.  Coefficient  Atom+Function  
  ----- ------------  ---------------      ----- ------------  ---------------
    58      0.318095   4 O  s                73      0.318095   5 O  s         
    59     -0.195533   4 O  s                74     -0.195533   5 O  s         
    32     -0.167651   2 C  pz               47      0.167651   3 C  pz        
    28     -0.164725   2 C  s                43     -0.164725   3 C  s         
    57     -0.149923   4 O  s                62      0.149495   4 O  pz        

 Vector   21  Occ=2.000000D+00  E=-1.070008D+00  Symmetry=a2"
              MO Center= -8.8D-16, -4.3D-16, -1.4D-14, r^2= 7.3D+00
   Bfn.  Coefficient  Atom+Function         Bfn.  Coefficient  Atom+Function  
  ----- ------------  ---------------      ----- ------------  ---------------
    58      0.321424   4 O  s                73     -0.321424   5 O  s         
    59     -0.185899   4 O  s                74      0.185899   5 O  s         
    32     -0.168290   2 C  pz               47     -0.168290   3 C  pz        
    28     -0.166752   2 C  s                43      0.166752   3 C  s         
    57     -0.150223   4 O  s                62      0.149759   4 O  pz        

 Vector   22  Occ=2.000000D+00  E=-1.059564D+00  Symmetry=a1'
              MO Center= -3.2D-17,  3.1D-16,  1.4D-14, r^2= 7.4D+00
   Bfn.  Coefficient  Atom+Function         Bfn.  Coefficient  Atom+Function  
  ----- ------------  ---------------      ----- ------------  ---------------
   133      0.261936   9 O  s               148      0.261936  10 O  s         
   163      0.261936  11 O  s               134     -0.148088   9 O  s         
   149     -0.148088  10 O  s               164     -0.148088  11 O  s         
    88     -0.133087   6 C  s               103     -0.133087   7 C  s         
   118     -0.133087   8 C  s               105      0.131405   7 C  px        

 Vector   23  Occ=2.000000D+00  E=-1.059528D+00  Symmetry=e'
              MO Center=  6.5D-01, -1.1D+00, -9.3D-20, r^2= 5.6D+00
   Bfn.  Coefficient  Atom+Function         Bfn.  Coefficient  Atom+Function  
  ----- ------------  ---------------      ----- ------------  ---------------
   163      0.366282  11 O  s               164     -0.225980  11 O  s         
   133     -0.224161   9 O  s               118     -0.189972   8 C  s         
   121      0.186478   8 C  py              162     -0.172658  11 O  s         
   166     -0.165004  11 O  py              148     -0.142120  10 O  s         
   134      0.138298   9 O  s                88      0.116261   6 C  s         

 Vector   24  Occ=2.000000D+00  E=-1.059528D+00  Symmetry=e'
              MO Center= -6.5D-01,  1.1D+00,  7.5D-16, r^2= 5.6D+00
   Bfn.  Coefficient  Atom+Function         Bfn.  Coefficient  Atom+Function  
  ----- ------------  ---------------      ----- ------------  ---------------
   148      0.340892  10 O  s               133     -0.293526   9 O  s         
   149     -0.210316  10 O  s               134      0.181092   9 O  s         
   103     -0.176803   7 C  s               105      0.173521   7 C  px        
   147     -0.160690  10 O  s               150     -0.153553  10 O  px        
    88      0.152237   6 C  s               132      0.138362   9 O  s         

 Vector   25  Occ=2.000000D+00  E=-5.739279D-01  Symmetry=a1'
              MO Center= -3.9D-14, -1.6D-14, -2.1D-14, r^2= 4.6D+00
   Bfn.  Coefficient  Atom+Function         Bfn.  Coefficient  Atom+Function  
  ----- ------------  ---------------      ----- ------------  ---------------
     3      0.271574   1 Fe s                28      0.216002   2 C  s         
    43      0.216002   3 C  s                29      0.185920   2 C  s         
    44      0.185920   3 C  s                59     -0.142342   4 O  s         
    74     -0.142342   5 O  s                88      0.140115   6 C  s         
   103      0.140115   7 C  s               118      0.140115   8 C  s         

 Vector   26  Occ=2.000000D+00  E=-5.307929D-01  Symmetry=a2"
              MO Center=  6.2D-19,  1.6D-18,  2.1D-14, r^2= 8.2D+00
   Bfn.  Coefficient  Atom+Function         Bfn.  Coefficient  Atom+Function  
  ----- ------------  ---------------      ----- ------------  ---------------
    62      0.318013   4 O  pz               77      0.318013   5 O  pz        
    28     -0.262291   2 C  s                43      0.262291   3 C  s         
    59      0.251685   4 O  s                74     -0.251685   5 O  s         
    58     -0.201488   4 O  s                73      0.201488   5 O  s         
    29     -0.165631   2 C  s                44      0.165631   3 C  s         

 Vector   27  Occ=2.000000D+00  E=-5.221401D-01  Symmetry=e'
              MO Center= -8.1D-01, -9.9D-01, -3.4D-18, r^2= 6.5D+00
   Bfn.  Coefficient  Atom+Function         Bfn.  Coefficient  Atom+Function  
  ----- ------------  ---------------      ----- ------------  ---------------
   166     -0.314711  11 O  py              150      0.297053  10 O  px        
   118     -0.274858   8 C  s               103      0.259385   7 C  s         
   164      0.236999  11 O  s               149     -0.223657  10 O  s         
   163     -0.206224  11 O  s               148      0.194614  10 O  s         
   119     -0.140020   8 C  s               104      0.132137   7 C  s         

 Vector   28  Occ=2.000000D+00  E=-5.221401D-01  Symmetry=e'
              MO Center=  8.1D-01,  9.9D-01, -4.7D-18, r^2= 6.5D+00
   Bfn.  Coefficient  Atom+Function         Bfn.  Coefficient  Atom+Function  
  ----- ------------  ---------------      ----- ------------  ---------------
    88      0.308445   6 C  s               134     -0.265960   9 O  s         
   135     -0.258273   9 O  px              136     -0.258414   9 O  py        
   133      0.231424   9 O  s                16     -0.201013   1 Fe dxy       
   150     -0.191350  10 O  px              103     -0.167622   7 C  s         
   166     -0.160661  11 O  py               89      0.157130   6 C  s         

 Vector   29  Occ=2.000000D+00  E=-5.183799D-01  Symmetry=a1'
              MO Center=  4.9D-15, -1.9D-15,  2.1D-15, r^2= 8.5D+00
   Bfn.  Coefficient  Atom+Function         Bfn.  Coefficient  Atom+Function  
  ----- ------------  ---------------      ----- ------------  ---------------
    62      0.239784   4 O  pz               77     -0.239784   5 O  pz        
   150      0.196994  10 O  px              166      0.196994  11 O  py        
    59      0.175210   4 O  s                74      0.175210   5 O  s         
    29     -0.170219   2 C  s                44     -0.170219   3 C  s         
    20      0.167229   1 Fe dzz              28     -0.163304   2 C  s         

 Vector   30  Occ=2.000000D+00  E=-4.713069D-01  Symmetry=a1'
              MO Center= -1.1D-16, -1.7D-16, -2.4D-16, r^2= 8.0D+00
   Bfn.  Coefficient  Atom+Function         Bfn.  Coefficient  Atom+Function  
  ----- ------------  ---------------      ----- ------------  ---------------
    62      0.312038   4 O  pz               77     -0.312038   5 O  pz        
    32     -0.253123   2 C  pz               47      0.253123   3 C  pz        
   150     -0.202263  10 O  px              166     -0.202263  11 O  py        
     3      0.186246   1 Fe s                20     -0.153827   1 Fe dzz       
    59      0.152521   4 O  s                74      0.152521   5 O  s         

 Vector   31  Occ=2.000000D+00  E=-4.580969D-01  Symmetry=e"
              MO Center=  6.6D-02, -4.0D-01, -4.4D-16, r^2= 6.6D+00
   Bfn.  Coefficient  Atom+Function         Bfn.  Coefficient  Atom+Function  
  ----- ------------  ---------------      ----- ------------  ---------------
    61     -0.302726   4 O  py               76      0.302726   5 O  py        
    19      0.293547   1 Fe dyz             167      0.257380  11 O  pz        
    31     -0.239564   2 C  py               46      0.239564   3 C  py        
   122      0.215205   8 C  pz              152     -0.139783  10 O  pz        
   137     -0.117597   9 O  pz              107     -0.116878   7 C  pz        

 Vector   32  Occ=2.000000D+00  E=-4.580969D-01  Symmetry=e"
              MO Center= -6.6D-02,  4.0D-01, -1.3D-16, r^2= 6.6D+00
   Bfn.  Coefficient  Atom+Function         Bfn.  Coefficient  Atom+Function  
  ----- ------------  ---------------      ----- ------------  ---------------
    60     -0.302726   4 O  px               75      0.302726   5 O  px        
    17      0.293547   1 Fe dxz              30     -0.239564   2 C  px        
    45      0.239564   3 C  px              137     -0.229303   9 O  pz        
   152      0.216493  10 O  pz               92     -0.191728   6 C  pz        
   107      0.181018   7 C  pz               63     -0.106726   4 O  px        

 Vector   33  Occ=2.000000D+00  E=-4.495699D-01  Symmetry=e'
              MO Center= -4.8D-03,  1.7D-01, -3.4D-16, r^2= 7.2D+00
   Bfn.  Coefficient  Atom+Function         Bfn.  Coefficient  Atom+Function  
  ----- ------------  ---------------      ----- ------------  ---------------
    60      0.341630   4 O  px               75      0.341630   5 O  px        
    30      0.246136   2 C  px               45      0.246136   3 C  px        
   150      0.164957  10 O  px              135      0.151106   9 O  px        
    61      0.135963   4 O  py               76      0.135963   5 O  py        
    91     -0.128310   6 C  py              105     -0.121688   7 C  px        

 Vector   34  Occ=2.000000D+00  E=-4.495699D-01  Symmetry=e'
              MO Center=  4.8D-03, -1.7D-01,  5.6D-17, r^2= 7.2D+00
   Bfn.  Coefficient  Atom+Function         Bfn.  Coefficient  Atom+Function  
  ----- ------------  ---------------      ----- ------------  ---------------
    61      0.341630   4 O  py               76      0.341630   5 O  py        
    31      0.246136   2 C  py               46      0.246136   3 C  py        
   166      0.185445  11 O  py              121     -0.164969   8 C  py        
    60     -0.135963   4 O  px               75     -0.135963   5 O  px        
    64      0.120352   4 O  py               79      0.120352   5 O  py        

 Vector   35  Occ=2.000000D+00  E=-4.487312D-01  Symmetry=a2"
              MO Center= -2.8D-14,  4.0D-15, -2.8D-15, r^2= 7.0D+00
   Bfn.  Coefficient  Atom+Function         Bfn.  Coefficient  Atom+Function  
  ----- ------------  ---------------      ----- ------------  ---------------
   137      0.269347   9 O  pz              152      0.269347  10 O  pz        
   167      0.269347  11 O  pz               62      0.213967   4 O  pz        
    77      0.213967   5 O  pz               92      0.206214   6 C  pz        
   107      0.206214   7 C  pz              122      0.206214   8 C  pz        
    32     -0.198067   2 C  pz               47     -0.198067   3 C  pz        

 Vector   36  Occ=2.000000D+00  E=-4.347056D-01  Symmetry=e'
              MO Center=  6.7D-01,  8.8D-01, -8.3D-19, r^2= 6.0D+00
   Bfn.  Coefficient  Atom+Function         Bfn.  Coefficient  Atom+Function  
  ----- ------------  ---------------      ----- ------------  ---------------
   135      0.337225   9 O  px              136     -0.330013   9 O  py        
    91     -0.236431   6 C  py              151     -0.237026  10 O  py        
    90      0.227964   6 C  px              106     -0.196295   7 C  py        
   165      0.183885  11 O  px              120      0.161778   8 C  px        
    15     -0.140616   1 Fe dxx              18      0.140616   1 Fe dyy       

 Vector   37  Occ=2.000000D+00  E=-4.347056D-01  Symmetry=e'
              MO Center= -6.7D-01, -8.8D-01,  4.1D-18, r^2= 6.0D+00
   Bfn.  Coefficient  Atom+Function         Bfn.  Coefficient  Atom+Function  
  ----- ------------  ---------------      ----- ------------  ---------------
   165      0.418545  11 O  px              151      0.390912  10 O  py        
    16      0.281232   1 Fe dxy             120      0.274644   8 C  px        
   106      0.251136   7 C  py              168      0.155052  11 O  px        
   154      0.144548  10 O  py              105      0.119870   7 C  px        
   121      0.115432   8 C  py               22     -0.104807   1 Fe dxy       

 Vector   38  Occ=2.000000D+00  E=-4.278376D-01  Symmetry=a2'
              MO Center= -6.6D-16, -1.8D-16, -5.0D-29, r^2= 7.8D+00
   Bfn.  Coefficient  Atom+Function         Bfn.  Coefficient  Atom+Function  
  ----- ------------  ---------------      ----- ------------  ---------------
   151      0.350952  10 O  py              165     -0.350952  11 O  px        
   135      0.256915   9 O  px              136     -0.256915   9 O  py        
   106      0.224983   7 C  py              120     -0.224983   8 C  px        
    90      0.164699   6 C  px               91     -0.164699   6 C  py        
   154      0.127938  10 O  py              168     -0.127938  11 O  px        

 Vector   39  Occ=2.000000D+00  E=-4.271425D-01  Symmetry=a1'
              MO Center= -2.5D-14, -2.6D-16,  5.5D-16, r^2= 3.6D+00
   Bfn.  Coefficient  Atom+Function         Bfn.  Coefficient  Atom+Function  
  ----- ------------  ---------------      ----- ------------  ---------------
    20      0.492468   1 Fe dzz              15     -0.249636   1 Fe dxx       
    18     -0.249636   1 Fe dyy             105      0.215750   7 C  px        
   121      0.215750   8 C  py               32      0.188826   2 C  pz        
    47     -0.188826   3 C  pz              150     -0.178559  10 O  px        
   166     -0.178559  11 O  py               90     -0.157940   6 C  px        

 Vector   40  Occ=2.000000D+00  E=-4.270968D-01  Symmetry=e"
              MO Center= -7.7D-01, -3.8D-01, -8.4D-17, r^2= 7.2D+00
   Bfn.  Coefficient  Atom+Function         Bfn.  Coefficient  Atom+Function  
  ----- ------------  ---------------      ----- ------------  ---------------
   152      0.393854  10 O  pz              167     -0.324542  11 O  pz        
   107      0.244367   7 C  pz               60      0.226000   4 O  px        
    75     -0.226000   5 O  px              122     -0.201362   8 C  pz        
    61     -0.161281   4 O  py               76      0.161281   5 O  py        
   155      0.144682  10 O  pz               30      0.129453   2 C  px        

 Vector   41  Occ=2.000000D+00  E=-4.270968D-01  Symmetry=e"
              MO Center=  7.7D-01,  3.8D-01,  2.1D-16, r^2= 7.2D+00
   Bfn.  Coefficient  Atom+Function         Bfn.  Coefficient  Atom+Function  
  ----- ------------  ---------------      ----- ------------  ---------------
   137      0.414766   9 O  pz              167     -0.267409  11 O  pz        
    92      0.257342   6 C  pz               61     -0.226000   4 O  py        
    76      0.226000   5 O  py              122     -0.165914   8 C  pz        
    60     -0.161281   4 O  px               75      0.161281   5 O  px        
   140      0.152365   9 O  pz              152     -0.147357  10 O  pz        

 Vector   42  Occ=2.000000D+00  E=-4.086715D-01  Symmetry=e'
              MO Center= -1.6D-01, -5.0D-01,  1.6D-16, r^2= 4.9D+00
   Bfn.  Coefficient  Atom+Function         Bfn.  Coefficient  Atom+Function  
  ----- ------------  ---------------      ----- ------------  ---------------
   121      0.330977   8 C  py               15      0.254676   1 Fe dxx       
    18     -0.254676   1 Fe dyy             105     -0.255234   7 C  px        
   166     -0.244369  11 O  py               61      0.201354   4 O  py        
    76      0.201354   5 O  py              118      0.171421   8 C  s         
   150      0.171799  10 O  px              103     -0.129402   7 C  s         

 Vector   43  Occ=2.000000D+00  E=-4.086715D-01  Symmetry=e'
              MO Center=  1.6D-01,  5.0D-01,  4.2D-17, r^2= 4.9D+00
   Bfn.  Coefficient  Atom+Function         Bfn.  Coefficient  Atom+Function  
  ----- ------------  ---------------      ----- ------------  ---------------
    16      0.509352   1 Fe dxy              91      0.250380   6 C  py        
    90      0.235856   6 C  px              105      0.227449   7 C  px        
   135     -0.203899   9 O  px               60      0.201354   4 O  px        
    75      0.201354   5 O  px              150     -0.200322  10 O  px        
    88     -0.173680   6 C  s               136     -0.169734   9 O  py        

 Vector   44  Occ=2.000000D+00  E=-3.936894D-01  Symmetry=a2"
              MO Center= -8.5D-16, -7.3D-16,  3.5D-16, r^2= 5.8D+00
   Bfn.  Coefficient  Atom+Function         Bfn.  Coefficient  Atom+Function  
  ----- ------------  ---------------      ----- ------------  ---------------
    32      0.304574   2 C  pz               47      0.304574   3 C  pz        
    14     -0.257701   1 Fe pz              137      0.248765   9 O  pz        
   152      0.248765  10 O  pz              167      0.248765  11 O  pz        
    62     -0.220912   4 O  pz               77     -0.220912   5 O  pz        
    11     -0.181643   1 Fe pz               28     -0.173917   2 C  s         

 Vector   45  Occ=2.000000D+00  E=-2.903247D-01  Symmetry=e"
              MO Center= -8.5D-02,  1.2D-01, -2.0D-16, r^2= 2.6D+00
   Bfn.  Coefficient  Atom+Function         Bfn.  Coefficient  Atom+Function  
  ----- ------------  ---------------      ----- ------------  ---------------
    17      1.370595   1 Fe dxz              23     -0.401536   1 Fe dxz       
    60      0.199603   4 O  px               75     -0.199603   5 O  px        
   152     -0.185120  10 O  pz              137      0.149460   9 O  pz        
    19      0.108846   1 Fe dyz              30     -0.096875   2 C  px        
    45      0.096875   3 C  px              155     -0.094692  10 O  pz        

 Vector   46  Occ=2.000000D+00  E=-2.903247D-01  Symmetry=e"
              MO Center=  8.5D-02, -1.2D-01, -1.5D-14, r^2= 2.6D+00
   Bfn.  Coefficient  Atom+Function         Bfn.  Coefficient  Atom+Function  
  ----- ------------  ---------------      ----- ------------  ---------------
    19      1.370595   1 Fe dyz              25     -0.401536   1 Fe dyz       
    61      0.199603   4 O  py               76     -0.199603   5 O  py        
   167     -0.193170  11 O  pz              137      0.127468   9 O  pz        
    17     -0.108846   1 Fe dxz             170     -0.098809  11 O  pz        
    31     -0.096875   2 C  py               46      0.096875   3 C  py        

 Vector   47  Occ=2.000000D+00  E=-2.366907D-01  Symmetry=e'
              MO Center= -3.7D-01,  1.4D-01,  1.7D-14, r^2= 2.9D+00
   Bfn.  Coefficient  Atom+Function         Bfn.  Coefficient  Atom+Function  
  ----- ------------  ---------------      ----- ------------  ---------------
    16      0.994117   1 Fe dxy              13      0.370658   1 Fe py        
    15      0.319513   1 Fe dxx              18     -0.319513   1 Fe dyy       
   151     -0.243606  10 O  py              106      0.165814   7 C  py        
   135      0.144044   9 O  px               22     -0.135361   1 Fe dxy       
   165     -0.130404  11 O  px              154     -0.129161  10 O  py        

 Vector   48  Occ=2.000000D+00  E=-2.366907D-01  Symmetry=e'
              MO Center=  3.7D-01, -1.4D-01, -2.5D-15, r^2= 2.9D+00
   Bfn.  Coefficient  Atom+Function         Bfn.  Coefficient  Atom+Function  
  ----- ------------  ---------------      ----- ------------  ---------------
    16      0.639027   1 Fe dxy              15     -0.497059   1 Fe dxx       
    18      0.497059   1 Fe dyy              12      0.370658   1 Fe px        
   165     -0.208261  11 O  px              136      0.181073   9 O  py        
   120      0.139518   8 C  px               91     -0.131365   6 C  py        
     9      0.128384   1 Fe px               60     -0.123137   4 O  px        

 Vector   49  Occ=0.000000D+00  E=-9.791630D-02  Symmetry=e"
              MO Center=  2.3D-01, -3.4D-01,  1.2D-15, r^2= 4.4D+00
   Bfn.  Coefficient  Atom+Function         Bfn.  Coefficient  Atom+Function  
  ----- ------------  ---------------      ----- ------------  ---------------
    19      0.985142   1 Fe dyz             122     -0.320568   8 C  pz        
    31      0.280625   2 C  py               46     -0.280625   3 C  py        
   167      0.261608  11 O  pz               61     -0.226114   4 O  py        
    76      0.226114   5 O  py              125     -0.224823   8 C  pz        
    92      0.206961   6 C  pz              170      0.187446  11 O  pz        

 Vector   50  Occ=0.000000D+00  E=-9.791630D-02  Symmetry=e"
              MO Center= -2.3D-01,  3.4D-01, -7.6D-17, r^2= 4.4D+00
   Bfn.  Coefficient  Atom+Function         Bfn.  Coefficient  Atom+Function  
  ----- ------------  ---------------      ----- ------------  ---------------
    17      0.985142   1 Fe dxz             107     -0.304569   7 C  pz        
    30      0.280625   2 C  px               45     -0.280625   3 C  px        
    92      0.250672   6 C  pz              152      0.248551  10 O  pz        
    60     -0.226114   4 O  px               75      0.226114   5 O  px        
   110     -0.213602   7 C  pz              137     -0.204567   9 O  pz        

 Vector   51  Occ=0.000000D+00  E=-8.799059D-02  Symmetry=e'
              MO Center=  3.0D-02, -2.9D-02, -2.8D-16, r^2= 5.3D+00
   Bfn.  Coefficient  Atom+Function         Bfn.  Coefficient  Atom+Function  
  ----- ------------  ---------------      ----- ------------  ---------------
    31      0.502618   2 C  py               46      0.502618   3 C  py        
   119      0.425855   8 C  s                61     -0.335071   4 O  py        
    76     -0.335071   5 O  py               34      0.323932   2 C  py        
    49      0.323932   3 C  py               89     -0.313928   6 C  s         
    16     -0.305952   1 Fe dxy              64     -0.259009   4 O  py        

 Vector   52  Occ=0.000000D+00  E=-8.799059D-02  Symmetry=e'
              MO Center= -3.0D-02,  2.9D-02,  7.9D-16, r^2= 5.3D+00
   Bfn.  Coefficient  Atom+Function         Bfn.  Coefficient  Atom+Function  
  ----- ------------  ---------------      ----- ------------  ---------------
    30      0.502618   2 C  px               45      0.502618   3 C  px        
   104      0.427114   7 C  s                60     -0.335071   4 O  px        
    75     -0.335071   5 O  px               33      0.323932   2 C  px        
    48      0.323932   3 C  px               89     -0.310489   6 C  s         
    16     -0.302601   1 Fe dxy              63     -0.259009   4 O  px        

 Vector   53  Occ=0.000000D+00  E=-8.642643D-02  Symmetry=a1'
              MO Center=  1.1D-13, -7.2D-14,  5.6D-17, r^2= 2.2D+00
   Bfn.  Coefficient  Atom+Function         Bfn.  Coefficient  Atom+Function  
  ----- ------------  ---------------      ----- ------------  ---------------
    20      0.852229   1 Fe dzz              15     -0.415808   1 Fe dxx       
    18     -0.415808   1 Fe dyy              29      0.268505   2 C  s         
    44      0.268505   3 C  s                89     -0.229221   6 C  s         
   104     -0.229221   7 C  s               119     -0.229221   8 C  s         
    28      0.168626   2 C  s                43      0.168626   3 C  s         

 Vector   54  Occ=0.000000D+00  E=-8.349889D-02  Symmetry=a2"
              MO Center= -1.5D-16, -9.8D-16, -1.8D-16, r^2= 5.6D+00
   Bfn.  Coefficient  Atom+Function         Bfn.  Coefficient  Atom+Function  
  ----- ------------  ---------------      ----- ------------  ---------------
    92      0.407041   6 C  pz              107      0.407041   7 C  pz        
   122      0.407041   8 C  pz               29     -0.369745   2 C  s         
    44      0.369745   3 C  s               137     -0.281414   9 O  pz        
   152     -0.281414  10 O  pz              167     -0.281414  11 O  pz        
    95      0.270349   6 C  pz              110      0.270349   7 C  pz        

 Vector   55  Occ=0.000000D+00  E=-7.792937D-02  Symmetry=a2'
              MO Center= -1.5D-14,  4.7D-14, -4.9D-17, r^2= 5.8D+00
   Bfn.  Coefficient  Atom+Function         Bfn.  Coefficient  Atom+Function  
  ----- ------------  ---------------      ----- ------------  ---------------
   106      0.427530   7 C  py              120     -0.427530   8 C  px        
    90      0.312974   6 C  px               91     -0.312974   6 C  py        
   109      0.281591   7 C  py              123     -0.281591   8 C  px        
   151     -0.282858  10 O  py              165      0.282858  11 O  px        
   154     -0.221475  10 O  py              168      0.221475  11 O  px        

 Vector   56  Occ=0.000000D+00  E=-6.749713D-02  Symmetry=e'
              MO Center= -6.0D-01, -1.4D-01, -1.7D-17, r^2= 4.1D+00
   Bfn.  Coefficient  Atom+Function         Bfn.  Coefficient  Atom+Function  
  ----- ------------  ---------------      ----- ------------  ---------------
    16      0.937860   1 Fe dxy             106     -0.450139   7 C  py        
   120     -0.313951   8 C  px              151      0.314290  10 O  py        
   109     -0.277237   7 C  py              154      0.227441  10 O  py        
   165      0.215685  11 O  px               89      0.206849   6 C  s         
   123     -0.200186   8 C  px              168      0.156634  11 O  px        

 Vector   57  Occ=0.000000D+00  E=-6.749713D-02  Symmetry=e'
              MO Center=  6.0D-01,  1.4D-01,  2.4D-17, r^2= 4.1D+00
   Bfn.  Coefficient  Atom+Function         Bfn.  Coefficient  Atom+Function  
  ----- ------------  ---------------      ----- ------------  ---------------
    15      0.468930   1 Fe dxx              18     -0.468930   1 Fe dyy       
   120      0.348171   8 C  px               90      0.342690   6 C  px        
    91     -0.317116   6 C  py               16     -0.266550   1 Fe dxy       
   165     -0.248784  11 O  px              135     -0.245263   9 O  px        
   136      0.217718   9 O  py              104      0.208531   7 C  s         

 Vector   58  Occ=0.000000D+00  E=-4.407878D-02  Symmetry=e"
              MO Center= -1.7D-01,  5.0D-01, -1.4D-15, r^2= 5.3D+00
   Bfn.  Coefficient  Atom+Function         Bfn.  Coefficient  Atom+Function  
  ----- ------------  ---------------      ----- ------------  ---------------
   107      0.443890   7 C  pz               92     -0.425438   6 C  pz        
    30      0.408391   2 C  px               45     -0.408391   3 C  px        
   110      0.380528   7 C  pz               95     -0.364710   6 C  pz        
   152     -0.252661  10 O  pz               33      0.250625   2 C  px        
    48     -0.250625   3 C  px              137      0.242158   9 O  pz        

 Vector   59  Occ=0.000000D+00  E=-4.407878D-02  Symmetry=e"
              MO Center=  1.7D-01, -5.0D-01,  1.5D-15, r^2= 5.3D+00
   Bfn.  Coefficient  Atom+Function         Bfn.  Coefficient  Atom+Function  
  ----- ------------  ---------------      ----- ------------  ---------------
   122      0.501907   8 C  pz              125      0.430263   8 C  pz        
    31      0.408391   2 C  py               46     -0.408391   3 C  py        
   167     -0.285684  11 O  pz               92     -0.266934   6 C  pz        
   170     -0.265115  11 O  pz               34      0.250625   2 C  py        
    49     -0.250625   3 C  py              107     -0.234973   7 C  pz        

 Vector   60  Occ=0.000000D+00  E= 1.653422D-03  Symmetry=a1'
              MO Center= -2.4D-14, -2.8D-14,  2.2D-14, r^2= 1.0D+01
   Bfn.  Coefficient  Atom+Function         Bfn.  Coefficient  Atom+Function  
  ----- ------------  ---------------      ----- ------------  ---------------
     5      3.069277   1 Fe s                 4     -0.650732   1 Fe s         
    29     -0.403406   2 C  s                44     -0.403406   3 C  s         
    21     -0.358631   1 Fe dxx              24     -0.358631   1 Fe dyy       
    89     -0.236777   6 C  s               104     -0.236777   7 C  s         
   119     -0.236777   8 C  s                35      0.202046   2 C  pz        

 Vector   61  Occ=0.000000D+00  E= 9.449390D-02  Symmetry=a2"
              MO Center= -1.0D-15,  5.3D-16, -1.6D-14, r^2= 1.0D+01
   Bfn.  Coefficient  Atom+Function         Bfn.  Coefficient  Atom+Function  
  ----- ------------  ---------------      ----- ------------  ---------------
    35      1.483870   2 C  pz               50      1.483870   3 C  pz        
    59     -0.986213   4 O  s                74      0.986213   5 O  s         
    14      0.668142   1 Fe pz               95      0.451974   6 C  pz        
   110      0.451974   7 C  pz              125      0.451974   8 C  pz        
    29     -0.218365   2 C  s                44      0.218365   3 C  s         

 Vector   62  Occ=0.000000D+00  E= 1.179556D-01  Symmetry=e'
              MO Center= -3.4D-01, -8.7D-01, -6.3D-16, r^2= 9.3D+00
   Bfn.  Coefficient  Atom+Function         Bfn.  Coefficient  Atom+Function  
  ----- ------------  ---------------      ----- ------------  ---------------
   124      1.391924   8 C  py              164      1.247776  11 O  s         
   108     -1.058788   7 C  px              149     -0.976996  10 O  s         
   109      0.479180   7 C  py              123     -0.463874   8 C  px        
    94      0.420341   6 C  py               34      0.384769   2 C  py        
    49      0.384769   3 C  py              119     -0.377099   8 C  s         

 Vector   63  Occ=0.000000D+00  E= 1.179556D-01  Symmetry=e'
              MO Center=  3.4D-01,  8.7D-01,  2.5D-15, r^2= 9.3D+00
   Bfn.  Coefficient  Atom+Function         Bfn.  Coefficient  Atom+Function  
  ----- ------------  ---------------      ----- ------------  ---------------
   134      1.284472   9 O  s                93     -1.107289   6 C  px        
   108     -1.048450   7 C  px               94     -1.024818   6 C  py        
   149     -0.876739  10 O  s               124     -0.531815   8 C  py        
   164     -0.407734  11 O  s                89     -0.388190   6 C  s         
    33     -0.384769   2 C  px               48     -0.384769   3 C  px        

 Vector   64  Occ=0.000000D+00  E= 1.487230D-01  Symmetry=a1'
              MO Center=  2.9D-14,  1.6D-14,  6.5D-16, r^2= 8.9D+00
   Bfn.  Coefficient  Atom+Function         Bfn.  Coefficient  Atom+Function  
  ----- ------------  ---------------      ----- ------------  ---------------
    26      2.485502   1 Fe dzz              29     -1.794700   2 C  s         
    44     -1.794700   3 C  s                89      1.322724   6 C  s         
   104      1.322724   7 C  s               119      1.322724   8 C  s         
    21     -1.131387   1 Fe dxx              24     -1.131387   1 Fe dyy       
    35      1.037381   2 C  pz               50     -1.037381   3 C  pz        

 Vector   65  Occ=0.000000D+00  E= 1.896894D-01  Symmetry=e'
              MO Center= -4.0D-01,  5.4D-01, -4.8D-15, r^2= 6.6D+00
   Bfn.  Coefficient  Atom+Function         Bfn.  Coefficient  Atom+Function  
  ----- ------------  ---------------      ----- ------------  ---------------
   119      2.063333   8 C  s                22      1.933911   1 Fe dxy       
    13      1.703951   1 Fe py               89     -1.364203   6 C  s         
    21      1.130481   1 Fe dxx              24     -1.130481   1 Fe dyy       
   124      0.947864   8 C  py              104     -0.699130   7 C  s         
    94      0.546338   6 C  py              106      0.522422   7 C  py        

 Vector   66  Occ=0.000000D+00  E= 1.896894D-01  Symmetry=e'
              MO Center=  4.0D-01, -5.4D-01, -2.2D-15, r^2= 6.6D+00
   Bfn.  Coefficient  Atom+Function         Bfn.  Coefficient  Atom+Function  
  ----- ------------  ---------------      ----- ------------  ---------------
    22      2.260962   1 Fe dxy             104      1.978889   7 C  s         
    12      1.703951   1 Fe px               89     -1.594908   6 C  s         
    21     -0.966956   1 Fe dxx              24      0.966956   1 Fe dyy       
   108      0.916017   7 C  px               93      0.610032   6 C  px        
   120      0.544502   8 C  px               94      0.453559   6 C  py        

 Vector   67  Occ=0.000000D+00  E= 2.219877D-01  Symmetry=a1'
              MO Center= -9.6D-14, -8.6D-15, -9.5D-17, r^2= 9.7D+00
   Bfn.  Coefficient  Atom+Function         Bfn.  Coefficient  Atom+Function  
  ----- ------------  ---------------      ----- ------------  ---------------
    89      0.999292   6 C  s               104      0.999292   7 C  s         
   119      0.999292   8 C  s               108     -0.920985   7 C  px        
   124     -0.920985   8 C  py              134     -0.911818   9 O  s         
   149     -0.911818  10 O  s               164     -0.911818  11 O  s         
    35     -0.759029   2 C  pz               50      0.759029   3 C  pz        

 Vector   68  Occ=0.000000D+00  E= 2.287513D-01  Symmetry=e"
              MO Center=  1.1D-01, -3.5D-01,  8.8D-15, r^2= 7.5D+00
   Bfn.  Coefficient  Atom+Function         Bfn.  Coefficient  Atom+Function  
  ----- ------------  ---------------      ----- ------------  ---------------
    25      5.356658   1 Fe dyz             125      1.865030   8 C  pz        
    34     -1.398619   2 C  py               49      1.398619   3 C  py        
    23     -1.344879   1 Fe dxz              95     -0.958064   6 C  pz        
   110     -0.906966   7 C  pz               33      0.351147   2 C  px        
    48     -0.351147   3 C  px              122     -0.312080   8 C  pz        

 Vector   69  Occ=0.000000D+00  E= 2.287513D-01  Symmetry=e"
              MO Center= -1.1D-01,  3.5D-01, -3.4D-15, r^2= 7.5D+00
   Bfn.  Coefficient  Atom+Function         Bfn.  Coefficient  Atom+Function  
  ----- ------------  ---------------      ----- ------------  ---------------
    23      5.356658   1 Fe dxz             110      1.629914   7 C  pz        
    95     -1.600413   6 C  pz               33     -1.398619   2 C  px        
    48      1.398619   3 C  px               25      1.344879   1 Fe dyz       
    34     -0.351147   2 C  py               49      0.351147   3 C  py        
   107     -0.272737   7 C  pz               92      0.267801   6 C  pz        

 Vector   70  Occ=0.000000D+00  E= 2.555461D-01  Symmetry=a1'
              MO Center=  3.1D-14, -1.9D-14,  1.5D-15, r^2= 9.3D+00
   Bfn.  Coefficient  Atom+Function         Bfn.  Coefficient  Atom+Function  
  ----- ------------  ---------------      ----- ------------  ---------------
     5      5.374397   1 Fe s                26     -2.507290   1 Fe dzz       
    21     -1.892011   1 Fe dxx              24     -1.892011   1 Fe dyy       
     4     -0.429773   1 Fe s                29      0.370890   2 C  s         
    44      0.370890   3 C  s                 3      0.344775   1 Fe s         
    35      0.331625   2 C  pz               50     -0.331625   3 C  pz        

 Vector   71  Occ=0.000000D+00  E= 2.587502D-01  Symmetry=e"
              MO Center=  1.2D-01, -2.1D-01,  1.1D-15, r^2= 6.2D+00
   Bfn.  Coefficient  Atom+Function         Bfn.  Coefficient  Atom+Function  
  ----- ------------  ---------------      ----- ------------  ---------------
    23      1.751044   1 Fe dxz              30     -0.534263   2 C  px        
    45      0.534263   3 C  px              110      0.418093   7 C  pz        
    95     -0.361117   6 C  pz               33      0.307663   2 C  px        
    48     -0.307663   3 C  px              107      0.305609   7 C  pz        
    92     -0.263961   6 C  pz               25      0.239304   1 Fe dyz       

 Vector   72  Occ=0.000000D+00  E= 2.587502D-01  Symmetry=e"
              MO Center= -1.2D-01,  2.1D-01,  5.7D-14, r^2= 6.2D+00
   Bfn.  Coefficient  Atom+Function         Bfn.  Coefficient  Atom+Function  
  ----- ------------  ---------------      ----- ------------  ---------------
    25      1.751044   1 Fe dyz              31     -0.534263   2 C  py        
    46      0.534263   3 C  py              125      0.449877   8 C  pz        
   122      0.328841   8 C  pz               34      0.307663   2 C  py        
    49     -0.307663   3 C  py               95     -0.274281   6 C  pz        
    23     -0.239304   1 Fe dxz             170     -0.227095  11 O  pz        

 Vector   73  Occ=0.000000D+00  E= 2.972091D-01  Symmetry=a2"
              MO Center= -3.2D-14,  2.4D-13,  1.1D-13, r^2= 1.1D+01
   Bfn.  Coefficient  Atom+Function         Bfn.  Coefficient  Atom+Function  
  ----- ------------  ---------------      ----- ------------  ---------------
    14      2.363077   1 Fe pz               35      1.458932   2 C  pz        
    50      1.458932   3 C  pz               59     -0.826294   4 O  s         
    74      0.826294   5 O  s                95     -0.743388   6 C  pz        
   110     -0.743388   7 C  pz              125     -0.743388   8 C  pz        
    29     -0.654776   2 C  s                44      0.654776   3 C  s         

 Vector   74  Occ=0.000000D+00  E= 2.990399D-01  Symmetry=e'
              MO Center=  3.3D-01,  4.1D-01, -6.2D-14, r^2= 8.7D+00
   Bfn.  Coefficient  Atom+Function         Bfn.  Coefficient  Atom+Function  
  ----- ------------  ---------------      ----- ------------  ---------------
    22      2.815552   1 Fe dxy              12     -1.311575   1 Fe px        
    13     -1.184698   1 Fe py              123      1.108073   8 C  px        
   109      1.081697   7 C  py              134      0.967152   9 O  s         
    94     -0.921831   6 C  py               93     -0.841617   6 C  px        
    89     -0.730740   6 C  s                33      0.577611   2 C  px        

 Vector   75  Occ=0.000000D+00  E= 2.990399D-01  Symmetry=e'
              MO Center= -3.3D-01, -4.1D-01, -7.8D-16, r^2= 8.7D+00
   Bfn.  Coefficient  Atom+Function         Bfn.  Coefficient  Atom+Function  
  ----- ------------  ---------------      ----- ------------  ---------------
    21     -1.407776   1 Fe dxx              24      1.407776   1 Fe dyy       
    13      1.311575   1 Fe py              124      1.205402   8 C  py        
    12     -1.184698   1 Fe px              108     -1.169611   7 C  px        
   164      0.862157  11 O  s                93      0.833918   6 C  px        
   149     -0.813000  10 O  s                94     -0.744288   6 C  py        

 Vector   76  Occ=0.000000D+00  E= 3.324511D-01  Symmetry=a1'
              MO Center= -7.7D-15,  5.6D-15, -8.4D-14, r^2= 1.2D+01
   Bfn.  Coefficient  Atom+Function         Bfn.  Coefficient  Atom+Function  
  ----- ------------  ---------------      ----- ------------  ---------------
    29      4.738650   2 C  s                44      4.738650   3 C  s         
    26     -4.226123   1 Fe dzz               5     -1.569699   1 Fe s         
    59     -1.551373   4 O  s                74     -1.551373   5 O  s         
    21      1.172875   1 Fe dxx              24      1.172875   1 Fe dyy       
    65      0.910730   4 O  pz               80     -0.910730   5 O  pz        

 Vector   77  Occ=0.000000D+00  E= 3.339805D-01  Symmetry=a2'
              MO Center=  7.3D-15,  1.1D-14,  1.1D-29, r^2= 8.4D+00
   Bfn.  Coefficient  Atom+Function         Bfn.  Coefficient  Atom+Function  
  ----- ------------  ---------------      ----- ------------  ---------------
   109      0.816498   7 C  py              123     -0.816498   8 C  px        
    93      0.597718   6 C  px               94     -0.597718   6 C  py        
   106     -0.417356   7 C  py              120      0.417356   8 C  px        
    90     -0.305526   6 C  px               91      0.305526   6 C  py        
   108      0.218780   7 C  px              124     -0.218780   8 C  py        

 Vector   78  Occ=0.000000D+00  E= 3.447118D-01  Symmetry=e'
              MO Center= -7.0D-01,  1.7D-01,  9.6D-15, r^2= 7.2D+00
   Bfn.  Coefficient  Atom+Function         Bfn.  Coefficient  Atom+Function  
  ----- ------------  ---------------      ----- ------------  ---------------
    22      3.084242   1 Fe dxy             109      2.064566   7 C  py        
    13     -1.455635   1 Fe py              123      1.178886   8 C  px        
    93     -1.079514   6 C  px               21      0.862660   1 Fe dxx       
    24     -0.862660   1 Fe dyy             108      0.545408   7 C  px        
    34     -0.495912   2 C  py               49     -0.495912   3 C  py        

 Vector   79  Occ=0.000000D+00  E= 3.447118D-01  Symmetry=e'
              MO Center=  7.0D-01, -1.7D-01,  6.1D-17, r^2= 7.2D+00
   Bfn.  Coefficient  Atom+Function         Bfn.  Coefficient  Atom+Function  
  ----- ------------  ---------------      ----- ------------  ---------------
    22      1.725321   1 Fe dxy             123      1.698828   8 C  px        
    21     -1.542121   1 Fe dxx              24      1.542121   1 Fe dyy       
    94     -1.509367   6 C  py               12     -1.455635   1 Fe px        
    93      1.126417   6 C  px              124      0.749033   8 C  py        
   108     -0.543209   7 C  px               33     -0.495912   2 C  px        

 Vector   80  Occ=0.000000D+00  E= 4.090757D-01  Symmetry=a2"
              MO Center= -1.3D-14,  4.8D-14, -8.7D-15, r^2= 5.7D+00
   Bfn.  Coefficient  Atom+Function         Bfn.  Coefficient  Atom+Function  
  ----- ------------  ---------------      ----- ------------  ---------------
    14      4.584113   1 Fe pz               29     -3.444963   2 C  s         
    44      3.444963   3 C  s                35      1.780867   2 C  pz        
    50      1.780867   3 C  pz               65     -0.558977   4 O  pz        
    80     -0.558977   5 O  pz               62     -0.344682   4 O  pz        
    77     -0.344682   5 O  pz               11      0.316402   1 Fe pz        

 Vector   81  Occ=0.000000D+00  E= 4.136103D-01  Symmetry=e'
              MO Center=  7.1D-02, -1.2D-01,  1.1D-13, r^2= 7.5D+00
   Bfn.  Coefficient  Atom+Function         Bfn.  Coefficient  Atom+Function  
  ----- ------------  ---------------      ----- ------------  ---------------
   119      5.311378   8 C  s                22      4.194996   1 Fe dxy       
    13      3.544121   1 Fe py               89     -3.273346   6 C  s         
    21      2.718951   1 Fe dxx              24     -2.718951   1 Fe dyy       
   109      2.059618   7 C  py              104     -2.038031   7 C  s         
    94      1.783335   6 C  py              124      1.348023   8 C  py        

 Vector   82  Occ=0.000000D+00  E= 4.136103D-01  Symmetry=e'
              MO Center= -7.1D-02,  1.2D-01, -1.4D-16, r^2= 7.5D+00
   Bfn.  Coefficient  Atom+Function         Bfn.  Coefficient  Atom+Function  
  ----- ------------  ---------------      ----- ------------  ---------------
[...]
  ----- ------------  ---------------      ----- ------------  ---------------
    14      1.555936   1 Fe pz               29     -1.337953   2 C  s         
    44      1.337953   3 C  s               158     -1.142333  10 O  dxz       
   175     -1.142333  11 O  dyz             113     -0.971071   7 C  dxz       
   130     -0.971071   8 C  dyz             143      0.836246   9 O  dxz       
   145      0.836246   9 O  dyz              98      0.710873   6 C  dxz       

 Vector  156  Occ=0.000000D+00  E= 2.403708D+00  Symmetry=e"
              MO Center= -1.7D-01, -6.4D-01,  6.1D-15, r^2= 7.9D+00
   Bfn.  Coefficient  Atom+Function         Bfn.  Coefficient  Atom+Function  
  ----- ------------  ---------------      ----- ------------  ---------------
   175      1.150571  11 O  dyz              70     -0.928356   4 O  dyz       
    85     -0.928356   5 O  dyz             130      0.908517   8 C  dyz       
   158     -0.844401  10 O  dxz              40     -0.698945   2 C  dyz       
    55     -0.698945   3 C  dyz             113     -0.666735   7 C  dxz       
    25      0.645964   1 Fe dyz              34     -0.572325   2 C  py        

 Vector  157  Occ=0.000000D+00  E= 2.403708D+00  Symmetry=e"
              MO Center=  1.7D-01,  6.4D-01, -6.0D-17, r^2= 7.9D+00
   Bfn.  Coefficient  Atom+Function         Bfn.  Coefficient  Atom+Function  
  ----- ------------  ---------------      ----- ------------  ---------------
    68      0.928356   4 O  dxz              83      0.928356   5 O  dxz       
   143     -0.842393   9 O  dxz             145     -0.843381   9 O  dyz       
   158     -0.840627  10 O  dxz              38      0.698945   2 C  dxz       
    53      0.698945   3 C  dxz              98     -0.665213   6 C  dxz       
   100     -0.665930   6 C  dyz             113     -0.663819   7 C  dxz       

 Vector  158  Occ=0.000000D+00  E= 2.438735D+00  Symmetry=e'
              MO Center= -3.8D-01,  7.1D-01,  9.7D-16, r^2= 7.7D+00
   Bfn.  Coefficient  Atom+Function         Bfn.  Coefficient  Atom+Function  
  ----- ------------  ---------------      ----- ------------  ---------------
   119      2.362890   8 C  s                22      1.558110   1 Fe dxy       
    13      1.483262   1 Fe py               89     -1.409904   6 C  s         
   157     -1.102265  10 O  dxy              21      1.057831   1 Fe dxx       
    24     -1.057831   1 Fe dyy             112     -0.982744   7 C  dxy       
   104     -0.952986   7 C  s               109      0.883073   7 C  py        

 Vector  159  Occ=0.000000D+00  E= 2.438735D+00  Symmetry=e'
              MO Center=  3.8D-01, -7.1D-01, -2.0D-15, r^2= 7.7D+00
   Bfn.  Coefficient  Atom+Function         Bfn.  Coefficient  Atom+Function  
  ----- ------------  ---------------      ----- ------------  ---------------
   104      2.178223   7 C  s                22      2.115662   1 Fe dxy       
    89     -1.914422   6 C  s                12      1.483262   1 Fe px        
   172     -1.266914  11 O  dxy             127     -1.087846   8 C  dxy       
   123      0.921561   8 C  px               21     -0.779055   1 Fe dxx       
    24      0.779055   1 Fe dyy             157     -0.722228  10 O  dxy       

 Vector  160  Occ=0.000000D+00  E= 2.506000D+00  Symmetry=a1'
              MO Center=  1.3D-14,  3.2D-15,  2.1D-14, r^2= 8.9D+00
   Bfn.  Coefficient  Atom+Function         Bfn.  Coefficient  Atom+Function  
  ----- ------------  ---------------      ----- ------------  ---------------
     4      9.748083   1 Fe s                 5     -4.825389   1 Fe s         
    26      2.868582   1 Fe dzz              29     -2.469852   2 C  s         
    44     -2.469852   3 C  s                 3     -2.427265   1 Fe s         
    89     -2.193581   6 C  s               104     -2.193581   7 C  s         
   119     -2.193581   8 C  s                21      2.011827   1 Fe dxx       

 Vector  161  Occ=0.000000D+00  E= 2.543287D+00  Symmetry=a1'
              MO Center=  1.8D-14, -3.0D-15,  4.6D-14, r^2= 8.1D+00
   Bfn.  Coefficient  Atom+Function         Bfn.  Coefficient  Atom+Function  
  ----- ------------  ---------------      ----- ------------  ---------------
     4      7.205220   1 Fe s                 5     -3.479591   1 Fe s         
    26      3.044980   1 Fe dzz              29     -2.533098   2 C  s         
    44     -2.533098   3 C  s                 3     -1.760413   1 Fe s         
    89     -1.623083   6 C  s               104     -1.623083   7 C  s         
   119     -1.623083   8 C  s                21      1.252239   1 Fe dxx       

 Vector  162  Occ=0.000000D+00  E= 2.547399D+00  Symmetry=e'
              MO Center= -3.9D-01,  1.1D+00,  7.1D-17, r^2= 8.0D+00
   Bfn.  Coefficient  Atom+Function         Bfn.  Coefficient  Atom+Function  
  ----- ------------  ---------------      ----- ------------  ---------------
   149     -1.789972  10 O  s               134      1.723387   9 O  s         
   104      1.366355   7 C  s                89     -1.315529   6 C  s         
   142      1.249489   9 O  dxy              12      1.122826   1 Fe px        
    22      0.956381   1 Fe dxy             105     -0.943200   7 C  px        
   153     -0.889573  10 O  px              111      0.872459   7 C  dxx       

 Vector  163  Occ=0.000000D+00  E= 2.547399D+00  Symmetry=e'
              MO Center=  3.9D-01, -1.1D+00,  2.5D-16, r^2= 8.0D+00
   Bfn.  Coefficient  Atom+Function         Bfn.  Coefficient  Atom+Function  
  ----- ------------  ---------------      ----- ------------  ---------------
   164      2.028439  11 O  s               119     -1.548386   8 C  s         
    13     -1.122826   1 Fe py              121      1.075647   8 C  py        
   134     -1.071883   9 O  s               129     -1.044009   8 C  dyy       
   169      0.990682  11 O  py              149     -0.956556  10 O  s         
   174      0.871557  11 O  dyy              89      0.818210   6 C  s         

 Vector  164  Occ=0.000000D+00  E= 2.575072D+00  Symmetry=a2"
              MO Center=  1.1D-15,  1.3D-15,  1.3D-13, r^2= 9.3D+00
   Bfn.  Coefficient  Atom+Function         Bfn.  Coefficient  Atom+Function  
  ----- ------------  ---------------      ----- ------------  ---------------
    14      2.454248   1 Fe pz               29     -1.912061   2 C  s         
    44      1.912061   3 C  s                59      1.710065   4 O  s         
    74     -1.710065   5 O  s                65     -1.041615   4 O  pz        
    80     -1.041615   5 O  pz               41     -1.030530   2 C  dzz       
    56      1.030530   3 C  dzz              32     -0.965897   2 C  pz        

 Vector  165  Occ=0.000000D+00  E= 2.657924D+00  Symmetry=a1'
              MO Center=  1.7D-14, -2.4D-15, -1.1D-13, r^2= 8.5D+00
   Bfn.  Coefficient  Atom+Function         Bfn.  Coefficient  Atom+Function  
  ----- ------------  ---------------      ----- ------------  ---------------
     4      5.671160   1 Fe s                29     -1.652363   2 C  s         
    44     -1.652363   3 C  s                89     -1.547630   6 C  s         
   104     -1.547630   7 C  s               119     -1.547630   8 C  s         
     3     -1.363731   1 Fe s                 5     -1.267541   1 Fe s         
    59      0.882047   4 O  s                74      0.882047   5 O  s         

 Vector  166  Occ=0.000000D+00  E= 2.947148D+00  Symmetry=e'
              MO Center= -1.4D-01,  9.7D-01,  7.4D-16, r^2= 4.4D+00
   Bfn.  Coefficient  Atom+Function         Bfn.  Coefficient  Atom+Function  
  ----- ------------  ---------------      ----- ------------  ---------------
    89      2.552434   6 C  s               104     -2.389645   7 C  s         
    88      1.206256   6 C  s                96     -1.130730   6 C  dxx       
   103     -1.129323   7 C  s                99     -1.096934   6 C  dyy       
   111      1.083366   7 C  dxx             101     -1.045439   6 C  dzz       
   114      1.002222   7 C  dyy             116      0.978763   7 C  dzz       

 Vector  167  Occ=0.000000D+00  E= 2.947148D+00  Symmetry=e'
              MO Center=  1.4D-01, -9.7D-01,  3.8D-17, r^2= 4.4D+00
   Bfn.  Coefficient  Atom+Function         Bfn.  Coefficient  Atom+Function  
  ----- ------------  ---------------      ----- ------------  ---------------
   119      2.853311   8 C  s               104     -1.567635   7 C  s         
   118      1.348447   8 C  s                89     -1.285676   6 C  s         
   129     -1.280202   8 C  dyy             126     -1.210055   8 C  dxx       
   131     -1.168674   8 C  dzz             124      1.137456   8 C  py        
    13      0.938813   1 Fe py              103     -0.740849   7 C  s         

 Vector  168  Occ=0.000000D+00  E= 2.977104D+00  Symmetry=a2"
              MO Center= -3.0D-16, -6.0D-16,  1.5D-13, r^2= 5.4D+00
   Bfn.  Coefficient  Atom+Function         Bfn.  Coefficient  Atom+Function  
  ----- ------------  ---------------      ----- ------------  ---------------
    29      3.628634   2 C  s                44     -3.628634   3 C  s         
    14     -1.791046   1 Fe pz               35     -1.186688   2 C  pz        
    50     -1.186688   3 C  pz               36     -1.105264   2 C  dxx       
    39     -1.105264   2 C  dyy              51      1.105264   3 C  dxx       
    54      1.105264   3 C  dyy              28      1.071714   2 C  s         

 Vector  169  Occ=0.000000D+00  E= 3.161258D+00  Symmetry=a1'
              MO Center=  1.4D-13,  6.1D-14, -3.2D-14, r^2= 5.7D+00
   Bfn.  Coefficient  Atom+Function         Bfn.  Coefficient  Atom+Function  
  ----- ------------  ---------------      ----- ------------  ---------------
     4      5.088959   1 Fe s                89     -4.359231   6 C  s         
   104     -4.359231   7 C  s               119     -4.359231   8 C  s         
     5     -3.248282   1 Fe s                29      3.047569   2 C  s         
    44      3.047569   3 C  s                21      2.343045   1 Fe dxx       
    24      2.343045   1 Fe dyy             108     -1.559449   7 C  px        

 Vector  170  Occ=0.000000D+00  E= 3.362968D+00  Symmetry=a1'
              MO Center=  1.4D-13,  5.1D-14, -8.4D-14, r^2= 5.6D+00
   Bfn.  Coefficient  Atom+Function         Bfn.  Coefficient  Atom+Function  
  ----- ------------  ---------------      ----- ------------  ---------------
     4      9.071676   1 Fe s                 5     -6.808899   1 Fe s         
    26      6.587698   1 Fe dzz              29     -6.365172   2 C  s         
    44     -6.365172   3 C  s                89     -3.282084   6 C  s         
   104     -3.282084   7 C  s               119     -3.282084   8 C  s         
    21      3.246616   1 Fe dxx              24      3.246616   1 Fe dyy       

 Vector  171  Occ=0.000000D+00  E= 4.095743D+00  Symmetry=e'
              MO Center= -5.2D-01,  1.4D+00, -3.9D-17, r^2= 8.2D+00
   Bfn.  Coefficient  Atom+Function         Bfn.  Coefficient  Atom+Function  
  ----- ------------  ---------------      ----- ------------  ---------------
   149     -4.635416  10 O  s               134      4.416902   9 O  s         
   156      1.497336  10 O  dxx             159      1.440180  10 O  dyy       
   161      1.426608  10 O  dzz             144     -1.411287   9 O  dyy       
   141     -1.387755   9 O  dxx             146     -1.359358   9 O  dzz       
   108     -1.239143   7 C  px              104      1.012042   7 C  s         

 Vector  172  Occ=0.000000D+00  E= 4.095743D+00  Symmetry=e'
              MO Center=  5.2D-01, -1.4D+00, -3.5D-17, r^2= 8.2D+00
   Bfn.  Coefficient  Atom+Function         Bfn.  Coefficient  Atom+Function  
  ----- ------------  ---------------      ----- ------------  ---------------
   164      5.226358  11 O  s               134     -2.802417   9 O  s         
   149     -2.423941  10 O  s               174     -1.693501  11 O  dyy       
   171     -1.618502  11 O  dxx             176     -1.608478  11 O  dzz       
   124      1.434531   8 C  py              119     -1.141061   8 C  s         
   141      0.906506   9 O  dxx             144      0.869418   9 O  dyy       

 Vector  173  Occ=0.000000D+00  E= 4.123976D+00  Symmetry=a2"
              MO Center=  3.4D-17,  2.3D-17, -1.0D-14, r^2= 1.0D+01
   Bfn.  Coefficient  Atom+Function         Bfn.  Coefficient  Atom+Function  
  ----- ------------  ---------------      ----- ------------  ---------------
    59      4.687604   4 O  s                74     -4.687604   5 O  s         
    71     -1.475288   4 O  dzz              86      1.475288   5 O  dzz       
    29     -1.454958   2 C  s                44      1.454958   3 C  s         
    66     -1.430869   4 O  dxx              69     -1.430869   4 O  dyy       
    81      1.430869   5 O  dxx              84      1.430869   5 O  dyy       

 Vector  174  Occ=0.000000D+00  E= 4.203971D+00  Symmetry=a1'
              MO Center=  2.2D-13, -9.4D-13,  5.4D-15, r^2= 9.2D+00
   Bfn.  Coefficient  Atom+Function         Bfn.  Coefficient  Atom+Function  
  ----- ------------  ---------------      ----- ------------  ---------------
     4      9.571700   1 Fe s                 3     -4.335971   1 Fe s         
     5     -3.699564   1 Fe s               134     -3.524897   9 O  s         
   149     -3.524897  10 O  s               164     -3.524897  11 O  s         
   108     -2.108155   7 C  px              124     -2.108155   8 C  py        
    93      1.543277   6 C  px               94      1.543277   6 C  py        

 Vector  175  Occ=0.000000D+00  E= 4.323267D+00  Symmetry=a1'
              MO Center=  1.3D-14, -6.3D-14, -9.7D-15, r^2= 1.0D+01
   Bfn.  Coefficient  Atom+Function         Bfn.  Coefficient  Atom+Function  
  ----- ------------  ---------------      ----- ------------  ---------------
    59      5.123157   4 O  s                74      5.123157   5 O  s         
     4     -3.831507   1 Fe s                29     -3.510631   2 C  s         
    44     -3.510631   3 C  s                 3      2.393831   1 Fe s         
    26      2.349669   1 Fe dzz              89      1.787644   6 C  s         
   104      1.787644   7 C  s               119      1.787644   8 C  s         

 Vector  176  Occ=0.000000D+00  E= 5.125361D+00  Symmetry=a1'
              MO Center=  2.5D-15,  1.2D-14, -2.4D-14, r^2= 5.6D+00
   Bfn.  Coefficient  Atom+Function         Bfn.  Coefficient  Atom+Function  
  ----- ------------  ---------------      ----- ------------  ---------------
     3      7.637743   1 Fe s                 4     -5.791506   1 Fe s         
    20     -4.456258   1 Fe dzz              15     -4.417079   1 Fe dxx       
    18     -4.417079   1 Fe dyy               5     -3.545488   1 Fe s         
    29      2.997007   2 C  s                44      2.997007   3 C  s         
    59     -2.999813   4 O  s                74     -2.999813   5 O  s         


 center of mass
 --------------
 x =  -0.00000000 y =  -0.00000000 z =   0.00000000

 moments of inertia (a.u.)
 ------------------
        2255.012792094188           0.000000000000           0.000000000000
           0.000000000000        2255.012792094188           0.000000000000
           0.000000000000           0.000000000000        1950.260605202691

     Multipole analysis of the density
     ---------------------------------

     L   x y z        total         alpha         beta         nuclear
     -   - - -        -----         -----         ----         -------
     0   0 0 0     -0.000000    -48.000000    -48.000000     96.000000

     1   1 0 0      0.000000      0.000000      0.000000     -0.000000
     1   0 1 0     -0.000000     -0.000000     -0.000000     -0.000000
     1   0 0 1     -0.000000     -0.000000     -0.000000      0.000000

     2   2 0 0    -53.630866   -270.658512   -270.658512    487.686157
     2   1 1 0      0.000000      0.000000      0.000000     -0.000000
     2   1 0 1      0.000000      0.000000      0.000000     -0.000000
     2   0 2 0    -53.630866   -270.658512   -270.658512    487.686157
     2   0 1 1      0.000000      0.000000      0.000000      0.000000
     2   0 0 2    -52.665984   -346.383179   -346.383179    640.100373


 Task  times  cpu:        9.9s     wall:       10.0s


                                NWChem Input Module
                                -------------------


 Summary of allocated global arrays
-----------------------------------
  No active global arrays



                         GA Statistics for process    0
                         ------------------------------

       create   destroy   get      put      acc     scatter   gather  read&inc
calls: 1712     1712     1.75e+05 8.58e+04 1.41e+05    0        0     3.13e+04 
number of processes/call 1.16e+00 1.09e+00 1.02e+00 0.00e+00 0.00e+00
bytes total:             8.64e+08 2.96e+08 4.74e+08 0.00e+00 0.00e+00 2.50e+05
bytes remote:            4.76e+08 1.73e+08 2.69e+08 0.00e+00 0.00e+00 0.00e+00
Max memory consumed for GA by this process: 2448160 bytes

MA_summarize_allocated_blocks: starting scan ...
heap block 'gridpts', handle 102, address 0x563d599aaf00:
	type of elements:		double precision
	number of elements:		34109216
	address of client space:	0x563d599aaf80
	index for client space:		12833283
	total number of bytes:		272873864
MA_summarize_allocated_blocks: scan completed: 1 heap block, 0 stack blocks
MA usage statistics:

	allocation statistics:
					      heap	     stack
					      ----	     -----
	current number of blocks	         1	         0
	maximum number of blocks	        34	        69
	current total bytes		 272873864	         0
	maximum total bytes		 274798040	  38736808
	maximum total K-bytes		    274799	     38737
	maximum total M-bytes		       275	        39


                                     CITATION
                                     --------
                Please cite the following reference when publishing
                           results obtained with NWChem:

                 M. Valiev, E.J. Bylaska, N. Govind, K. Kowalski,
              T.P. Straatsma, H.J.J. van Dam, D. Wang, J. Nieplocha,
                        E. Apra, T.L. Windus, W.A. de Jong
                 "NWChem: a comprehensive and scalable open-source
                  solution for large scale molecular simulations"
                      Comput. Phys. Commun. 181, 1477 (2010)
                           doi:10.1016/j.cpc.2010.04.018

                                      AUTHORS
                                      -------
          E. Apra, E. J. Bylaska, W. A. de Jong, N. Govind, K. Kowalski,
       T. P. Straatsma, M. Valiev, H. J. J. van Dam, D. Wang, T. L. Windus,
        J. Hammond, J. Autschbach, K. Bhaskaran-Nair, J. Brabec, K. Lopata,
    S. A. Fischer, S. Krishnamoorthy, M. Jacquelin, W. Ma, M. Klemm, O. Villa,
      Y. Chen, V. Anisimov, F. Aquino, S. Hirata, M. T. Hackler, V. Konjkov,
            D. Mejia-Rodriguez, T. Risthaus, M. Malagoli, A. Marenich,
   A. Otero-de-la-Roza, J. Mullin, P. Nichols, R. Peverati, J. Pittner, Y. Zhao,
        P.-D. Fan, A. Fonari, M. J. Williamson, R. J. Harrison, J. R. Rehr,
      M. Dupuis, D. Silverstein, D. M. A. Smith, J. Nieplocha, V. Tipparaju,
    M. Krishnan, B. E. Van Kuiken, A. Vazquez-Mayagoitia, L. Jensen, M. Swart,
      Q. Wu, T. Van Voorhis, A. A. Auer, M. Nooijen, L. D. Crosby, E. Brown,
      G. Cisneros, G. I. Fann, H. Fruchtl, J. Garza, K. Hirao, R. A. Kendall,
      J. A. Nichols, K. Tsemekhman, K. Wolinski, J. Anchell, D. E. Bernholdt,
      P. Borowski, T. Clark, D. Clerc, H. Dachsel, M. J. O. Deegan, K. Dyall,
    D. Elwood, E. Glendening, M. Gutowski, A. C. Hess, J. Jaffe, B. G. Johnson,
     J. Ju, R. Kobayashi, R. Kutteh, Z. Lin, R. Littlefield, X. Long, B. Meng,
      T. Nakajima, S. Niu, L. Pollack, M. Rosing, K. Glaesemann, G. Sandrone,
      M. Stave, H. Taylor, G. Thomas, J. H. van Lenthe, A. T. Wong, Z. Zhang.

 Total times  cpu:       26.9s     wall:       27.1s
