 argument  1 = /home/list1234/source/nwchem-6.8.1-release/QA/tests/dft_sicperth2o/dft_sicperth2o.nw



============================== echo of input deck ==============================
echo

title "h2o_sicpert"

start h2o_sicpert


geometry units au
 O 0       0        0
 H 0       1.430   -1.107
 H 0      -1.430   -1.107
end


basis
  O library 6-31g*
  H library 6-31g*
end

dft
 xc slater 1.0 vwn_5 1.0
 mult 1
 sic perturbative
end

task dft energy
================================================================================


                                         
                                         


              Northwest Computational Chemistry Package (NWChem) 6.8
              ------------------------------------------------------


                    Environmental Molecular Sciences Laboratory
                       Pacific Northwest National Laboratory
                                Richland, WA 99352

                              Copyright (c) 1994-2018
                       Pacific Northwest National Laboratory
                            Battelle Memorial Institute

             NWChem is an open-source computational chemistry package
                        distributed under the terms of the
                      Educational Community License (ECL) 2.0
             A copy of the license is included with this distribution
                              in the LICENSE.TXT file

                                  ACKNOWLEDGMENT
                                  --------------

            This software and its documentation were developed at the
            EMSL at Pacific Northwest National Laboratory, a multiprogram
            national laboratory, operated for the U.S. Department of Energy
            by Battelle under Contract Number DE-AC05-76RL01830. Support
            for this work was provided by the Department of Energy Office
            of Biological and Environmental Research, Office of Basic
            Energy Sciences, and the Office of Advanced Scientific Computing.


           Job information
           ---------------

    hostname        = list1234-B360M-H
    program         = /home/list1234/source/nwchem-6.8.1-release/bin/LINUX64/nwchem
    date            = Sun Jun 30 07:58:26 2019

    compiled        = Sun_Jun_30_05:21:11_2019
    source          = /home/list1234/source/nwchem-6.8.1-release
    nwchem branch   = Development
    nwchem revision = N/A
    ga revision     = 5.6.5
    use scalapack   = T
    input           = /home/list1234/source/nwchem-6.8.1-release/QA/tests/dft_sicperth2o/dft_sicperth2o.nw
    prefix          = h2o_sicpert.
    data base       = ./h2o_sicpert.db
    status          = startup
    nproc           =        4
    time left       =     -1s



           Memory information
           ------------------

    heap     =   86247164 doubles =    658.0 Mbytes
    stack    =   86247169 doubles =    658.0 Mbytes
    global   =  172494336 doubles =   1316.0 Mbytes (distinct from heap & stack)
    total    =  344988669 doubles =   2632.1 Mbytes
    verify   = yes
    hardfail = no 


           Directory information
           ---------------------

  0 permanent = .
  0 scratch   = .




                                NWChem Input Module
                                -------------------


                                    h2o_sicpert
                                    -----------
 C2V symmetry detected

          ------
          auto-z
          ------
  no constraints, skipping    0.0000000000000000     
  no constraints, skipping    0.0000000000000000     


                             Geometry "geometry" -> ""
                             -------------------------

 Output coordinates in a.u. (scale by  1.000000000 to convert to a.u.)

  No.       Tag          Charge          X              Y              Z
 ---- ---------------- ---------- -------------- -------------- --------------
    1 O                    8.0000     0.00000000     0.00000000     0.22140000
    2 H                    1.0000    -1.43000000     0.00000000    -0.88560000
    3 H                    1.0000     1.43000000     0.00000000    -0.88560000

      Atomic Mass 
      ----------- 

      O                 15.994910
      H                  1.007825


 Effective nuclear repulsion energy (a.u.)       9.1971984402

            Nuclear Dipole moment (a.u.) 
            ----------------------------
        X                 Y               Z
 ---------------- ---------------- ----------------
     0.0000000000     0.0000000000     0.0000000000

      Symmetry information
      --------------------

 Group name             C2v       
 Group number             16
 Group order               4
 No. of unique centers     2

      Symmetry unique atoms

     1    2



                                Z-matrix (autoz)
                                -------- 

 Units are Angstrom for bonds and degrees for angles

      Type          Name      I     J     K     L     M      Value
      ----------- --------  ----- ----- ----- ----- ----- ----------
    1 Stretch                  1     2                       0.95697
    2 Stretch                  1     3                       0.95697
    3 Bend                     2     1     3               104.51124


            XYZ format geometry
            -------------------
     3
 geometry
 O                     0.00000000     0.00000000     0.11715984
 H                    -0.75672347     0.00000000    -0.46863937
 H                     0.75672347     0.00000000    -0.46863937

 ==============================================================================
                                internuclear distances
 ------------------------------------------------------------------------------
       center one      |      center two      | atomic units |       a.u.
 ------------------------------------------------------------------------------
    2 H                |   1 O                |     1.80841  |     1.80841
    3 H                |   1 O                |     1.80841  |     1.80841
 ------------------------------------------------------------------------------
                         number of included internuclear distances:          2
 ==============================================================================



 ==============================================================================
                                 internuclear angles
 ------------------------------------------------------------------------------
        center 1       |       center 2       |       center 3       |  degrees
 ------------------------------------------------------------------------------
    2 H                |   1 O                |   3 H                |   104.51
 ------------------------------------------------------------------------------
                            number of included internuclear angles:          1
 ==============================================================================



                      Basis "ao basis" -> "" (cartesian)
                      -----
  O (Oxygen)
  ----------
            Exponent  Coefficients 
       -------------- ---------------------------------------------------------
  1 S  5.48467170E+03  0.001831
  1 S  8.25234950E+02  0.013950
  1 S  1.88046960E+02  0.068445
  1 S  5.29645000E+01  0.232714
  1 S  1.68975700E+01  0.470193
  1 S  5.79963530E+00  0.358521

  2 S  1.55396160E+01 -0.110778
  2 S  3.59993360E+00 -0.148026
  2 S  1.01376180E+00  1.130767

  3 P  1.55396160E+01  0.070874
  3 P  3.59993360E+00  0.339753
  3 P  1.01376180E+00  0.727159

  4 S  2.70005800E-01  1.000000

  5 P  2.70005800E-01  1.000000

  6 D  8.00000000E-01  1.000000

  H (Hydrogen)
  ------------
            Exponent  Coefficients 
       -------------- ---------------------------------------------------------
  1 S  1.87311370E+01  0.033495
  1 S  2.82539370E+00  0.234727
  1 S  6.40121700E-01  0.813757

  2 S  1.61277800E-01  1.000000



 Summary of "ao basis" -> "" (cartesian)
 ------------------------------------------------------------------------------
       Tag                 Description            Shells   Functions and Types
 ---------------- ------------------------------  ------  ---------------------
 O                           6-31g*                  6       15   3s2p1d
 H                           6-31g*                  2        2   2s



                                 NWChem DFT Module
                                 -----------------


                                    h2o_sicpert




 Summary of "ao basis" -> "ao basis" (cartesian)
 ------------------------------------------------------------------------------
       Tag                 Description            Shells   Functions and Types
 ---------------- ------------------------------  ------  ---------------------
 O                           6-31g*                  6       15   3s2p1d
 H                           6-31g*                  2        2   2s


      Symmetry analysis of basis
      --------------------------

        a1         10
        a2          1
        b1          5
        b2          3

  Caching 1-el integrals 

            General Information
            -------------------
          SCF calculation type: DFT
          Wavefunction type:  closed shell.
          No. of atoms     :     3
          No. of electrons :    10
           Alpha electrons :     5
            Beta electrons :     5
          Charge           :     0
          Spin multiplicity:     1
          Use of symmetry is: on ; symmetry adaption is: on 
          Maximum number of iterations:  30
          AO basis - number of functions:    19
                     number of shells:    10
          Convergence on energy requested:  1.00D-06
          Convergence on density requested:  1.00D-05
          Convergence on gradient requested:  5.00D-04

              XC Information
              --------------
                        Slater Exchange Functional  1.000 local    
                      VWN V Correlation Functional  1.000 local    

              SIC perturbative approximation

             Grid Information
             ----------------
          Grid used for XC integration:  medium    
          Radial quadrature: Mura-Knowles        
          Angular quadrature: Lebedev. 
          Tag              B.-S. Rad. Rad. Pts. Rad. Cut. Ang. Pts.
          ---              ---------- --------- --------- ---------
          O                   0.60       49           5.0       434
          H                   0.35       45           6.0       434
          Grid pruning is: on 
          Number of quadrature shells:    94
          Spatial weights used:  Erf1

          Convergence Information
          -----------------------
          Convergence aids based upon iterative change in 
          total energy or number of iterations. 
          Levelshifting, if invoked, occurs when the 
          HOMO/LUMO gap drops below (HL_TOL):  1.00D-02
          DIIS, if invoked, will attempt to extrapolate 
          using up to (NFOCK): 10 stored Fock matrices.

                    Damping( 0%)  Levelshifting(0.5)       DIIS
                  --------------- ------------------- ---------------
          dE  on:    start            ASAP                start   
          dE off:    2 iters         30 iters            30 iters 


      Screening Tolerance Information
      -------------------------------
          Density screening/tol_rho:  1.00D-10
          AO Gaussian exp screening on grid/accAOfunc:  14
          CD Gaussian exp screening on grid/accCDfunc:  20
          XC Gaussian exp screening on grid/accXCfunc:  20
          Schwarz screening/accCoul:  1.00D-08


      Superposition of Atomic Density Guess
      -------------------------------------

 Sum of atomic energies:         -75.75081731

      Non-variational initial energy
      ------------------------------

 Total energy =     -75.919952
 1-e energy   =    -121.737767
 2-e energy   =      36.620616
 HOMO         =      -0.470482
 LUMO         =       0.114886


      Symmetry analysis of molecular orbitals - initial
      -------------------------------------------------

  Numbering of irreducible representations: 

     1 a1          2 a2          3 b1          4 b2      

  Orbital symmetries:

     1 a1          2 a1          3 b1          4 a1          5 b2      
     6 a1          7 b1          8 b1          9 a1         10 b2      
    11 a1         12 b1         13 a1         14 a1         15 a2      

   Time after variat. SCF:      0.1
   Time prior to 1st pass:      0.1

 Grid_pts file          = ./h2o_sicpert.gridpts.0
 Record size in doubles =  12289        No. of grid_pts per rec  =   3070
 Max. records in memory =      5        Max. recs in file   = 253312716


           Memory utilization after 1st SCF pass: 
           Heap Space remaining (MW):       51.74            51743988
          Stack Space remaining (MW):       86.25            86246900

   convergence    iter        energy       DeltaE   RMS-Dens  Diis-err    time
 ---------------- ----- ----------------- --------- --------- ---------  ------
 d= 0,ls=0.0,diis     1    -75.8064260728 -8.50D+01  4.91D-02  5.71D-01     0.1
 d= 0,ls=0.0,diis     2    -75.7726970896  3.37D-02  3.07D-02  7.89D-01     0.1
 d= 0,ls=0.0,diis     3    -75.8393893602 -6.67D-02  5.49D-03  5.68D-02     0.1
 d= 0,ls=0.0,diis     4    -75.8442900187 -4.90D-03  6.31D-04  3.95D-04     0.1
 d= 0,ls=0.0,diis     5    -75.8443301482 -4.01D-05  4.80D-05  4.46D-07     0.1
 d= 0,ls=0.0,diis     6    -75.8443302110 -6.28D-08  4.82D-06  2.98D-08     0.1
            Foster-Boys orbital localization for the SIC approximation
            ----------------------------------------------------------

           iter   Max. dipole2   Mean dipole2    Converge
           ----   ------------   ------------   ---------
              1       0.17011403       0.06595715    0.00D+00
              2       0.80522128       0.51639801    7.85D-01
              3       0.76888279       0.52386459    1.01D-01
              4       0.77701197       0.52431454    2.12D-02
              5       0.77610311       0.52433061    3.86D-03
              6       0.77607100       0.52433143    1.05D-03
              7       0.77603924       0.52433146    2.03D-04
              8       0.77603509       0.52433146    4.36D-05
              9       0.77603419       0.52433146    9.12D-06
             10       0.77603407       0.52433146    2.04D-06
             11       0.77603405       0.52433146    4.74D-07
             12       0.77603404       0.52433146    1.15D-07
             13       0.77603404       0.52433146    2.89D-08
             14       0.77603404       0.52433146    6.45D-09

    5     1( 0.68)     2( 0.33)     3(-0.01)
    4     1( 1.02)     2(-0.01)     3(-0.01)
    3     1( 0.68)     3( 0.33)     2(-0.01)
    2     1( 1.02)     3(-0.01)     2(-0.01)
    1     1( 1.00)
 Grid integrated density:       0.274713462653
 Requested integration accuracy:   0.10E-05
 Grid integrated density:       0.357820012024
 Requested integration accuracy:   0.10E-05
 Grid integrated density:       1.725286985924
 Requested integration accuracy:   0.10E-05
 Grid integrated density:       1.642180369592
 Requested integration accuracy:   0.10E-05


         Total DFT energy =      -76.619647546642
      One electron energy =     -123.070443586474
           Coulomb energy =       46.799304596172
    Exchange-Corr. energy =       -9.545706996538
 Nuclear repulsion energy =        9.197198440198

 Numeric. integr. density =       10.000001227660

     Total iterative time =      0.1s



                  Occupations of the irreducible representations
                  ----------------------------------------------

                     irrep           alpha         beta
                     --------     --------     --------
                     a1                3.0          3.0
                     a2                0.0          0.0
                     b1                1.0          1.0
                     b2                1.0          1.0


                       DFT Final Molecular Orbital Analysis
                       ------------------------------------

 Vector    1  Occ=2.000000D+00  E=-1.859871D+01  Symmetry=a1
              MO Center=  1.7D-11, -5.6D-12,  1.2D-01, r^2= 1.6D-02
   Bfn.  Coefficient  Atom+Function         Bfn.  Coefficient  Atom+Function  
  ----- ------------  ---------------      ----- ------------  ---------------
     1      1.006198  1 O  s                  6     -0.028007  1 O  s          

 Vector    2  Occ=2.000000D+00  E=-9.033272D-01  Symmetry=a1
              MO Center=  8.5D-12,  2.7D-01,  2.7D-01, r^2= 4.8D-01
   Bfn.  Coefficient  Atom+Function         Bfn.  Coefficient  Atom+Function  
  ----- ------------  ---------------      ----- ------------  ---------------
     4      0.452319  1 O  py                 6      0.413833  1 O  s          
     8      0.361509  1 O  py                 5      0.281295  1 O  pz         
     2      0.276419  1 O  s                  9      0.203685  1 O  pz         
     1     -0.080470  1 O  s                 17     -0.064115  2 H  s          
    19     -0.064115  3 H  s                 14     -0.045989  1 O  dyz        

 Vector    3  Occ=2.000000D+00  E=-4.676981D-01  Symmetry=b1
              MO Center=  4.1D-01, -1.4D-09, -2.2D-01, r^2= 4.8D-01
   Bfn.  Coefficient  Atom+Function         Bfn.  Coefficient  Atom+Function  
  ----- ------------  ---------------      ----- ------------  ---------------
     3      0.370082  1 O  px                18      0.298811  3 H  s          
     5     -0.288545  1 O  pz                 2      0.211431  1 O  s          
     7      0.188840  1 O  px                 9     -0.178157  1 O  pz         
    19      0.148656  3 H  s                  6      0.108490  1 O  s          
     1     -0.063952  1 O  s                 17     -0.054418  2 H  s          

 Vector    4  Occ=2.000000D+00  E=-3.107451D-01  Symmetry=a1
              MO Center= -1.9D-10, -2.7D-01,  2.7D-01, r^2= 4.8D-01
   Bfn.  Coefficient  Atom+Function         Bfn.  Coefficient  Atom+Function  
  ----- ------------  ---------------      ----- ------------  ---------------
     4      0.452319  1 O  py                 6     -0.413833  1 O  s          
     8      0.361509  1 O  py                 5     -0.281295  1 O  pz         
     2     -0.276419  1 O  s                  9     -0.203685  1 O  pz         
     1      0.080470  1 O  s                 17      0.064115  2 H  s          
    19      0.064115  3 H  s                 14     -0.045989  1 O  dyz        

 Vector    5  Occ=2.000000D+00  E=-2.310741D-01  Symmetry=b2
              MO Center= -4.1D-01, -1.2D-09, -2.2D-01, r^2= 4.8D-01
   Bfn.  Coefficient  Atom+Function         Bfn.  Coefficient  Atom+Function  
  ----- ------------  ---------------      ----- ------------  ---------------
     3      0.370082  1 O  px                16     -0.298811  2 H  s          
     5      0.288545  1 O  pz                 2     -0.211431  1 O  s          
     7      0.188840  1 O  px                 9      0.178157  1 O  pz         
    17     -0.148656  2 H  s                  6     -0.108490  1 O  s          
     1      0.063952  1 O  s                 19      0.054418  3 H  s          

 Vector    6  Occ=0.000000D+00  E= 4.307299D-02  Symmetry=a1
              MO Center=  2.8D-16, -7.4D-19, -6.1D-01, r^2= 2.4D+00
   Bfn.  Coefficient  Atom+Function         Bfn.  Coefficient  Atom+Function  
  ----- ------------  ---------------      ----- ------------  ---------------
     6      1.225275  1 O  s                 17     -0.958356  2 H  s          
    19     -0.958356  3 H  s                  9     -0.450994  1 O  pz         
     5     -0.290188  1 O  pz                 2      0.146053  1 O  s          
    16     -0.103450  2 H  s                 18     -0.103450  3 H  s          
     1     -0.102431  1 O  s                 13     -0.050313  1 O  dyy        

 Vector    7  Occ=0.000000D+00  E= 1.268050D-01  Symmetry=b1
              MO Center= -5.6D-16, -2.8D-33, -5.5D-01, r^2= 2.4D+00
   Bfn.  Coefficient  Atom+Function         Bfn.  Coefficient  Atom+Function  
  ----- ------------  ---------------      ----- ------------  ---------------
    17      1.267590  2 H  s                 19     -1.267590  3 H  s          
     7      0.737671  1 O  px                 3      0.434737  1 O  px         
    16      0.120497  2 H  s                 18     -0.120497  3 H  s          
    12     -0.028862  1 O  dxz        

 Vector    8  Occ=0.000000D+00  E= 7.441819D-01  Symmetry=b1
              MO Center= -2.5D-15, -3.0D-17, -1.3D-01, r^2= 1.6D+00
   Bfn.  Coefficient  Atom+Function         Bfn.  Coefficient  Atom+Function  
  ----- ------------  ---------------      ----- ------------  ---------------
    16      0.836553  2 H  s                 18     -0.836553  3 H  s          
    17     -0.637350  2 H  s                 19      0.637350  3 H  s          
     7      0.461450  1 O  px                12      0.354794  1 O  dxz        
     3      0.153145  1 O  px         

 Vector    9  Occ=0.000000D+00  E= 8.119768D-01  Symmetry=a1
              MO Center=  2.8D-15, -6.2D-16,  1.9D-01, r^2= 1.2D+00
   Bfn.  Coefficient  Atom+Function         Bfn.  Coefficient  Atom+Function  
  ----- ------------  ---------------      ----- ------------  ---------------
     5      0.873247  1 O  pz                 9     -0.703785  1 O  pz         
    16      0.468276  2 H  s                 18      0.468276  3 H  s          
    17     -0.395472  2 H  s                 19     -0.395472  3 H  s          
     6     -0.303482  1 O  s                 10      0.191802  1 O  dxx        
     2      0.154850  1 O  s                 15      0.100867  1 O  dzz        

 Vector   10  Occ=0.000000D+00  E= 8.285036D-01  Symmetry=b2
              MO Center=  8.9D-18, -1.3D-15,  1.1D-01, r^2= 1.1D+00
   Bfn.  Coefficient  Atom+Function         Bfn.  Coefficient  Atom+Function  
  ----- ------------  ---------------      ----- ------------  ---------------
     8     -1.036005  1 O  py                 4      0.962707  1 O  py         
    14      0.029566  1 O  dyz        

 Vector   11  Occ=0.000000D+00  E= 8.536425D-01  Symmetry=a1
              MO Center= -4.4D-16,  1.4D-15, -9.5D-02, r^2= 1.6D+00
   Bfn.  Coefficient  Atom+Function         Bfn.  Coefficient  Atom+Function  
  ----- ------------  ---------------      ----- ------------  ---------------
     6      1.203930  1 O  s                  2     -0.773779  1 O  s          
    16      0.716498  2 H  s                 18      0.716498  3 H  s          
     9      0.658427  1 O  pz                17     -0.527307  2 H  s          
    19     -0.527307  3 H  s                 13     -0.334912  1 O  dyy        
     5     -0.265484  1 O  pz                15     -0.238902  1 O  dzz        

 Vector   12  Occ=0.000000D+00  E= 9.992165D-01  Symmetry=b1
              MO Center=  3.0D-15, -3.6D-18,  7.5D-02, r^2= 1.6D+00
   Bfn.  Coefficient  Atom+Function         Bfn.  Coefficient  Atom+Function  
  ----- ------------  ---------------      ----- ------------  ---------------
     7      1.654834  1 O  px                 3     -0.982196  1 O  px         
    17      0.986284  2 H  s                 19     -0.986284  3 H  s          
    16     -0.030680  2 H  s                 18      0.030680  3 H  s          

 Vector   13  Occ=0.000000D+00  E= 1.136704D+00  Symmetry=a1
              MO Center= -3.0D-15, -7.1D-18, -3.6D-01, r^2= 1.5D+00
   Bfn.  Coefficient  Atom+Function         Bfn.  Coefficient  Atom+Function  
  ----- ------------  ---------------      ----- ------------  ---------------
     6      3.688575  1 O  s                  2     -1.498679  1 O  s          
     9     -1.063689  1 O  pz                17     -0.813591  2 H  s          
    19     -0.813591  3 H  s                 10     -0.662793  1 O  dxx        
    15     -0.387511  1 O  dzz                5      0.363887  1 O  pz         
    16     -0.330566  2 H  s                 18     -0.330566  3 H  s          

 Vector   14  Occ=0.000000D+00  E= 1.658913D+00  Symmetry=a1
              MO Center= -5.3D-17,  4.9D-17,  1.7D-01, r^2= 6.2D-01
   Bfn.  Coefficient  Atom+Function         Bfn.  Coefficient  Atom+Function  
  ----- ------------  ---------------      ----- ------------  ---------------
    15      1.010085  1 O  dzz               10     -0.579930  1 O  dxx        
    13     -0.358379  1 O  dyy                6     -0.280321  1 O  s          
     9      0.155854  1 O  pz                 2      0.098681  1 O  s          
    16      0.092117  2 H  s                 18      0.092117  3 H  s          
    17      0.047187  2 H  s                 19      0.047187  3 H  s          

 Vector   15  Occ=0.000000D+00  E= 1.673461D+00  Symmetry=a2
              MO Center=  9.2D-17,  3.3D-17,  1.2D-01, r^2= 6.1D-01
   Bfn.  Coefficient  Atom+Function         Bfn.  Coefficient  Atom+Function  
  ----- ------------  ---------------      ----- ------------  ---------------
    11      1.732051  1 O  dxy        

 Vector   16  Occ=0.000000D+00  E= 1.711516D+00  Symmetry=b2
              MO Center= -1.1D-16,  1.4D-20,  1.4D-01, r^2= 6.1D-01
   Bfn.  Coefficient  Atom+Function         Bfn.  Coefficient  Atom+Function  
  ----- ------------  ---------------      ----- ------------  ---------------
    14      1.730577  1 O  dyz                8      0.036913  1 O  py         

 Vector   17  Occ=0.000000D+00  E= 2.223788D+00  Symmetry=a1
              MO Center= -2.3D-16,  9.1D-18, -1.0D-04, r^2= 8.3D-01
   Bfn.  Coefficient  Atom+Function         Bfn.  Coefficient  Atom+Function  
  ----- ------------  ---------------      ----- ------------  ---------------
     6      1.573528  1 O  s                 13     -1.127673  1 O  dyy        
    16     -0.837123  2 H  s                 18     -0.837123  3 H  s          
    10      0.756239  1 O  dxx                9     -0.749111  1 O  pz         
     2     -0.515428  1 O  s                 17     -0.148056  2 H  s          
    19     -0.148056  3 H  s                 15      0.056809  1 O  dzz        

 Vector   18  Occ=0.000000D+00  E= 2.524506D+00  Symmetry=b1
              MO Center=  4.9D-17, -1.1D-22,  6.4D-02, r^2= 8.7D-01
   Bfn.  Coefficient  Atom+Function         Bfn.  Coefficient  Atom+Function  
  ----- ------------  ---------------      ----- ------------  ---------------
    12      2.224476  1 O  dxz               16     -0.953701  2 H  s          
    18      0.953701  3 H  s                  7     -0.880098  1 O  px         
    17      0.040893  2 H  s                 19     -0.040893  3 H  s          

 Vector   19  Occ=0.000000D+00  E= 3.478457D+00  Symmetry=a1
              MO Center= -6.9D-18,  4.8D-20,  1.2D-01, r^2= 1.0D+00
   Bfn.  Coefficient  Atom+Function         Bfn.  Coefficient  Atom+Function  
  ----- ------------  ---------------      ----- ------------  ---------------
     6      3.748752  1 O  s                 13     -1.584547  1 O  dyy        
    15     -1.559445  1 O  dzz               10     -1.536431  1 O  dxx        
    17     -0.573122  2 H  s                 19     -0.573122  3 H  s          
     1     -0.473536  1 O  s                  9     -0.336178  1 O  pz         
     2      0.268945  1 O  s                 16      0.123180  2 H  s          


 center of mass
 --------------
 x =   0.00000000 y =   0.00000000 z =   0.09751021

 moments of inertia (a.u.)
 ------------------
           2.193637940261           0.000000000000           0.000000000000
           0.000000000000           6.315440625261           0.000000000000
           0.000000000000           0.000000000000           4.121802685000

     Multipole analysis of the density
     ---------------------------------

     L   x y z        total         alpha         beta         nuclear
     -   - - -        -----         -----         ----         -------
     0   0 0 0     -0.000000     -5.000000     -5.000000     10.000000

     1   1 0 0      0.000000      0.000000      0.000000      0.000000
     1   0 1 0      0.000000      0.000000      0.000000      0.000000
     1   0 0 1     -0.836391     -0.418195     -0.418195      0.000000

     2   2 0 0     -3.178118     -3.633959     -3.633959      4.089800
     2   1 1 0      0.000000      0.000000      0.000000      0.000000
     2   1 0 1      0.000000      0.000000      0.000000      0.000000
     2   0 2 0     -5.383478     -2.691739     -2.691739      0.000000
     2   0 1 1      0.000000      0.000000      0.000000      0.000000
     2   0 0 2     -4.494260     -3.227489     -3.227489      1.960718


 Task  times  cpu:        0.1s     wall:        0.1s


                                NWChem Input Module
                                -------------------


 Summary of allocated global arrays
-----------------------------------
  No active global arrays



                         GA Statistics for process    0
                         ------------------------------

       create   destroy   get      put      acc     scatter   gather  read&inc
calls:  242      242     2075      737     1497        0        0      482     
number of processes/call 1.41e+00 1.23e+00 1.19e+00 0.00e+00 0.00e+00
bytes total:             1.43e+06 3.59e+05 9.26e+05 0.00e+00 0.00e+00 3.86e+03
bytes remote:            3.50e+05 7.06e+04 1.66e+05 0.00e+00 0.00e+00 0.00e+00
Max memory consumed for GA by this process: 78152 bytes

MA_summarize_allocated_blocks: starting scan ...
heap block 'gridpts', handle 104, address 0x55fc9b99b128:
	type of elements:		double precision
	number of elements:		34440093
	address of client space:	0x55fc9b99b180
	index for client space:		14066243
	total number of bytes:		275520840
MA_summarize_allocated_blocks: scan completed: 1 heap block, 0 stack blocks
MA usage statistics:

	allocation statistics:
					      heap	     stack
					      ----	     -----
	current number of blocks	         1	         0
	maximum number of blocks	        22	        56
	current total bytes		 275520840	         0
	maximum total bytes		 276025256	  22510824
	maximum total K-bytes		    276026	     22511
	maximum total M-bytes		       277	        23


                                     CITATION
                                     --------
                Please cite the following reference when publishing
                           results obtained with NWChem:

                 M. Valiev, E.J. Bylaska, N. Govind, K. Kowalski,
              T.P. Straatsma, H.J.J. van Dam, D. Wang, J. Nieplocha,
                        E. Apra, T.L. Windus, W.A. de Jong
                 "NWChem: a comprehensive and scalable open-source
                  solution for large scale molecular simulations"
                      Comput. Phys. Commun. 181, 1477 (2010)
                           doi:10.1016/j.cpc.2010.04.018

                                      AUTHORS
                                      -------
          E. Apra, E. J. Bylaska, W. A. de Jong, N. Govind, K. Kowalski,
       T. P. Straatsma, M. Valiev, H. J. J. van Dam, D. Wang, T. L. Windus,
        J. Hammond, J. Autschbach, K. Bhaskaran-Nair, J. Brabec, K. Lopata,
    S. A. Fischer, S. Krishnamoorthy, M. Jacquelin, W. Ma, M. Klemm, O. Villa,
      Y. Chen, V. Anisimov, F. Aquino, S. Hirata, M. T. Hackler, V. Konjkov,
            D. Mejia-Rodriguez, T. Risthaus, M. Malagoli, A. Marenich,
   A. Otero-de-la-Roza, J. Mullin, P. Nichols, R. Peverati, J. Pittner, Y. Zhao,
        P.-D. Fan, A. Fonari, M. J. Williamson, R. J. Harrison, J. R. Rehr,
      M. Dupuis, D. Silverstein, D. M. A. Smith, J. Nieplocha, V. Tipparaju,
    M. Krishnan, B. E. Van Kuiken, A. Vazquez-Mayagoitia, L. Jensen, M. Swart,
      Q. Wu, T. Van Voorhis, A. A. Auer, M. Nooijen, L. D. Crosby, E. Brown,
      G. Cisneros, G. I. Fann, H. Fruchtl, J. Garza, K. Hirao, R. A. Kendall,
      J. A. Nichols, K. Tsemekhman, K. Wolinski, J. Anchell, D. E. Bernholdt,
      P. Borowski, T. Clark, D. Clerc, H. Dachsel, M. J. O. Deegan, K. Dyall,
    D. Elwood, E. Glendening, M. Gutowski, A. C. Hess, J. Jaffe, B. G. Johnson,
     J. Ju, R. Kobayashi, R. Kutteh, Z. Lin, R. Littlefield, X. Long, B. Meng,
      T. Nakajima, S. Niu, L. Pollack, M. Rosing, K. Glaesemann, G. Sandrone,
      M. Stave, H. Taylor, G. Thomas, J. H. van Lenthe, A. T. Wong, Z. Zhang.

 Total times  cpu:        0.2s     wall:        0.2s
