 argument  1 = /home/list1234/source/nwchem-6.8.1-release/QA/tests/dft_mpwb1khf/dft_mpwb1khf.nw



============================== echo of input deck ==============================
echo
title "test4 MPWB1K/6-31+G* HF optimization "
start  dft_mpwb1khf

geometry
F        0.000000    0.000000    0.108786
H        0.000000    0.000000   -0.870284
end

basis
* library 6-31+G*
end

dft
xc  MPWB1K
mult 1
grid fine
end

task dft  optimize


================================================================================


                                         
                                         


              Northwest Computational Chemistry Package (NWChem) 6.8
              ------------------------------------------------------


                    Environmental Molecular Sciences Laboratory
                       Pacific Northwest National Laboratory
                                Richland, WA 99352

                              Copyright (c) 1994-2018
                       Pacific Northwest National Laboratory
                            Battelle Memorial Institute

             NWChem is an open-source computational chemistry package
                        distributed under the terms of the
                      Educational Community License (ECL) 2.0
             A copy of the license is included with this distribution
                              in the LICENSE.TXT file

                                  ACKNOWLEDGMENT
                                  --------------

            This software and its documentation were developed at the
            EMSL at Pacific Northwest National Laboratory, a multiprogram
            national laboratory, operated for the U.S. Department of Energy
            by Battelle under Contract Number DE-AC05-76RL01830. Support
            for this work was provided by the Department of Energy Office
            of Biological and Environmental Research, Office of Basic
            Energy Sciences, and the Office of Advanced Scientific Computing.


           Job information
           ---------------

    hostname        = list1234-B360M-H
    program         = /home/list1234/source/nwchem-6.8.1-release/bin/LINUX64/nwchem
    date            = Sun Jun 30 05:48:35 2019

    compiled        = Sun_Jun_30_05:21:11_2019
    source          = /home/list1234/source/nwchem-6.8.1-release
    nwchem branch   = Development
    nwchem revision = N/A
    ga revision     = 5.6.5
    use scalapack   = T
    input           = /home/list1234/source/nwchem-6.8.1-release/QA/tests/dft_mpwb1khf/dft_mpwb1khf.nw
    prefix          = dft_mpwb1khf.
    data base       = ./dft_mpwb1khf.db
    status          = startup
    nproc           =        4
    time left       =     -1s



           Memory information
           ------------------

    heap     =   86247164 doubles =    658.0 Mbytes
    stack    =   86247169 doubles =    658.0 Mbytes
    global   =  172494336 doubles =   1316.0 Mbytes (distinct from heap & stack)
    total    =  344988669 doubles =   2632.1 Mbytes
    verify   = yes
    hardfail = no 


           Directory information
           ---------------------

  0 permanent = .
  0 scratch   = .




                                NWChem Input Module
                                -------------------


                       test4 MPWB1K/6-31+G* HF optimization
                       ------------------------------------

 Scaling coordinates for geometry "geometry" by  1.889725989
 (inverse scale =  0.529177249)

 ORDER OF PRIMARY AXIS IS BEING SET TO 4
 C4V symmetry detected

          ------
          auto-z
          ------
  no constraints, skipping    0.0000000000000000     
  no constraints, skipping    0.0000000000000000     


                             Geometry "geometry" -> ""
                             -------------------------

 Output coordinates in angstroms (scale by  1.889725989 to convert to a.u.)

  No.       Tag          Charge          X              Y              Z
 ---- ---------------- ---------- -------------- -------------- --------------
    1 F                    9.0000     0.00000000     0.00000000     0.09790700
    2 H                    1.0000     0.00000000     0.00000000    -0.88116300

      Atomic Mass 
      ----------- 

      F                 18.998400
      H                  1.007825


 Effective nuclear repulsion energy (a.u.)       4.8644072855

            Nuclear Dipole moment (a.u.) 
            ----------------------------
        X                 Y               Z
 ---------------- ---------------- ----------------
     0.0000000000     0.0000000000     0.0000000000

      Symmetry information
      --------------------

 Group name             C4v       
 Group number             18
 Group order               8
 No. of unique centers     2

      Symmetry unique atoms

     1    2



                                Z-matrix (autoz)
                                -------- 

 Units are Angstrom for bonds and degrees for angles

      Type          Name      I     J     K     L     M      Value
      ----------- --------  ----- ----- ----- ----- ----- ----------
    1 Stretch                  1     2                       0.97907


            XYZ format geometry
            -------------------
     2
 geometry
 F                     0.00000000     0.00000000     0.09790700
 H                     0.00000000     0.00000000    -0.88116300



 Summary of "ao basis" -> "" (cartesian)
 ------------------------------------------------------------------------------
       Tag                 Description            Shells   Functions and Types
 ---------------- ------------------------------  ------  ---------------------
 *                          6-31+G*                   on all atoms 




                           NWChem Geometry Optimization
                           ----------------------------




                       test4 MPWB1K/6-31+G* HF optimization


  no constraints, skipping    0.0000000000000000     
 maximum gradient threshold         (gmax) =   0.000450
 rms gradient threshold             (grms) =   0.000300
 maximum cartesian step threshold   (xmax) =   0.001800
 rms cartesian step threshold       (xrms) =   0.001200
 fixed trust radius                (trust) =   0.300000
 maximum step size to saddle      (sadstp) =   0.100000
 energy precision                  (eprec) =   5.0D-06
 maximum number of steps          (nptopt) =   20
 initial hessian option           (inhess) =    0
 line search option               (linopt) =    1
 hessian update option            (modupd) =    1
 saddle point option              (modsad) =    0
 initial eigen-mode to follow     (moddir) =    0
 initial variable to follow       (vardir) =    0
 follow first negative mode     (firstneg) =    T
 apply conjugacy                    (opcg) =    F
 source of zmatrix                         =   autoz   


          -------------------
          Energy Minimization
          -------------------


 Names of Z-matrix variables 
    1         

 Variables with the same non-blank name are constrained to be equal


 Using diagonal initial Hessian 
 Scaling for Hessian diagonals: bonds = 1.00  angles = 0.25  torsions = 0.10

          --------
          Step   0
          --------


                         Geometry "geometry" -> "geometry"
                         ---------------------------------

 Output coordinates in angstroms (scale by  1.889725989 to convert to a.u.)

  No.       Tag          Charge          X              Y              Z
 ---- ---------------- ---------- -------------- -------------- --------------
    1 F                    9.0000     0.00000000     0.00000000     0.09790700
    2 H                    1.0000     0.00000000     0.00000000    -0.88116300

      Atomic Mass 
      ----------- 

      F                 18.998400
      H                  1.007825


 Effective nuclear repulsion energy (a.u.)       4.8644072855

            Nuclear Dipole moment (a.u.) 
            ----------------------------
        X                 Y               Z
 ---------------- ---------------- ----------------
     0.0000000000     0.0000000000     0.0000000000

      Symmetry information
      --------------------

 Group name             C4v       
 Group number             18
 Group order               8
 No. of unique centers     2

      Symmetry unique atoms

     1    2


                                 NWChem DFT Module
                                 -----------------


                       test4 MPWB1K/6-31+G* HF optimization


                      Basis "ao basis" -> "ao basis" (cartesian)
                      -----
  F (Fluorine)
  ------------
            Exponent  Coefficients 
       -------------- ---------------------------------------------------------
  1 S  7.00171309E+03  0.001820
  1 S  1.05136609E+03  0.013916
  1 S  2.39285690E+02  0.068405
  1 S  6.73974453E+01  0.233186
  1 S  2.15199573E+01  0.471267
  1 S  7.40310130E+00  0.356619

  2 S  2.08479528E+01 -0.108507
  2 S  4.80830834E+00 -0.146452
  2 S  1.34406986E+00  1.128689

  3 P  2.08479528E+01  0.071629
  3 P  4.80830834E+00  0.345912
  3 P  1.34406986E+00  0.722470

  4 S  3.58151393E-01  1.000000

  5 P  3.58151393E-01  1.000000

  6 S  1.07600000E-01  1.000000

  7 P  1.07600000E-01  1.000000

  8 D  8.00000000E-01  1.000000

  H (Hydrogen)
  ------------
            Exponent  Coefficients 
       -------------- ---------------------------------------------------------
  1 S  1.87311370E+01  0.033495
  1 S  2.82539370E+00  0.234727
  1 S  6.40121700E-01  0.813757

  2 S  1.61277800E-01  1.000000



 Summary of "ao basis" -> "ao basis" (cartesian)
 ------------------------------------------------------------------------------
       Tag                 Description            Shells   Functions and Types
 ---------------- ------------------------------  ------  ---------------------
 F                          6-31+G*                  8       19   4s3p1d
 H                          6-31+G*                  2        2   2s




 Summary of "ao basis" -> "ao basis" (cartesian)
 ------------------------------------------------------------------------------
       Tag                 Description            Shells   Functions and Types
 ---------------- ------------------------------  ------  ---------------------
 F                          6-31+G*                  8       19   4s3p1d
 H                          6-31+G*                  2        2   2s


      Symmetry analysis of basis
      --------------------------

        a1         11
        a2          0
        b1          1
        b2          1
        e           8

  Caching 1-el integrals 

            General Information
            -------------------
          SCF calculation type: DFT
          Wavefunction type:  closed shell.
          No. of atoms     :     2
          No. of electrons :    10
           Alpha electrons :     5
            Beta electrons :     5
          Charge           :     0
          Spin multiplicity:     1
          Use of symmetry is: on ; symmetry adaption is: on 
          Maximum number of iterations:  30
          AO basis - number of functions:    21
                     number of shells:    10
          Convergence on energy requested:  1.00D-06
          Convergence on density requested:  1.00D-05
          Convergence on gradient requested:  5.00D-04

              XC Information
              --------------
                       MPWB1K Method XC Functional
                     Hartree-Fock (Exact) Exchange  0.440          
                        mPW91  Exchange Functional  0.560          
                         B95 Correlation Potential  1.000          

             Grid Information
             ----------------
          Grid used for XC integration:  fine      
          Radial quadrature: Mura-Knowles        
          Angular quadrature: Lebedev. 
          Tag              B.-S. Rad. Rad. Pts. Rad. Cut. Ang. Pts.
          ---              ---------- --------- --------- ---------
          F                   0.50       70           6.0       590
          H                   0.35       60           6.0       590
          Grid pruning is: on 
          Number of quadrature shells:   130
          Spatial weights used:  Erf1

          Convergence Information
          -----------------------
          Convergence aids based upon iterative change in 
          total energy or number of iterations. 
          Levelshifting, if invoked, occurs when the 
          HOMO/LUMO gap drops below (HL_TOL):  1.00D-02
          DIIS, if invoked, will attempt to extrapolate 
          using up to (NFOCK): 10 stored Fock matrices.

                    Damping( 0%)  Levelshifting(0.5)       DIIS
                  --------------- ------------------- ---------------
          dE  on:    start            ASAP                start   
          dE off:    2 iters         30 iters            30 iters 


      Screening Tolerance Information
      -------------------------------
          Density screening/tol_rho:  1.00D-10
          AO Gaussian exp screening on grid/accAOfunc:  14
          CD Gaussian exp screening on grid/accCDfunc:  20
          XC Gaussian exp screening on grid/accXCfunc:  20
          Schwarz screening/accCoul:  1.00D-08


      Superposition of Atomic Density Guess
      -------------------------------------

 Sum of atomic energies:         -99.87648832

      Non-variational initial energy
      ------------------------------

 Total energy =     -99.802337
 1-e energy   =    -148.972955
 2-e energy   =      44.306210
 HOMO         =      -0.641371
 LUMO         =       0.098285


      Symmetry analysis of molecular orbitals - initial
      -------------------------------------------------


 !! scf_movecs_sym_adapt:    2 vectors were symmetry contaminated

  Symmetry fudging

 !! scf_movecs_sym_adapt:    2 vectors were symmetry contaminated

  Numbering of irreducible representations: 

     1 a1          2 a2          3 b1          4 b2          5 e       

  Orbital symmetries:

     1 a1          2 a1          3 a1          4 e           5 e       
     6 a1          7 a1          8 e           9 e          10 a1      
    11 a1         12 e          13 e          14 a1         15 a1      

   Time after variat. SCF:      0.1
   Time prior to 1st pass:      0.1

 Grid_pts file          = ./dft_mpwb1khf.gridpts.0
 Record size in doubles =  12289        No. of grid_pts per rec  =   3070
 Max. records in memory =      8        Max. recs in file   = 253312716


           Memory utilization after 1st SCF pass: 
           Heap Space remaining (MW):       51.71            51709748
          Stack Space remaining (MW):       86.25            86246924

   convergence    iter        energy       DeltaE   RMS-Dens  Diis-err    time
 ---------------- ----- ----------------- --------- --------- ---------  ------
 d= 0,ls=0.0,diis     1   -100.3739164376 -1.05D+02  2.34D-02  2.64D-01     0.1
 d= 0,ls=0.0,diis     2   -100.3813632569 -7.45D-03  9.41D-03  2.97D-01     0.1
 d= 0,ls=0.0,diis     3   -100.4039047245 -2.25D-02  1.03D-03  2.63D-03     0.1
 d= 0,ls=0.0,diis     4   -100.4041144803 -2.10D-04  1.54D-04  4.81D-05     0.1
 d= 0,ls=0.0,diis     5   -100.4041187901 -4.31D-06  2.05D-05  1.96D-07     0.1
 d= 0,ls=0.0,diis     6   -100.4041188234 -3.33D-08  1.86D-06  1.31D-09     0.2


         Total DFT energy =     -100.404118823377
      One electron energy =     -149.876944259323
           Coulomb energy =       55.365008351425
    Exchange-Corr. energy =      -10.756590200961
 Nuclear repulsion energy =        4.864407285482

 Numeric. integr. density =        9.999999969363

     Total iterative time =      0.1s



                  Occupations of the irreducible representations
                  ----------------------------------------------

                     irrep           alpha         beta
                     --------     --------     --------
                     a1                3.0          3.0
                     a2                0.0          0.0
                     b1                0.0          0.0
                     b2                0.0          0.0
                     e                 2.0          2.0


                       DFT Final Molecular Orbital Analysis
                       ------------------------------------

 Vector    1  Occ=2.000000D+00  E=-2.519342D+01  Symmetry=a1
              MO Center= -8.5D-28, -2.1D-28,  9.8D-02, r^2= 1.2D-02
   Bfn.  Coefficient  Atom+Function         Bfn.  Coefficient  Atom+Function  
  ----- ------------  ---------------      ----- ------------  ---------------
     1      0.993508  1 F  s          

 Vector    2  Occ=2.000000D+00  E=-1.311911D+00  Symmetry=a1
              MO Center= -1.3D-16, -2.3D-17, -2.5D-02, r^2= 3.7D-01
   Bfn.  Coefficient  Atom+Function         Bfn.  Coefficient  Atom+Function  
  ----- ------------  ---------------      ----- ------------  ---------------
     2      0.534373  1 F  s                  6      0.420353  1 F  s          
     1     -0.224603  1 F  s                 20      0.108676  2 H  s          
     5     -0.077300  1 F  pz                 9     -0.053650  1 F  pz         
    19      0.050744  1 F  dzz               10      0.042160  1 F  s          

 Vector    3  Occ=2.000000D+00  E=-6.100738D-01  Symmetry=a1
              MO Center=  9.0D-17, -1.3D-16, -1.7D-02, r^2= 6.2D-01
   Bfn.  Coefficient  Atom+Function         Bfn.  Coefficient  Atom+Function  
  ----- ------------  ---------------      ----- ------------  ---------------
     5      0.559933  1 F  pz                 9      0.337000  1 F  pz         
    20     -0.258619  2 H  s                  6      0.193308  1 F  s          
    21     -0.138498  2 H  s                  2      0.134950  1 F  s          
     1     -0.058073  1 F  s                 10      0.052750  1 F  s          
    19     -0.036655  1 F  dzz               13      0.029738  1 F  pz         

 Vector    4  Occ=2.000000D+00  E=-4.865930D-01  Symmetry=e
              MO Center=  2.8D-16,  1.9D-16,  8.4D-02, r^2= 4.9D-01
   Bfn.  Coefficient  Atom+Function         Bfn.  Coefficient  Atom+Function  
  ----- ------------  ---------------      ----- ------------  ---------------
     3      0.534321  1 F  px                 4      0.395571  1 F  py         
     7      0.347036  1 F  px                 8      0.256919  1 F  py         
    11      0.077435  1 F  px                12      0.057327  1 F  py         
    16     -0.037426  1 F  dxz               18     -0.027708  1 F  dyz        

 Vector    5  Occ=2.000000D+00  E=-4.865930D-01  Symmetry=e
              MO Center= -1.7D-17,  1.1D-17,  8.4D-02, r^2= 4.9D-01
   Bfn.  Coefficient  Atom+Function         Bfn.  Coefficient  Atom+Function  
  ----- ------------  ---------------      ----- ------------  ---------------
     4      0.534321  1 F  py                 3     -0.395571  1 F  px         
     8      0.347036  1 F  py                 7     -0.256919  1 F  px         
    12      0.077435  1 F  py                11     -0.057327  1 F  px         
    18     -0.037426  1 F  dyz               16      0.027708  1 F  dxz        

 Vector    6  Occ=0.000000D+00  E= 7.241439D-02  Symmetry=a1
              MO Center=  1.3D-15,  6.5D-16, -8.6D-01, r^2= 1.8D+00
   Bfn.  Coefficient  Atom+Function         Bfn.  Coefficient  Atom+Function  
  ----- ------------  ---------------      ----- ------------  ---------------
     6      1.075366  1 F  s                 21     -0.944250  2 H  s          
    10     -0.444210  1 F  s                  9     -0.378543  1 F  pz         
     5     -0.295602  1 F  pz                20     -0.195106  2 H  s          
    14     -0.098093  1 F  dxx               17     -0.098093  1 F  dyy        
     1     -0.092913  1 F  s                 19     -0.080499  1 F  dzz        

 Vector    7  Occ=0.000000D+00  E= 2.271903D-01  Symmetry=a1
              MO Center=  3.1D-14, -4.8D-15,  8.0D-01, r^2= 2.9D+00
   Bfn.  Coefficient  Atom+Function         Bfn.  Coefficient  Atom+Function  
  ----- ------------  ---------------      ----- ------------  ---------------
    10      1.439479  1 F  s                  6     -0.905887  1 F  s          
    13      0.610447  1 F  pz                21     -0.575830  2 H  s          
     9     -0.409360  1 F  pz                 5     -0.214125  1 F  pz         
    19      0.109260  1 F  dzz               14      0.096845  1 F  dxx        
    17      0.096845  1 F  dyy                1      0.069313  1 F  s          

 Vector    8  Occ=0.000000D+00  E= 2.374598D-01  Symmetry=e
              MO Center=  4.8D-16,  2.3D-15,  9.8D-02, r^2= 3.8D+00
   Bfn.  Coefficient  Atom+Function         Bfn.  Coefficient  Atom+Function  
  ----- ------------  ---------------      ----- ------------  ---------------
    12      1.166781  1 F  py                 8     -0.428743  1 F  py         
     4     -0.235320  1 F  py                11      0.236069  1 F  px         
     7     -0.086745  1 F  px                 3     -0.047611  1 F  px         

 Vector    9  Occ=0.000000D+00  E= 2.374598D-01  Symmetry=e
              MO Center= -3.5D-14,  7.1D-15,  9.8D-02, r^2= 3.8D+00
   Bfn.  Coefficient  Atom+Function         Bfn.  Coefficient  Atom+Function  
  ----- ------------  ---------------      ----- ------------  ---------------
    11      1.166781  1 F  px                 7     -0.428743  1 F  px         
     3     -0.235320  1 F  px                12     -0.236069  1 F  py         
     8      0.086745  1 F  py                 4      0.047611  1 F  py         

 Vector   10  Occ=0.000000D+00  E= 2.800097D-01  Symmetry=a1
              MO Center=  2.5D-15, -5.3D-15, -2.3D-03, r^2= 3.9D+00
   Bfn.  Coefficient  Atom+Function         Bfn.  Coefficient  Atom+Function  
  ----- ------------  ---------------      ----- ------------  ---------------
    21      3.050640  2 H  s                 10     -2.722785  1 F  s          
    13      2.097775  1 F  pz                 6      0.317610  1 F  s          
    20      0.176449  2 H  s                  2     -0.085370  1 F  s          
     5      0.078529  1 F  pz                 9      0.073129  1 F  pz         
    14     -0.056831  1 F  dxx               17     -0.056831  1 F  dyy        

 Vector   11  Occ=0.000000D+00  E= 9.748067D-01  Symmetry=a1
              MO Center= -1.6D-17,  3.8D-18, -8.4D-01, r^2= 1.3D+00
   Bfn.  Coefficient  Atom+Function         Bfn.  Coefficient  Atom+Function  
  ----- ------------  ---------------      ----- ------------  ---------------
    21      2.760947  2 H  s                 10     -1.444285  1 F  s          
    20     -1.150882  2 H  s                 13      0.993041  1 F  pz         
     6     -0.969426  1 F  s                  2      0.534464  1 F  s          
     5     -0.453362  1 F  pz                14      0.269892  1 F  dxx        
    17      0.269892  1 F  dyy                9      0.157170  1 F  pz         

 Vector   12  Occ=0.000000D+00  E= 1.546353D+00  Symmetry=e
              MO Center= -3.7D-16, -2.2D-16,  4.9D-02, r^2= 1.3D+00
   Bfn.  Coefficient  Atom+Function         Bfn.  Coefficient  Atom+Function  
  ----- ------------  ---------------      ----- ------------  ---------------
     7      1.219924  1 F  px                 3     -0.824038  1 F  px         
     8     -0.718944  1 F  py                11     -0.563367  1 F  px         
     4      0.485634  1 F  py                12      0.332012  1 F  py         
    16     -0.173098  1 F  dxz               18      0.102013  1 F  dyz        

 Vector   13  Occ=0.000000D+00  E= 1.546353D+00  Symmetry=e
              MO Center=  3.3D-16, -2.6D-16,  4.9D-02, r^2= 1.3D+00
   Bfn.  Coefficient  Atom+Function         Bfn.  Coefficient  Atom+Function  
  ----- ------------  ---------------      ----- ------------  ---------------
     8      1.219924  1 F  py                 4     -0.824038  1 F  py         
     7      0.718944  1 F  px                12     -0.563367  1 F  py         
     3     -0.485634  1 F  px                11     -0.332012  1 F  px         
    18     -0.173098  1 F  dyz               16     -0.102013  1 F  dxz        

 Vector   14  Occ=0.000000D+00  E= 1.605736D+00  Symmetry=a1
              MO Center= -5.6D-18,  3.4D-18,  5.1D-01, r^2= 1.1D+00
   Bfn.  Coefficient  Atom+Function         Bfn.  Coefficient  Atom+Function  
  ----- ------------  ---------------      ----- ------------  ---------------
     9      1.451166  1 F  pz                 5     -0.848504  1 F  pz         
    13     -0.836733  1 F  pz                 6      0.814050  1 F  s          
    21     -0.576134  2 H  s                 20      0.446334  2 H  s          
     2     -0.416750  1 F  s                 14     -0.291385  1 F  dxx        
    17     -0.291385  1 F  dyy               10      0.104132  1 F  s          

 Vector   15  Occ=0.000000D+00  E= 1.689969D+00  Symmetry=a1
              MO Center=  1.5D-16, -8.9D-17,  4.5D-02, r^2= 1.7D+00
   Bfn.  Coefficient  Atom+Function         Bfn.  Coefficient  Atom+Function  
  ----- ------------  ---------------      ----- ------------  ---------------
     6      4.884011  1 F  s                  2     -2.245871  1 F  s          
    10     -1.745568  1 F  s                 19     -1.178184  1 F  dzz        
    14     -0.690510  1 F  dxx               17     -0.690510  1 F  dyy        
    21      0.669726  2 H  s                 20     -0.344709  2 H  s          
    13      0.321249  1 F  pz                 9     -0.147532  1 F  pz         

 Vector   16  Occ=0.000000D+00  E= 1.857508D+00  Symmetry=e
              MO Center=  5.0D-17,  4.9D-17,  1.6D-01, r^2= 6.2D-01
   Bfn.  Coefficient  Atom+Function         Bfn.  Coefficient  Atom+Function  
  ----- ------------  ---------------      ----- ------------  ---------------
    18      1.221659  1 F  dyz               16      1.210374  1 F  dxz        
     8      0.126335  1 F  py                 7      0.125168  1 F  px         
     4     -0.066320  1 F  py                 3     -0.065707  1 F  px         
    12     -0.053797  1 F  py                11     -0.053300  1 F  px         

 Vector   17  Occ=0.000000D+00  E= 1.857508D+00  Symmetry=e
              MO Center= -2.8D-19, -2.8D-19,  1.6D-01, r^2= 6.2D-01
   Bfn.  Coefficient  Atom+Function         Bfn.  Coefficient  Atom+Function  
  ----- ------------  ---------------      ----- ------------  ---------------
    16      1.221659  1 F  dxz               18     -1.210374  1 F  dyz        
     7      0.126335  1 F  px                 8     -0.125168  1 F  py         
     3     -0.066320  1 F  px                 4      0.065707  1 F  py         
    11     -0.053797  1 F  px                12      0.053300  1 F  py         

 Vector   18  Occ=0.000000D+00  E= 1.919552D+00  Symmetry=b2
              MO Center= -1.5D-16, -1.1D-16,  9.8D-02, r^2= 6.1D-01
   Bfn.  Coefficient  Atom+Function         Bfn.  Coefficient  Atom+Function  
  ----- ------------  ---------------      ----- ------------  ---------------
    15      1.732051  1 F  dxy        

 Vector   19  Occ=0.000000D+00  E= 1.919552D+00  Symmetry=b1
              MO Center=  1.8D-16,  5.6D-16,  9.8D-02, r^2= 6.1D-01
   Bfn.  Coefficient  Atom+Function         Bfn.  Coefficient  Atom+Function  
  ----- ------------  ---------------      ----- ------------  ---------------
    14      0.866025  1 F  dxx               17     -0.866025  1 F  dyy        

 Vector   20  Occ=0.000000D+00  E= 2.633692D+00  Symmetry=a1
              MO Center=  7.5D-18, -1.3D-17, -2.1D-01, r^2= 8.0D-01
   Bfn.  Coefficient  Atom+Function         Bfn.  Coefficient  Atom+Function  
  ----- ------------  ---------------      ----- ------------  ---------------
     6      1.449929  1 F  s                 20     -1.441379  2 H  s          
    19      0.987290  1 F  dzz                9     -0.980768  1 F  pz         
    21      0.768905  2 H  s                  2     -0.704168  1 F  s          
    14     -0.682130  1 F  dxx               17     -0.682130  1 F  dyy        
    10     -0.640647  1 F  s                 13      0.404431  1 F  pz         

 Vector   21  Occ=0.000000D+00  E= 4.328081D+00  Symmetry=a1
              MO Center= -6.7D-18, -1.0D-17,  9.7D-02, r^2= 1.5D+00
   Bfn.  Coefficient  Atom+Function         Bfn.  Coefficient  Atom+Function  
  ----- ------------  ---------------      ----- ------------  ---------------
     6      8.457708  1 F  s                 14     -2.804587  1 F  dxx        
    17     -2.804587  1 F  dyy               19     -2.637877  1 F  dzz        
     2     -1.961810  1 F  s                 10     -1.266574  1 F  s          
     1     -0.689434  1 F  s                 20     -0.163792  2 H  s          
     9     -0.126723  1 F  pz                21     -0.034920  2 H  s          


 center of mass
 --------------
 x =   0.00000000 y =   0.00000000 z =   0.09181383

 moments of inertia (a.u.)
 ------------------
           3.276137825660           0.000000000000           0.000000000000
           0.000000000000           3.276137825660           0.000000000000
           0.000000000000           0.000000000000           0.000000000000

     Multipole analysis of the density
     ---------------------------------

     L   x y z        total         alpha         beta         nuclear
     -   - - -        -----         -----         ----         -------
     0   0 0 0     -0.000000     -5.000000     -5.000000     10.000000

     1   1 0 0      0.000000      0.000000      0.000000      0.000000
     1   0 1 0      0.000000      0.000000      0.000000      0.000000
     1   0 0 1     -0.843498     -0.421749     -0.421749      0.000000

     2   2 0 0     -4.378655     -2.189327     -2.189327      0.000000
     2   1 1 0     -0.000000     -0.000000     -0.000000      0.000000
     2   1 0 1      0.000000      0.000000      0.000000      0.000000
     2   0 2 0     -4.378655     -2.189327     -2.189327      0.000000
     2   0 1 1      0.000000      0.000000      0.000000      0.000000
     2   0 0 2     -2.549216     -2.815023     -2.815023      3.080830


            General Information
            -------------------
          SCF calculation type: DFT
          Wavefunction type:  closed shell.
          No. of atoms     :     2
          No. of electrons :    10
           Alpha electrons :     5
            Beta electrons :     5
          Charge           :     0
          Spin multiplicity:     1
          Use of symmetry is: on ; symmetry adaption is: on 
          Maximum number of iterations:  30
          AO basis - number of functions:    21
                     number of shells:    10
          Convergence on energy requested:  1.00D-06
          Convergence on density requested:  1.00D-05
          Convergence on gradient requested:  5.00D-04

              XC Information
              --------------
                       MPWB1K Method XC Functional
                     Hartree-Fock (Exact) Exchange  0.440          
                        mPW91  Exchange Functional  0.560          
                         B95 Correlation Potential  1.000          

             Grid Information
             ----------------
          Grid used for XC integration:  fine      
          Radial quadrature: Mura-Knowles        
          Angular quadrature: Lebedev. 
          Tag              B.-S. Rad. Rad. Pts. Rad. Cut. Ang. Pts.
          ---              ---------- --------- --------- ---------
          F                   0.50       70           6.0       590
          H                   0.35       60           6.0       590
          Grid pruning is: on 
          Number of quadrature shells:   130
          Spatial weights used:  Erf1

          Convergence Information
          -----------------------
          Convergence aids based upon iterative change in 
          total energy or number of iterations. 
          Levelshifting, if invoked, occurs when the 
          HOMO/LUMO gap drops below (HL_TOL):  1.00D-02
          DIIS, if invoked, will attempt to extrapolate 
          using up to (NFOCK): 10 stored Fock matrices.

                    Damping( 0%)  Levelshifting(0.5)       DIIS
                  --------------- ------------------- ---------------
          dE  on:    start            ASAP                start   
          dE off:    2 iters         30 iters            30 iters 


      Screening Tolerance Information
      -------------------------------
          Density screening/tol_rho:  1.00D-10
          AO Gaussian exp screening on grid/accAOfunc:  14
          CD Gaussian exp screening on grid/accCDfunc:  20
          XC Gaussian exp screening on grid/accXCfunc:  20
          Schwarz screening/accCoul:  1.00D-08



                            NWChem DFT Gradient Module
                            --------------------------


                       test4 MPWB1K/6-31+G* HF optimization



  charge          =   0.00
  wavefunction    = closed shell

  Using symmetry


                         DFT ENERGY GRADIENTS

    atom               coordinates                        gradient
                 x          y          z           x          y          z
   1 F       0.000000   0.000000   0.185017    0.000000   0.000000   0.051600
   2 H       0.000000   0.000000  -1.665157    0.000000   0.000000  -0.051600

                 ----------------------------------------
                 |  Time  |  1-e(secs)   |  2-e(secs)   |
                 ----------------------------------------
                 |  CPU   |       0.00   |       0.01   |
                 ----------------------------------------
                 |  WALL  |       0.00   |       0.01   |
                 ----------------------------------------
  no constraints, skipping    0.0000000000000000     

@ Step       Energy      Delta E   Gmax     Grms     Xrms     Xmax   Walltime
@ ---- ---------------- -------- -------- -------- -------- -------- --------
@    0    -100.40411882  0.0D+00  0.05160  0.05160  0.00000  0.00000      0.2
                                                                    



                                Z-matrix (autoz)
                                -------- 

 Units are Angstrom for bonds and degrees for angles

      Type          Name      I     J     K     L     M      Value     Gradient
      ----------- --------  ----- ----- ----- ----- ----- ---------- ----------
    1 Stretch                  1     2                       0.97907    0.05160

  no constraints, skipping    0.0000000000000000     
  no constraints, skipping    0.0000000000000000     
  no constraints, skipping    0.0000000000000000     

                                 NWChem DFT Module
                                 -----------------


                       test4 MPWB1K/6-31+G* HF optimization




 Summary of "ao basis" -> "ao basis" (cartesian)
 ------------------------------------------------------------------------------
       Tag                 Description            Shells   Functions and Types
 ---------------- ------------------------------  ------  ---------------------
 F                          6-31+G*                  8       19   4s3p1d
 H                          6-31+G*                  2        2   2s


      Symmetry analysis of basis
      --------------------------

        a1         11
        a2          0
        b1          1
        b2          1
        e           8

  Caching 1-el integrals 

            General Information
            -------------------
          SCF calculation type: DFT
          Wavefunction type:  closed shell.
          No. of atoms     :     2
          No. of electrons :    10
           Alpha electrons :     5
            Beta electrons :     5
          Charge           :     0
          Spin multiplicity:     1
          Use of symmetry is: on ; symmetry adaption is: on 
          Maximum number of iterations:  30
          AO basis - number of functions:    21
                     number of shells:    10
          Convergence on energy requested:  1.00D-06
          Convergence on density requested:  1.00D-05
          Convergence on gradient requested:  5.00D-04

              XC Information
              --------------
                       MPWB1K Method XC Functional
                     Hartree-Fock (Exact) Exchange  0.440          
                        mPW91  Exchange Functional  0.560          
                         B95 Correlation Potential  1.000          

             Grid Information
             ----------------
          Grid used for XC integration:  fine      
          Radial quadrature: Mura-Knowles        
          Angular quadrature: Lebedev. 
          Tag              B.-S. Rad. Rad. Pts. Rad. Cut. Ang. Pts.
          ---              ---------- --------- --------- ---------
          F                   0.50       70           6.0       590
          H                   0.35       60           6.0       590
          Grid pruning is: on 
          Number of quadrature shells:   130
          Spatial weights used:  Erf1

          Convergence Information
          -----------------------
          Convergence aids based upon iterative change in 
          total energy or number of iterations. 
          Levelshifting, if invoked, occurs when the 
          HOMO/LUMO gap drops below (HL_TOL):  1.00D-02
          DIIS, if invoked, will attempt to extrapolate 
          using up to (NFOCK): 10 stored Fock matrices.

                    Damping( 0%)  Levelshifting(0.5)       DIIS
                  --------------- ------------------- ---------------
          dE  on:    start            ASAP                start   
          dE off:    2 iters         30 iters            30 iters 


      Screening Tolerance Information
      -------------------------------
          Density screening/tol_rho:  1.00D-10
          AO Gaussian exp screening on grid/accAOfunc:  14
          CD Gaussian exp screening on grid/accCDfunc:  20
          XC Gaussian exp screening on grid/accXCfunc:  20
          Schwarz screening/accCoul:  1.00D-08


 Loading old vectors from job with title :

test4 MPWB1K/6-31+G* HF optimization


      Symmetry analysis of molecular orbitals - initial
      -------------------------------------------------

  Numbering of irreducible representations: 

     1 a1          2 a2          3 b1          4 b2          5 e       

  Orbital symmetries:

     1 a1          2 a1          3 a1          4 e           5 e       
     6 a1          7 a1          8 e           9 e          10 a1      
    11 a1         12 e          13 e          14 a1         15 a1      

   Time after variat. SCF:      0.2
   Time prior to 1st pass:      0.2

 Grid_pts file          = ./dft_mpwb1khf.gridpts.0
 Record size in doubles =  12289        No. of grid_pts per rec  =   3070
 Max. records in memory =      8        Max. recs in file   = 253312716


           Memory utilization after 1st SCF pass: 
           Heap Space remaining (MW):       51.71            51709748
          Stack Space remaining (MW):       86.25            86246924

   convergence    iter        energy       DeltaE   RMS-Dens  Diis-err    time
 ---------------- ----- ----------------- --------- --------- ---------  ------
 d= 0,ls=0.0,diis     1   -100.4024214436 -1.06D+02  6.39D-03  2.32D-02     0.2
 d= 0,ls=0.0,diis     2   -100.4046827296 -2.26D-03  1.77D-03  6.40D-03     0.2
 d= 0,ls=0.0,diis     3   -100.4050433177 -3.61D-04  6.99D-04  1.56D-03     0.3
 d= 0,ls=0.0,diis     4   -100.4051649725 -1.22D-04  8.45D-05  1.12D-05     0.3
 d= 0,ls=0.0,diis     5   -100.4051660886 -1.12D-06  1.42D-05  6.26D-08     0.3
 d= 0,ls=0.0,diis     6   -100.4051661064 -1.78D-08  5.93D-07  1.33D-10     0.3


         Total DFT energy =     -100.405166106398
      One electron energy =     -150.726310389712
           Coulomb energy =       55.757230092564
    Exchange-Corr. energy =      -10.804579490252
 Nuclear repulsion energy =        5.368493681001

 Numeric. integr. density =       10.000000050159

     Total iterative time =      0.1s



                  Occupations of the irreducible representations
                  ----------------------------------------------

                     irrep           alpha         beta
                     --------     --------     --------
                     a1                3.0          3.0
                     a2                0.0          0.0
                     b1                0.0          0.0
                     b2                0.0          0.0
                     e                 2.0          2.0


                       DFT Final Molecular Orbital Analysis
                       ------------------------------------

 Vector    1  Occ=2.000000D+00  E=-2.519095D+01  Symmetry=a1
              MO Center= -2.3D-28, -2.1D-28,  5.2D-02, r^2= 1.2D-02
   Bfn.  Coefficient  Atom+Function         Bfn.  Coefficient  Atom+Function  
  ----- ------------  ---------------      ----- ------------  ---------------
     1      0.993465  1 F  s          

 Vector    2  Occ=2.000000D+00  E=-1.342245D+00  Symmetry=a1
              MO Center=  1.2D-16, -1.1D-16, -9.7D-02, r^2= 3.7D-01
   Bfn.  Coefficient  Atom+Function         Bfn.  Coefficient  Atom+Function  
  ----- ------------  ---------------      ----- ------------  ---------------
     2      0.531723  1 F  s                  6      0.394148  1 F  s          
     1     -0.221487  1 F  s                 20      0.136494  2 H  s          
     5     -0.100520  1 F  pz                10      0.057999  1 F  s          
     9     -0.054879  1 F  pz                19      0.054770  1 F  dzz        
    21     -0.044021  2 H  s          

 Vector    3  Occ=2.000000D+00  E=-6.358280D-01  Symmetry=a1
              MO Center=  7.7D-17,  4.1D-18, -3.0D-03, r^2= 5.7D-01
   Bfn.  Coefficient  Atom+Function         Bfn.  Coefficient  Atom+Function  
  ----- ------------  ---------------      ----- ------------  ---------------
     5      0.567884  1 F  pz                 9      0.322148  1 F  pz         
    20     -0.264573  2 H  s                  6      0.232552  1 F  s          
     2      0.148200  1 F  s                 21     -0.105987  2 H  s          
     1     -0.065978  1 F  s                 10      0.047999  1 F  s          
    19     -0.037040  1 F  dzz               13      0.034552  1 F  pz         

 Vector    4  Occ=2.000000D+00  E=-4.954626D-01  Symmetry=e
              MO Center= -2.6D-16, -1.0D-17,  3.5D-02, r^2= 4.9D-01
   Bfn.  Coefficient  Atom+Function         Bfn.  Coefficient  Atom+Function  
  ----- ------------  ---------------      ----- ------------  ---------------
     3      0.663455  1 F  px                 7      0.433345  1 F  px         
    11      0.092176  1 F  px                16     -0.054058  1 F  dxz        
     4      0.040072  1 F  py                 8      0.026173  1 F  py         

 Vector    5  Occ=2.000000D+00  E=-4.954626D-01  Symmetry=e
              MO Center= -1.4D-17,  2.5D-16,  3.5D-02, r^2= 4.9D-01
   Bfn.  Coefficient  Atom+Function         Bfn.  Coefficient  Atom+Function  
  ----- ------------  ---------------      ----- ------------  ---------------
     4      0.663455  1 F  py                 8      0.433345  1 F  py         
    12      0.092176  1 F  py                18     -0.054058  1 F  dyz        
     3     -0.040072  1 F  px                 7     -0.026173  1 F  px         

 Vector    6  Occ=0.000000D+00  E= 9.849826D-02  Symmetry=a1
              MO Center= -1.3D-15,  1.4D-16, -8.4D-01, r^2= 2.1D+00
   Bfn.  Coefficient  Atom+Function         Bfn.  Coefficient  Atom+Function  
  ----- ------------  ---------------      ----- ------------  ---------------
     6      1.222969  1 F  s                 10     -0.863156  1 F  s          
    21     -0.583985  2 H  s                  9     -0.327753  1 F  pz         
    13      0.266776  1 F  pz                 5     -0.239648  1 F  pz         
    20     -0.144516  2 H  s                 14     -0.114121  1 F  dxx        
    17     -0.114121  1 F  dyy                1     -0.099634  1 F  s          

 Vector    7  Occ=0.000000D+00  E= 2.286543D-01  Symmetry=a1
              MO Center=  5.3D-15, -1.7D-15,  8.8D-01, r^2= 2.9D+00
   Bfn.  Coefficient  Atom+Function         Bfn.  Coefficient  Atom+Function  
  ----- ------------  ---------------      ----- ------------  ---------------
    10      0.969748  1 F  s                 13      0.939817  1 F  pz         
     6     -0.768817  1 F  s                  9     -0.411364  1 F  pz         
     5     -0.204557  1 F  pz                21     -0.160479  2 H  s          
    19      0.101412  1 F  dzz               14      0.079455  1 F  dxx        
    17      0.079455  1 F  dyy                1      0.061638  1 F  s          

 Vector    8  Occ=0.000000D+00  E= 2.360098D-01  Symmetry=e
              MO Center= -1.5D-16, -1.0D-15,  5.2D-02, r^2= 3.8D+00
   Bfn.  Coefficient  Atom+Function         Bfn.  Coefficient  Atom+Function  
  ----- ------------  ---------------      ----- ------------  ---------------
    12      1.177789  1 F  py                 8     -0.430935  1 F  py         
     4     -0.235975  1 F  py                11      0.173018  1 F  px         
     7     -0.063305  1 F  px                 3     -0.034665  1 F  px         

 Vector    9  Occ=0.000000D+00  E= 2.360098D-01  Symmetry=e
              MO Center= -1.1D-14,  1.6D-15,  5.2D-02, r^2= 3.8D+00
   Bfn.  Coefficient  Atom+Function         Bfn.  Coefficient  Atom+Function  
  ----- ------------  ---------------      ----- ------------  ---------------
    11      1.177789  1 F  px                 7     -0.430935  1 F  px         
     3     -0.235975  1 F  px                12     -0.173018  1 F  py         
     8      0.063305  1 F  py                 4      0.034665  1 F  py         

 Vector   10  Occ=0.000000D+00  E= 2.919899D-01  Symmetry=a1
              MO Center=  7.0D-15,  8.2D-16, -2.7D-01, r^2= 3.6D+00
   Bfn.  Coefficient  Atom+Function         Bfn.  Coefficient  Atom+Function  
  ----- ------------  ---------------      ----- ------------  ---------------
    21      3.790259  2 H  s                 10     -3.189811  1 F  s          
    13      2.068287  1 F  pz                 9      0.273605  1 F  pz         
    20      0.187045  2 H  s                  5      0.155162  1 F  pz         
     2     -0.059410  1 F  s                 14     -0.031120  1 F  dxx        
    17     -0.031120  1 F  dyy        

 Vector   11  Occ=0.000000D+00  E= 1.097223D+00  Symmetry=a1
              MO Center= -2.4D-17,  6.0D-18, -7.4D-01, r^2= 1.2D+00
   Bfn.  Coefficient  Atom+Function         Bfn.  Coefficient  Atom+Function  
  ----- ------------  ---------------      ----- ------------  ---------------
    21      2.998638  2 H  s                 10     -1.669064  1 F  s          
    20     -1.178695  2 H  s                 13      1.075035  1 F  pz         
     6     -1.041831  1 F  s                  2      0.582605  1 F  s          
     5     -0.495765  1 F  pz                14      0.303292  1 F  dxx        
    17      0.303292  1 F  dyy                9      0.122364  1 F  pz         

 Vector   12  Occ=0.000000D+00  E= 1.540600D+00  Symmetry=e
              MO Center=  7.6D-17, -5.1D-17, -1.6D-03, r^2= 1.3D+00
   Bfn.  Coefficient  Atom+Function         Bfn.  Coefficient  Atom+Function  
  ----- ------------  ---------------      ----- ------------  ---------------
     8      1.340297  1 F  py                 4     -0.906792  1 F  py         
    12     -0.619609  1 F  py                 7      0.447762  1 F  px         
     3     -0.302938  1 F  px                18     -0.211514  1 F  dyz        
    11     -0.206997  1 F  px                16     -0.070662  1 F  dxz        

 Vector   13  Occ=0.000000D+00  E= 1.540600D+00  Symmetry=e
              MO Center=  1.1D-16, -2.7D-16, -1.6D-03, r^2= 1.3D+00
   Bfn.  Coefficient  Atom+Function         Bfn.  Coefficient  Atom+Function  
  ----- ------------  ---------------      ----- ------------  ---------------
     7      1.340297  1 F  px                 3     -0.906792  1 F  px         
    11     -0.619609  1 F  px                 8     -0.447762  1 F  py         
     4      0.302938  1 F  py                16     -0.211514  1 F  dxz        
    12      0.206997  1 F  py                18      0.070662  1 F  dyz        

 Vector   14  Occ=0.000000D+00  E= 1.569930D+00  Symmetry=a1
              MO Center=  9.7D-19,  6.0D-19,  2.2D-01, r^2= 1.2D+00
   Bfn.  Coefficient  Atom+Function         Bfn.  Coefficient  Atom+Function  
  ----- ------------  ---------------      ----- ------------  ---------------
     9      1.515218  1 F  pz                 5     -0.815857  1 F  pz         
    13     -0.814715  1 F  pz                20      0.543353  2 H  s          
    21     -0.540255  2 H  s                  6     -0.522638  1 F  s          
    10      0.440151  1 F  s                 19      0.346334  1 F  dzz        
     2      0.181676  1 F  s                 14     -0.080641  1 F  dxx        

 Vector   15  Occ=0.000000D+00  E= 1.668626D+00  Symmetry=a1
              MO Center= -4.3D-17,  3.5D-17,  2.2D-01, r^2= 1.7D+00
   Bfn.  Coefficient  Atom+Function         Bfn.  Coefficient  Atom+Function  
  ----- ------------  ---------------      ----- ------------  ---------------
     6      4.947125  1 F  s                  2     -2.282224  1 F  s          
    10     -1.519473  1 F  s                 19     -1.097321  1 F  dzz        
    14     -0.751880  1 F  dxx               17     -0.751880  1 F  dyy        
    21      0.284751  2 H  s                  5     -0.211541  1 F  pz         
     9      0.206468  1 F  pz                20     -0.186472  2 H  s          

 Vector   16  Occ=0.000000D+00  E= 1.839957D+00  Symmetry=e
              MO Center=  3.9D-18, -1.5D-17,  1.2D-01, r^2= 6.2D-01
   Bfn.  Coefficient  Atom+Function         Bfn.  Coefficient  Atom+Function  
  ----- ------------  ---------------      ----- ------------  ---------------
    16      1.662932  1 F  dxz               18     -0.426573  1 F  dyz        
     7      0.192359  1 F  px                 3     -0.099279  1 F  px         
    11     -0.082902  1 F  px                 8     -0.049344  1 F  py         
     4      0.025467  1 F  py         

 Vector   17  Occ=0.000000D+00  E= 1.839957D+00  Symmetry=e
              MO Center=  5.8D-17,  1.5D-17,  1.2D-01, r^2= 6.2D-01
   Bfn.  Coefficient  Atom+Function         Bfn.  Coefficient  Atom+Function  
  ----- ------------  ---------------      ----- ------------  ---------------
    18      1.662932  1 F  dyz               16      0.426573  1 F  dxz        
     8      0.192359  1 F  py                 4     -0.099279  1 F  py         
    12     -0.082902  1 F  py                 7      0.049344  1 F  px         
     3     -0.025467  1 F  px         

 Vector   18  Occ=0.000000D+00  E= 1.910684D+00  Symmetry=b2
              MO Center= -2.1D-16,  2.6D-16,  5.2D-02, r^2= 6.1D-01
   Bfn.  Coefficient  Atom+Function         Bfn.  Coefficient  Atom+Function  
  ----- ------------  ---------------      ----- ------------  ---------------
    15      1.732051  1 F  dxy        

 Vector   19  Occ=0.000000D+00  E= 1.910684D+00  Symmetry=b1
              MO Center=  5.9D-18,  6.0D-17,  5.2D-02, r^2= 6.1D-01
   Bfn.  Coefficient  Atom+Function         Bfn.  Coefficient  Atom+Function  
  ----- ------------  ---------------      ----- ------------  ---------------
    14      0.866025  1 F  dxx               17     -0.866025  1 F  dyy        

 Vector   20  Occ=0.000000D+00  E= 2.820697D+00  Symmetry=a1
              MO Center= -2.5D-18, -1.5D-17, -2.2D-01, r^2= 8.2D-01
   Bfn.  Coefficient  Atom+Function         Bfn.  Coefficient  Atom+Function  
  ----- ------------  ---------------      ----- ------------  ---------------
    20      1.773260  2 H  s                  6     -1.604150  1 F  s          
     9      1.179759  1 F  pz                19     -1.116760  1 F  dzz        
    21     -0.795857  2 H  s                 14      0.729125  1 F  dxx        
    17      0.729125  1 F  dyy               10      0.673586  1 F  s          
     2      0.668224  1 F  s                 13     -0.435591  1 F  pz         

 Vector   21  Occ=0.000000D+00  E= 4.322391D+00  Symmetry=a1
              MO Center= -7.3D-18, -1.8D-18,  5.7D-02, r^2= 1.5D+00
   Bfn.  Coefficient  Atom+Function         Bfn.  Coefficient  Atom+Function  
  ----- ------------  ---------------      ----- ------------  ---------------
     6      8.432838  1 F  s                 14     -2.789483  1 F  dxx        
    17     -2.789483  1 F  dyy               19     -2.658029  1 F  dzz        
     2     -1.943623  1 F  s                 10     -1.064944  1 F  s          
     1     -0.688432  1 F  s                 21     -0.324041  2 H  s          
    13     -0.134467  1 F  pz                 9     -0.100626  1 F  pz         


 center of mass
 --------------
 x =   0.00000000 y =   0.00000000 z =   0.01370232

 moments of inertia (a.u.)
 ------------------
           2.689782303915           0.000000000000           0.000000000000
           0.000000000000           2.689782303915           0.000000000000
           0.000000000000           0.000000000000           0.000000000000

     Multipole analysis of the density
     ---------------------------------

     L   x y z        total         alpha         beta         nuclear
     -   - - -        -----         -----         ----         -------
     0   0 0 0     -0.000000     -5.000000     -5.000000     10.000000

     1   1 0 0      0.000000      0.000000      0.000000      0.000000
     1   0 1 0      0.000000      0.000000      0.000000      0.000000
     1   0 0 1     -0.778513     -0.041804     -0.041804     -0.694904

     2   2 0 0     -4.309873     -2.154937     -2.154937      0.000000
     2   1 1 0     -0.000000     -0.000000     -0.000000      0.000000
     2   1 0 1      0.000000      0.000000      0.000000      0.000000
     2   0 2 0     -4.309873     -2.154937     -2.154937      0.000000
     2   0 1 1      0.000000      0.000000      0.000000      0.000000
     2   0 0 2     -2.635509     -2.606614     -2.606614      2.577719

 Line search: 
     step= 1.00 grad=-9.0D-03 hess= 7.9D-03 energy=   -100.405166 mode=downhill
 new step= 0.57                   predicted energy=   -100.406656
  no constraints, skipping    0.0000000000000000     
  no constraints, skipping    0.0000000000000000     
  no constraints, skipping    0.0000000000000000     

          --------
          Step   1
          --------


                         Geometry "geometry" -> "geometry"
                         ---------------------------------

 Output coordinates in angstroms (scale by  1.889725989 to convert to a.u.)

  No.       Tag          Charge          X              Y              Z
 ---- ---------------- ---------- -------------- -------------- --------------
    1 F                    9.0000     0.00000000     0.00000000     0.07188374
    2 H                    1.0000     0.00000000     0.00000000    -0.85513974

      Atomic Mass 
      ----------- 

      F                 18.998400
      H                  1.007825


 Effective nuclear repulsion energy (a.u.)       5.1375130739

            Nuclear Dipole moment (a.u.) 
            ----------------------------
        X                 Y               Z
 ---------------- ---------------- ----------------
     0.0000000000     0.0000000000    -0.3934146566

      Symmetry information
      --------------------

 Group name             C4v       
 Group number             18
 Group order               8
 No. of unique centers     2

      Symmetry unique atoms

     1    2


                                 NWChem DFT Module
                                 -----------------


                       test4 MPWB1K/6-31+G* HF optimization




 Summary of "ao basis" -> "ao basis" (cartesian)
 ------------------------------------------------------------------------------
       Tag                 Description            Shells   Functions and Types
 ---------------- ------------------------------  ------  ---------------------
 F                          6-31+G*                  8       19   4s3p1d
 H                          6-31+G*                  2        2   2s


      Symmetry analysis of basis
      --------------------------

        a1         11
        a2          0
        b1          1
        b2          1
        e           8

  Caching 1-el integrals 

            General Information
            -------------------
          SCF calculation type: DFT
          Wavefunction type:  closed shell.
          No. of atoms     :     2
          No. of electrons :    10
           Alpha electrons :     5
            Beta electrons :     5
          Charge           :     0
          Spin multiplicity:     1
          Use of symmetry is: on ; symmetry adaption is: on 
          Maximum number of iterations:  30
          AO basis - number of functions:    21
                     number of shells:    10
          Convergence on energy requested:  1.00D-06
          Convergence on density requested:  1.00D-05
          Convergence on gradient requested:  5.00D-04

              XC Information
              --------------
                       MPWB1K Method XC Functional
                     Hartree-Fock (Exact) Exchange  0.440          
                        mPW91  Exchange Functional  0.560          
                         B95 Correlation Potential  1.000          

             Grid Information
             ----------------
          Grid used for XC integration:  fine      
          Radial quadrature: Mura-Knowles        
          Angular quadrature: Lebedev. 
          Tag              B.-S. Rad. Rad. Pts. Rad. Cut. Ang. Pts.
          ---              ---------- --------- --------- ---------
          F                   0.50       70           6.0       590
          H                   0.35       60           6.0       590
          Grid pruning is: on 
          Number of quadrature shells:   130
          Spatial weights used:  Erf1

          Convergence Information
          -----------------------
          Convergence aids based upon iterative change in 
          total energy or number of iterations. 
          Levelshifting, if invoked, occurs when the 
          HOMO/LUMO gap drops below (HL_TOL):  1.00D-02
          DIIS, if invoked, will attempt to extrapolate 
          using up to (NFOCK): 10 stored Fock matrices.

                    Damping( 0%)  Levelshifting(0.5)       DIIS
                  --------------- ------------------- ---------------
          dE  on:    start            ASAP                start   
          dE off:    2 iters         30 iters            30 iters 


      Screening Tolerance Information
      -------------------------------
          Density screening/tol_rho:  1.00D-10
          AO Gaussian exp screening on grid/accAOfunc:  14
          CD Gaussian exp screening on grid/accCDfunc:  20
          XC Gaussian exp screening on grid/accXCfunc:  20
          Schwarz screening/accCoul:  1.00D-08


 Loading old vectors from job with title :

test4 MPWB1K/6-31+G* HF optimization


      Symmetry analysis of molecular orbitals - initial
      -------------------------------------------------

  Numbering of irreducible representations: 

     1 a1          2 a2          3 b1          4 b2          5 e       

  Orbital symmetries:

     1 a1          2 a1          3 a1          4 e           5 e       
     6 a1          7 a1          8 e           9 e          10 a1      
    11 a1         12 e          13 e          14 a1         15 a1      

   Time after variat. SCF:      0.3
   Time prior to 1st pass:      0.3

 Grid_pts file          = ./dft_mpwb1khf.gridpts.0
 Record size in doubles =  12289        No. of grid_pts per rec  =   3070
 Max. records in memory =      8        Max. recs in file   = 253312716


           Memory utilization after 1st SCF pass: 
           Heap Space remaining (MW):       51.71            51709748
          Stack Space remaining (MW):       86.25            86246924

   convergence    iter        energy       DeltaE   RMS-Dens  Diis-err    time
 ---------------- ----- ----------------- --------- --------- ---------  ------
 d= 0,ls=0.0,diis     1   -100.4063318550 -1.06D+02  3.00D-03  4.98D-03     0.3
 d= 0,ls=0.0,diis     2   -100.4067996498 -4.68D-04  8.37D-04  1.42D-03     0.4
 d= 0,ls=0.0,diis     3   -100.4068776684 -7.80D-05  3.37D-04  3.64D-04     0.4
 d= 0,ls=0.0,diis     4   -100.4069062530 -2.86D-05  3.84D-05  2.46D-06     0.4
 d= 0,ls=0.0,diis     5   -100.4069064944 -2.41D-07  7.04D-06  1.37D-08     0.4


         Total DFT energy =     -100.406906494354
      One electron energy =     -150.340350036724
           Coulomb energy =       55.578517416495
    Exchange-Corr. energy =      -10.782586947991
 Nuclear repulsion energy =        5.137513073866

 Numeric. integr. density =        9.999999984871

     Total iterative time =      0.1s



                  Occupations of the irreducible representations
                  ----------------------------------------------

                     irrep           alpha         beta
                     --------     --------     --------
                     a1                3.0          3.0
                     a2                0.0          0.0
                     b1                0.0          0.0
                     b2                0.0          0.0
                     e                 2.0          2.0


                       DFT Final Molecular Orbital Analysis
                       ------------------------------------

 Vector    1  Occ=2.000000D+00  E=-2.519224D+01  Symmetry=a1
              MO Center= -3.5D-27, -6.1D-28,  7.2D-02, r^2= 1.2D-02
   Bfn.  Coefficient  Atom+Function         Bfn.  Coefficient  Atom+Function  
  ----- ------------  ---------------      ----- ------------  ---------------
     1      0.993486  1 F  s          

 Vector    2  Occ=2.000000D+00  E=-1.328087D+00  Symmetry=a1
              MO Center=  1.4D-16,  4.9D-16, -6.6D-02, r^2= 3.7D-01
   Bfn.  Coefficient  Atom+Function         Bfn.  Coefficient  Atom+Function  
  ----- ------------  ---------------      ----- ------------  ---------------
     2      0.533037  1 F  s                  6      0.405982  1 F  s          
     1     -0.222851  1 F  s                 20      0.123516  2 H  s          
     5     -0.089759  1 F  pz                 9     -0.054881  1 F  pz         
    19      0.053332  1 F  dzz               10      0.050434  1 F  s          
    21     -0.032349  2 H  s          

 Vector    3  Occ=2.000000D+00  E=-6.245518D-01  Symmetry=a1
              MO Center=  7.6D-17, -3.9D-17, -9.3D-03, r^2= 5.9D-01
   Bfn.  Coefficient  Atom+Function         Bfn.  Coefficient  Atom+Function  
  ----- ------------  ---------------      ----- ------------  ---------------
     5      0.564378  1 F  pz                 9      0.329232  1 F  pz         
    20     -0.261868  2 H  s                  6      0.215407  1 F  s          
     2      0.142146  1 F  s                 21     -0.120386  2 H  s          
     1     -0.062524  1 F  s                 10      0.050358  1 F  s          
    19     -0.037281  1 F  dzz               13      0.032204  1 F  pz         

 Vector    4  Occ=2.000000D+00  E=-4.914900D-01  Symmetry=e
              MO Center= -2.2D-16, -7.4D-16,  5.6D-02, r^2= 4.9D-01
   Bfn.  Coefficient  Atom+Function         Bfn.  Coefficient  Atom+Function  
  ----- ------------  ---------------      ----- ------------  ---------------
     4      0.642228  1 F  py                 8      0.418524  1 F  py         
     3      0.171217  1 F  px                 7      0.111578  1 F  px         
    12      0.090995  1 F  py                18     -0.049071  1 F  dyz        

 Vector    5  Occ=2.000000D+00  E=-4.914900D-01  Symmetry=e
              MO Center=  1.1D-16, -3.0D-17,  5.6D-02, r^2= 4.9D-01
   Bfn.  Coefficient  Atom+Function         Bfn.  Coefficient  Atom+Function  
  ----- ------------  ---------------      ----- ------------  ---------------
     3      0.642228  1 F  px                 7      0.418524  1 F  px         
     4     -0.171217  1 F  py                 8     -0.111578  1 F  py         
    11      0.090995  1 F  px                16     -0.049071  1 F  dxz        

 Vector    6  Occ=0.000000D+00  E= 8.846439D-02  Symmetry=a1
              MO Center= -1.1D-16,  2.4D-16, -8.5D-01, r^2= 2.0D+00
   Bfn.  Coefficient  Atom+Function         Bfn.  Coefficient  Atom+Function  
  ----- ------------  ---------------      ----- ------------  ---------------
     6      1.172035  1 F  s                 21     -0.771649  2 H  s          
    10     -0.663134  1 F  s                  9     -0.354816  1 F  pz         
     5     -0.265455  1 F  pz                20     -0.167052  2 H  s          
    13      0.159098  1 F  pz                14     -0.108274  1 F  dxx        
    17     -0.108274  1 F  dyy                1     -0.097552  1 F  s          

 Vector    7  Occ=0.000000D+00  E= 2.283365D-01  Symmetry=a1
              MO Center=  2.2D-14, -9.3D-15,  8.5D-01, r^2= 2.9D+00
   Bfn.  Coefficient  Atom+Function         Bfn.  Coefficient  Atom+Function  
  ----- ------------  ---------------      ----- ------------  ---------------
    10      1.182226  1 F  s                  6     -0.814302  1 F  s          
    13      0.799080  1 F  pz                 9     -0.417162  1 F  pz         
    21     -0.361167  2 H  s                  5     -0.211611  1 F  pz         
    19      0.103577  1 F  dzz               14      0.085779  1 F  dxx        
    17      0.085779  1 F  dyy                1      0.064134  1 F  s          

 Vector    8  Occ=0.000000D+00  E= 2.366341D-01  Symmetry=e
              MO Center= -1.8D-15, -3.1D-15,  7.2D-02, r^2= 3.8D+00
   Bfn.  Coefficient  Atom+Function         Bfn.  Coefficient  Atom+Function  
  ----- ------------  ---------------      ----- ------------  ---------------
    12      1.036702  1 F  py                11      0.585091  1 F  px         
     8     -0.380057  1 F  py                 7     -0.214496  1 F  px         
     4     -0.208376  1 F  py                 3     -0.117603  1 F  px         

 Vector    9  Occ=0.000000D+00  E= 2.366341D-01  Symmetry=e
              MO Center= -1.7D-14,  9.6D-15,  7.2D-02, r^2= 3.8D+00
   Bfn.  Coefficient  Atom+Function         Bfn.  Coefficient  Atom+Function  
  ----- ------------  ---------------      ----- ------------  ---------------
    11      1.036702  1 F  px                12     -0.585091  1 F  py         
     7     -0.380057  1 F  px                 8      0.214496  1 F  py         
     3     -0.208376  1 F  px                 4      0.117603  1 F  py         

 Vector   10  Occ=0.000000D+00  E= 2.848026D-01  Symmetry=a1
              MO Center= -3.5D-15,  2.9D-15, -1.5D-01, r^2= 3.8D+00
   Bfn.  Coefficient  Atom+Function         Bfn.  Coefficient  Atom+Function  
  ----- ------------  ---------------      ----- ------------  ---------------
    21      3.460344  2 H  s                 10     -2.997043  1 F  s          
    13      2.088355  1 F  pz                 9      0.185687  1 F  pz         
    20      0.183651  2 H  s                  6      0.159006  1 F  s          
     5      0.123668  1 F  pz                 2     -0.073146  1 F  s          
    14     -0.044692  1 F  dxx               17     -0.044692  1 F  dyy        

 Vector   11  Occ=0.000000D+00  E= 1.039705D+00  Symmetry=a1
              MO Center= -1.8D-17,  5.0D-18, -7.8D-01, r^2= 1.3D+00
   Bfn.  Coefficient  Atom+Function         Bfn.  Coefficient  Atom+Function  
  ----- ------------  ---------------      ----- ------------  ---------------
    21      2.894332  2 H  s                 10     -1.567179  1 F  s          
    20     -1.165714  2 H  s                 13      1.041125  1 F  pz         
     6     -1.021069  1 F  s                  2      0.565685  1 F  s          
     5     -0.478223  1 F  pz                14      0.289091  1 F  dxx        
    17      0.289091  1 F  dyy                9      0.139282  1 F  pz         

 Vector   12  Occ=0.000000D+00  E= 1.543004D+00  Symmetry=e
              MO Center= -4.3D-16, -1.5D-16,  2.0D-02, r^2= 1.3D+00
   Bfn.  Coefficient  Atom+Function         Bfn.  Coefficient  Atom+Function  
  ----- ------------  ---------------      ----- ------------  ---------------
     7      1.414257  1 F  px                 3     -0.956198  1 F  px         
    11     -0.653531  1 F  px                16     -0.214142  1 F  dxz        

 Vector   13  Occ=0.000000D+00  E= 1.543004D+00  Symmetry=e
              MO Center= -5.7D-18,  6.2D-16,  2.0D-02, r^2= 1.3D+00
   Bfn.  Coefficient  Atom+Function         Bfn.  Coefficient  Atom+Function  
  ----- ------------  ---------------      ----- ------------  ---------------
     8      1.414257  1 F  py                 4     -0.956198  1 F  py         
    12     -0.653531  1 F  py                18     -0.214142  1 F  dyz        

 Vector   14  Occ=0.000000D+00  E= 1.587815D+00  Symmetry=a1
              MO Center= -4.8D-18, -9.7D-18,  3.5D-01, r^2= 1.2D+00
   Bfn.  Coefficient  Atom+Function         Bfn.  Coefficient  Atom+Function  
  ----- ------------  ---------------      ----- ------------  ---------------
     9      1.493117  1 F  pz                13     -0.844939  1 F  pz         
     5     -0.835051  1 F  pz                21     -0.596489  2 H  s          
    20      0.508672  2 H  s                 10      0.330736  1 F  s          
    19      0.256916  1 F  dzz               14     -0.169788  1 F  dxx        
    17     -0.169788  1 F  dyy                2     -0.062271  1 F  s          

 Vector   15  Occ=0.000000D+00  E= 1.676206D+00  Symmetry=a1
              MO Center=  8.1D-17,  4.8D-17,  1.5D-01, r^2= 1.7D+00
   Bfn.  Coefficient  Atom+Function         Bfn.  Coefficient  Atom+Function  
  ----- ------------  ---------------      ----- ------------  ---------------
     6      4.957089  1 F  s                  2     -2.283328  1 F  s          
    10     -1.638588  1 F  s                 19     -1.138338  1 F  dzz        
    14     -0.732557  1 F  dxx               17     -0.732557  1 F  dyy        
    21      0.464875  2 H  s                 20     -0.257995  2 H  s          
    13      0.136191  1 F  pz                 5     -0.127681  1 F  pz         

 Vector   16  Occ=0.000000D+00  E= 1.847637D+00  Symmetry=e
              MO Center= -6.7D-17, -4.7D-17,  1.4D-01, r^2= 6.2D-01
   Bfn.  Coefficient  Atom+Function         Bfn.  Coefficient  Atom+Function  
  ----- ------------  ---------------      ----- ------------  ---------------
    16      1.407916  1 F  dxz               18     -0.984539  1 F  dyz        
     7      0.155821  1 F  px                 8     -0.108964  1 F  py         
     3     -0.081113  1 F  px                11     -0.066807  1 F  px         
     4      0.056721  1 F  py                12      0.046718  1 F  py         

 Vector   17  Occ=0.000000D+00  E= 1.847637D+00  Symmetry=e
              MO Center= -7.0D-16, -4.9D-16,  1.4D-01, r^2= 6.2D-01
   Bfn.  Coefficient  Atom+Function         Bfn.  Coefficient  Atom+Function  
  ----- ------------  ---------------      ----- ------------  ---------------
    18      1.407916  1 F  dyz               16      0.984539  1 F  dxz        
     8      0.155821  1 F  py                 7      0.108964  1 F  px         
     4     -0.081113  1 F  py                12     -0.066807  1 F  py         
     3     -0.056721  1 F  px                11     -0.046718  1 F  px         

 Vector   18  Occ=0.000000D+00  E= 1.914577D+00  Symmetry=b2
              MO Center=  7.3D-16,  6.5D-16,  7.2D-02, r^2= 6.1D-01
   Bfn.  Coefficient  Atom+Function         Bfn.  Coefficient  Atom+Function  
  ----- ------------  ---------------      ----- ------------  ---------------
    15      1.732051  1 F  dxy        

 Vector   19  Occ=0.000000D+00  E= 1.914577D+00  Symmetry=b1
              MO Center=  5.1D-16, -5.6D-16,  7.2D-02, r^2= 6.1D-01
   Bfn.  Coefficient  Atom+Function         Bfn.  Coefficient  Atom+Function  
  ----- ------------  ---------------      ----- ------------  ---------------
    14      0.866025  1 F  dxx               17     -0.866025  1 F  dyy        

 Vector   20  Occ=0.000000D+00  E= 2.738264D+00  Symmetry=a1
              MO Center= -2.1D-18, -8.9D-18, -2.2D-01, r^2= 8.1D-01
   Bfn.  Coefficient  Atom+Function         Bfn.  Coefficient  Atom+Function  
  ----- ------------  ---------------      ----- ------------  ---------------
    20     -1.618982  2 H  s                  6      1.532249  1 F  s          
     9     -1.088970  1 F  pz                19      1.056325  1 F  dzz        
    21      0.793795  2 H  s                 14     -0.706895  1 F  dxx        
    17     -0.706895  1 F  dyy                2     -0.690734  1 F  s          
    10     -0.665688  1 F  s                 13      0.425789  1 F  pz         

 Vector   21  Occ=0.000000D+00  E= 4.321906D+00  Symmetry=a1
              MO Center= -2.0D-18, -2.6D-18,  7.2D-02, r^2= 1.5D+00
   Bfn.  Coefficient  Atom+Function         Bfn.  Coefficient  Atom+Function  
  ----- ------------  ---------------      ----- ------------  ---------------
     6      8.436502  1 F  s                 14     -2.795857  1 F  dxx        
    17     -2.795857  1 F  dyy               19     -2.642545  1 F  dzz        
     2     -1.949191  1 F  s                 10     -1.160881  1 F  s          
     1     -0.688463  1 F  s                 21     -0.184950  2 H  s          
     9     -0.115545  1 F  pz                20     -0.111437  2 H  s          


 center of mass
 --------------
 x =   0.00000000 y =   0.00000000 z =   0.04759162

 moments of inertia (a.u.)
 ------------------
           2.937082491706           0.000000000000           0.000000000000
           0.000000000000           2.937082491706           0.000000000000
           0.000000000000           0.000000000000           0.000000000000

     Multipole analysis of the density
     ---------------------------------

     L   x y z        total         alpha         beta         nuclear
     -   - - -        -----         -----         ----         -------
     0   0 0 0     -0.000000     -5.000000     -5.000000     10.000000

     1   1 0 0      0.000000      0.000000      0.000000      0.000000
     1   0 1 0      0.000000      0.000000      0.000000      0.000000
     1   0 0 1     -0.806940     -0.206763     -0.206763     -0.393415

     2   2 0 0     -4.340589     -2.170294     -2.170294      0.000000
     2   1 1 0      0.000000      0.000000      0.000000      0.000000
     2   1 0 1      0.000000      0.000000      0.000000      0.000000
     2   0 2 0     -4.340589     -2.170294     -2.170294      0.000000
     2   0 1 1      0.000000      0.000000      0.000000      0.000000
     2   0 0 2     -2.598798     -2.688131     -2.688131      2.777465


            General Information
            -------------------
          SCF calculation type: DFT
          Wavefunction type:  closed shell.
          No. of atoms     :     2
          No. of electrons :    10
           Alpha electrons :     5
            Beta electrons :     5
          Charge           :     0
          Spin multiplicity:     1
          Use of symmetry is: on ; symmetry adaption is: on 
          Maximum number of iterations:  30
          AO basis - number of functions:    21
                     number of shells:    10
          Convergence on energy requested:  1.00D-06
          Convergence on density requested:  1.00D-05
          Convergence on gradient requested:  5.00D-04

              XC Information
              --------------
                       MPWB1K Method XC Functional
                     Hartree-Fock (Exact) Exchange  0.440          
                        mPW91  Exchange Functional  0.560          
                         B95 Correlation Potential  1.000          

             Grid Information
             ----------------
          Grid used for XC integration:  fine      
          Radial quadrature: Mura-Knowles        
          Angular quadrature: Lebedev. 
          Tag              B.-S. Rad. Rad. Pts. Rad. Cut. Ang. Pts.
          ---              ---------- --------- --------- ---------
          F                   0.50       70           6.0       590
          H                   0.35       60           6.0       590
          Grid pruning is: on 
          Number of quadrature shells:   130
          Spatial weights used:  Erf1

          Convergence Information
          -----------------------
          Convergence aids based upon iterative change in 
          total energy or number of iterations. 
          Levelshifting, if invoked, occurs when the 
          HOMO/LUMO gap drops below (HL_TOL):  1.00D-02
          DIIS, if invoked, will attempt to extrapolate 
          using up to (NFOCK): 10 stored Fock matrices.

                    Damping( 0%)  Levelshifting(0.5)       DIIS
                  --------------- ------------------- ---------------
          dE  on:    start            ASAP                start   
          dE off:    2 iters         30 iters            30 iters 


      Screening Tolerance Information
      -------------------------------
          Density screening/tol_rho:  1.00D-10
          AO Gaussian exp screening on grid/accAOfunc:  14
          CD Gaussian exp screening on grid/accCDfunc:  20
          XC Gaussian exp screening on grid/accXCfunc:  20
          Schwarz screening/accCoul:  1.00D-08



                            NWChem DFT Gradient Module
                            --------------------------


                       test4 MPWB1K/6-31+G* HF optimization



  charge          =   0.00
  wavefunction    = closed shell

  Using symmetry


                         DFT ENERGY GRADIENTS

    atom               coordinates                        gradient
                 x          y          z           x          y          z
   1 F       0.000000   0.000000   0.135841    0.000000   0.000000   0.001994
   2 H       0.000000   0.000000  -1.615980    0.000000   0.000000  -0.001994

                 ----------------------------------------
                 |  Time  |  1-e(secs)   |  2-e(secs)   |
                 ----------------------------------------
                 |  CPU   |       0.00   |       0.01   |
                 ----------------------------------------
                 |  WALL  |       0.00   |       0.01   |
                 ----------------------------------------
  no constraints, skipping    0.0000000000000000     

  Step       Energy      Delta E   Gmax     Grms     Xrms     Xmax   Walltime
  ---- ---------------- -------- -------- -------- -------- -------- --------
@    1    -100.40690649 -2.8D-03  0.00199  0.00199  0.02839  0.04918      0.4
                                                                    



                                Z-matrix (autoz)
                                -------- 

 Units are Angstrom for bonds and degrees for angles

      Type          Name      I     J     K     L     M      Value     Gradient
      ----------- --------  ----- ----- ----- ----- ----- ---------- ----------
    1 Stretch                  1     2                       0.92702    0.00199

  no constraints, skipping    0.0000000000000000     
  no constraints, skipping    0.0000000000000000     
  no constraints, skipping    0.0000000000000000     

                                 NWChem DFT Module
[...]
     7      0.703121  1 F  px                12     -0.567058  1 F  py         
     3     -0.475400  1 F  px                11     -0.324921  1 F  px         
    18     -0.186164  1 F  dyz               16     -0.106671  1 F  dxz        

 Vector   13  Occ=0.000000D+00  E= 1.542878D+00  Symmetry=e
              MO Center=  1.7D-15, -2.5D-15,  1.9D-02, r^2= 1.3D+00
   Bfn.  Coefficient  Atom+Function         Bfn.  Coefficient  Atom+Function  
  ----- ------------  ---------------      ----- ------------  ---------------
     7      1.227098  1 F  px                 3     -0.829676  1 F  px         
     8     -0.703121  1 F  py                11     -0.567058  1 F  px         
     4      0.475400  1 F  py                12      0.324921  1 F  py         
    16     -0.186164  1 F  dxz               18      0.106671  1 F  dyz        

 Vector   14  Occ=0.000000D+00  E= 1.587094D+00  Symmetry=a1
              MO Center= -2.9D-18,  1.9D-19,  3.4D-01, r^2= 1.2D+00
   Bfn.  Coefficient  Atom+Function         Bfn.  Coefficient  Atom+Function  
  ----- ------------  ---------------      ----- ------------  ---------------
     9      1.494185  1 F  pz                13     -0.844330  1 F  pz         
     5     -0.834299  1 F  pz                21     -0.595573  2 H  s          
    20      0.510477  2 H  s                 10      0.337012  1 F  s          
    19      0.261491  1 F  dzz               14     -0.165726  1 F  dxx        
    17     -0.165726  1 F  dyy                2     -0.050830  1 F  s          

 Vector   15  Occ=0.000000D+00  E= 1.675810D+00  Symmetry=a1
              MO Center= -1.1D-16,  1.4D-17,  1.5D-01, r^2= 1.7D+00
   Bfn.  Coefficient  Atom+Function         Bfn.  Coefficient  Atom+Function  
  ----- ------------  ---------------      ----- ------------  ---------------
     6      4.957610  1 F  s                  2     -2.283719  1 F  s          
    10     -1.633987  1 F  s                 19     -1.136642  1 F  dzz        
    14     -0.733615  1 F  dxx               17     -0.733615  1 F  dyy        
    21      0.457390  2 H  s                 20     -0.254904  2 H  s          
     5     -0.131778  1 F  pz                13      0.129937  1 F  pz         

 Vector   16  Occ=0.000000D+00  E= 1.847293D+00  Symmetry=e
              MO Center=  6.9D-17,  7.7D-16,  1.4D-01, r^2= 6.2D-01
   Bfn.  Coefficient  Atom+Function         Bfn.  Coefficient  Atom+Function  
  ----- ------------  ---------------      ----- ------------  ---------------
    16      1.710995  1 F  dxz                7      0.189754  1 F  px         
    18      0.154437  1 F  dyz                3     -0.098743  1 F  px         
    11     -0.081374  1 F  px         

 Vector   17  Occ=0.000000D+00  E= 1.847293D+00  Symmetry=e
              MO Center= -7.8D-21, -8.3D-20,  1.4D-01, r^2= 6.2D-01
   Bfn.  Coefficient  Atom+Function         Bfn.  Coefficient  Atom+Function  
  ----- ------------  ---------------      ----- ------------  ---------------
    18      1.710995  1 F  dyz                8      0.189754  1 F  py         
    16     -0.154437  1 F  dxz                4     -0.098743  1 F  py         
    12     -0.081374  1 F  py         

 Vector   18  Occ=0.000000D+00  E= 1.914395D+00  Symmetry=b2
              MO Center= -1.6D-15,  1.9D-15,  7.1D-02, r^2= 6.1D-01
   Bfn.  Coefficient  Atom+Function         Bfn.  Coefficient  Atom+Function  
  ----- ------------  ---------------      ----- ------------  ---------------
    15      1.732051  1 F  dxy        

 Vector   19  Occ=0.000000D+00  E= 1.914395D+00  Symmetry=b1
              MO Center= -1.2D-16, -2.6D-16,  7.1D-02, r^2= 6.1D-01
   Bfn.  Coefficient  Atom+Function         Bfn.  Coefficient  Atom+Function  
  ----- ------------  ---------------      ----- ------------  ---------------
    14      0.866025  1 F  dxx               17     -0.866025  1 F  dyy        

 Vector   20  Occ=0.000000D+00  E= 2.741793D+00  Symmetry=a1
              MO Center= -2.7D-18,  2.9D-18, -2.2D-01, r^2= 8.1D-01
   Bfn.  Coefficient  Atom+Function         Bfn.  Coefficient  Atom+Function  
  ----- ------------  ---------------      ----- ------------  ---------------
    20     -1.625335  2 H  s                  6      1.535171  1 F  s          
     9     -1.092766  1 F  pz                19      1.058828  1 F  dzz        
    21      0.794228  2 H  s                 14     -0.707798  1 F  dxx        
    17     -0.707798  1 F  dyy                2     -0.689989  1 F  s          
    10     -0.666255  1 F  s                 13      0.426342  1 F  pz         

 Vector   21  Occ=0.000000D+00  E= 4.321804D+00  Symmetry=a1
              MO Center=  1.1D-18,  2.1D-18,  7.2D-02, r^2= 1.5D+00
   Bfn.  Coefficient  Atom+Function         Bfn.  Coefficient  Atom+Function  
  ----- ------------  ---------------      ----- ------------  ---------------
     6      8.436087  1 F  s                 14     -2.795569  1 F  dxx        
    17     -2.795569  1 F  dyy               19     -2.642981  1 F  dzz        
     2     -1.948861  1 F  s                 10     -1.156993  1 F  s          
     1     -0.688446  1 F  s                 21     -0.190536  2 H  s          
     9     -0.115020  1 F  pz                20     -0.109366  2 H  s          


 center of mass
 --------------
 x =   0.00000000 y =   0.00000000 z =   0.04611982

 moments of inertia (a.u.)
 ------------------
           2.926116463478           0.000000000000           0.000000000000
           0.000000000000           2.926116463478           0.000000000000
           0.000000000000           0.000000000000           0.000000000000

     Multipole analysis of the density
     ---------------------------------

     L   x y z        total         alpha         beta         nuclear
     -   - - -        -----         -----         ----         -------
     0   0 0 0     -0.000000     -5.000000     -5.000000     10.000000

     1   1 0 0      0.000000      0.000000      0.000000      0.000000
     1   0 1 0      0.000000      0.000000      0.000000      0.000000
     1   0 0 1     -0.805764     -0.199628     -0.199628     -0.406508

     2   2 0 0     -4.339195     -2.169597     -2.169597      0.000000
     2   1 1 0     -0.000000     -0.000000     -0.000000      0.000000
     2   1 0 1      0.000000      0.000000      0.000000      0.000000
     2   0 2 0     -4.339195     -2.169597     -2.169597      0.000000
     2   0 1 1      0.000000      0.000000      0.000000      0.000000
     2   0 0 2     -2.600287     -2.684244     -2.684244      2.768200

 Line search: 
     step= 1.00 grad=-2.8D-07 hess= 1.5D-07 energy=   -100.406910 mode=accept  
 new step= 1.00                   predicted energy=   -100.406910
  no constraints, skipping    0.0000000000000000     
  no constraints, skipping    0.0000000000000000     
  no constraints, skipping    0.0000000000000000     

          --------
          Step   3
          --------


                         Geometry "geometry" -> "geometry"
                         ---------------------------------

 Output coordinates in angstroms (scale by  1.889725989 to convert to a.u.)

  No.       Tag          Charge          X              Y              Z
 ---- ---------------- ---------- -------------- -------------- --------------
    1 F                    9.0000     0.00000000     0.00000000     0.07101764
    2 H                    1.0000     0.00000000     0.00000000    -0.85427364

      Atomic Mass 
      ----------- 

      F                 18.998400
      H                  1.007825


 Effective nuclear repulsion energy (a.u.)       5.1471308435

            Nuclear Dipole moment (a.u.) 
            ----------------------------
        X                 Y               Z
 ---------------- ---------------- ----------------
     0.0000000000     0.0000000000    -0.4065082462

      Symmetry information
      --------------------

 Group name             C4v       
 Group number             18
 Group order               8
 No. of unique centers     2

      Symmetry unique atoms

     1    2


                                 NWChem DFT Module
                                 -----------------


                       test4 MPWB1K/6-31+G* HF optimization




 Summary of "ao basis" -> "ao basis" (cartesian)
 ------------------------------------------------------------------------------
       Tag                 Description            Shells   Functions and Types
 ---------------- ------------------------------  ------  ---------------------
 F                          6-31+G*                  8       19   4s3p1d
 H                          6-31+G*                  2        2   2s


      Symmetry analysis of basis
      --------------------------

        a1         11
        a2          0
        b1          1
        b2          1
        e           8


  The DFT is already converged 

         Total DFT energy =   -100.406909765585


            General Information
            -------------------
          SCF calculation type: DFT
          Wavefunction type:  closed shell.
          No. of atoms     :     2
          No. of electrons :    10
           Alpha electrons :     5
            Beta electrons :     5
          Charge           :     0
          Spin multiplicity:     1
          Use of symmetry is: on ; symmetry adaption is: on 
          Maximum number of iterations:  30
          AO basis - number of functions:    21
                     number of shells:    10
          Convergence on energy requested:  1.00D-06
          Convergence on density requested:  1.00D-05
          Convergence on gradient requested:  5.00D-04

              XC Information
              --------------
                       MPWB1K Method XC Functional
                     Hartree-Fock (Exact) Exchange  0.440          
                        mPW91  Exchange Functional  0.560          
                         B95 Correlation Potential  1.000          

             Grid Information
             ----------------
          Grid used for XC integration:  fine      
          Radial quadrature: Mura-Knowles        
          Angular quadrature: Lebedev. 
          Tag              B.-S. Rad. Rad. Pts. Rad. Cut. Ang. Pts.
          ---              ---------- --------- --------- ---------
          F                   0.50       70           6.0       590
          H                   0.35       60           6.0       590
          Grid pruning is: on 
          Number of quadrature shells:   130
          Spatial weights used:  Erf1

          Convergence Information
          -----------------------
          Convergence aids based upon iterative change in 
          total energy or number of iterations. 
          Levelshifting, if invoked, occurs when the 
          HOMO/LUMO gap drops below (HL_TOL):  1.00D-02
          DIIS, if invoked, will attempt to extrapolate 
          using up to (NFOCK): 10 stored Fock matrices.

                    Damping( 0%)  Levelshifting(0.5)       DIIS
                  --------------- ------------------- ---------------
          dE  on:    start            ASAP                start   
          dE off:    2 iters         30 iters            30 iters 


      Screening Tolerance Information
      -------------------------------
          Density screening/tol_rho:  1.00D-10
          AO Gaussian exp screening on grid/accAOfunc:  14
          CD Gaussian exp screening on grid/accCDfunc:  20
          XC Gaussian exp screening on grid/accXCfunc:  20
          Schwarz screening/accCoul:  1.00D-08



                            NWChem DFT Gradient Module
                            --------------------------


                       test4 MPWB1K/6-31+G* HF optimization



  charge          =   0.00
  wavefunction    = closed shell

  Using symmetry


                         DFT ENERGY GRADIENTS

    atom               coordinates                        gradient
                 x          y          z           x          y          z
   1 F       0.000000   0.000000   0.134204    0.000000   0.000000   0.000012
   2 H       0.000000   0.000000  -1.614343    0.000000   0.000000  -0.000012

                 ----------------------------------------
                 |  Time  |  1-e(secs)   |  2-e(secs)   |
                 ----------------------------------------
                 |  CPU   |       0.00   |       0.01   |
                 ----------------------------------------
                 |  WALL  |       0.00   |       0.01   |
                 ----------------------------------------
  no constraints, skipping    0.0000000000000000     

  Step       Energy      Delta E   Gmax     Grms     Xrms     Xmax   Walltime
  ---- ---------------- -------- -------- -------- -------- -------- --------
@    3    -100.40690977 -1.3D-07  0.00001  0.00001  0.00020  0.00034      0.7
                                     ok       ok       ok       ok  



                                Z-matrix (autoz)
                                -------- 

 Units are Angstrom for bonds and degrees for angles

      Type          Name      I     J     K     L     M      Value     Gradient
      ----------- --------  ----- ----- ----- ----- ----- ---------- ----------
    1 Stretch                  1     2                       0.92529    0.00001


      ----------------------
      Optimization converged
      ----------------------


  Step       Energy      Delta E   Gmax     Grms     Xrms     Xmax   Walltime
  ---- ---------------- -------- -------- -------- -------- -------- --------
@    3    -100.40690977 -1.3D-07  0.00001  0.00001  0.00020  0.00034      0.7
                                     ok       ok       ok       ok  



                                Z-matrix (autoz)
                                -------- 

 Units are Angstrom for bonds and degrees for angles

      Type          Name      I     J     K     L     M      Value     Gradient
      ----------- --------  ----- ----- ----- ----- ----- ---------- ----------
    1 Stretch                  1     2                       0.92529    0.00001



                         Geometry "geometry" -> "geometry"
                         ---------------------------------

 Output coordinates in angstroms (scale by  1.889725989 to convert to a.u.)

  No.       Tag          Charge          X              Y              Z
 ---- ---------------- ---------- -------------- -------------- --------------
    1 F                    9.0000     0.00000000     0.00000000     0.07101764
    2 H                    1.0000     0.00000000     0.00000000    -0.85427364

      Atomic Mass 
      ----------- 

      F                 18.998400
      H                  1.007825


 Effective nuclear repulsion energy (a.u.)       5.1471308435

            Nuclear Dipole moment (a.u.) 
            ----------------------------
        X                 Y               Z
 ---------------- ---------------- ----------------
     0.0000000000     0.0000000000    -0.4065082462

      Symmetry information
      --------------------

 Group name             C4v       
 Group number             18
 Group order               8
 No. of unique centers     2

      Symmetry unique atoms

     1    2


                Final and change from initial internal coordinates
                --------------------------------------------------



                                Z-matrix (autoz)
                                -------- 

 Units are Angstrom for bonds and degrees for angles

      Type          Name      I     J     K     L     M      Value       Change
      ----------- --------  ----- ----- ----- ----- ----- ---------- ----------
    1 Stretch                  1     2                       0.92529   -0.05378

 ==============================================================================
                                internuclear distances
 ------------------------------------------------------------------------------
       center one      |      center two      | atomic units |  angstroms
 ------------------------------------------------------------------------------
    2 H                |   1 F                |     1.74855  |     0.92529
 ------------------------------------------------------------------------------
                         number of included internuclear distances:          1
 ==============================================================================




 Task  times  cpu:        0.6s     wall:        0.7s


                                NWChem Input Module
                                -------------------


 Summary of allocated global arrays
-----------------------------------
  No active global arrays



                         GA Statistics for process    0
                         ------------------------------

       create   destroy   get      put      acc     scatter   gather  read&inc
calls:  919      919     1.35e+04 2391     1701        0        0     1571     
number of processes/call 1.31e+00 1.33e+00 1.66e+00 0.00e+00 0.00e+00
bytes total:             6.29e+06 1.82e+06 4.06e+06 0.00e+00 0.00e+00 1.26e+04
bytes remote:            1.25e+06 2.85e+05 5.99e+05 0.00e+00 0.00e+00 0.00e+00
Max memory consumed for GA by this process: 103968 bytes

MA_summarize_allocated_blocks: starting scan ...
MA_summarize_allocated_blocks: scan completed: 0 heap blocks, 0 stack blocks
MA usage statistics:

	allocation statistics:
					      heap	     stack
					      ----	     -----
	current number of blocks	         0	         0
	maximum number of blocks	        26	        57
	current total bytes		         0	         0
	maximum total bytes		 276300640	  22510568
	maximum total K-bytes		    276301	     22511
	maximum total M-bytes		       277	        23


                                     CITATION
                                     --------
                Please cite the following reference when publishing
                           results obtained with NWChem:

                 M. Valiev, E.J. Bylaska, N. Govind, K. Kowalski,
              T.P. Straatsma, H.J.J. van Dam, D. Wang, J. Nieplocha,
                        E. Apra, T.L. Windus, W.A. de Jong
                 "NWChem: a comprehensive and scalable open-source
                  solution for large scale molecular simulations"
                      Comput. Phys. Commun. 181, 1477 (2010)
                           doi:10.1016/j.cpc.2010.04.018

                                      AUTHORS
                                      -------
          E. Apra, E. J. Bylaska, W. A. de Jong, N. Govind, K. Kowalski,
       T. P. Straatsma, M. Valiev, H. J. J. van Dam, D. Wang, T. L. Windus,
        J. Hammond, J. Autschbach, K. Bhaskaran-Nair, J. Brabec, K. Lopata,
    S. A. Fischer, S. Krishnamoorthy, M. Jacquelin, W. Ma, M. Klemm, O. Villa,
      Y. Chen, V. Anisimov, F. Aquino, S. Hirata, M. T. Hackler, V. Konjkov,
            D. Mejia-Rodriguez, T. Risthaus, M. Malagoli, A. Marenich,
   A. Otero-de-la-Roza, J. Mullin, P. Nichols, R. Peverati, J. Pittner, Y. Zhao,
        P.-D. Fan, A. Fonari, M. J. Williamson, R. J. Harrison, J. R. Rehr,
      M. Dupuis, D. Silverstein, D. M. A. Smith, J. Nieplocha, V. Tipparaju,
    M. Krishnan, B. E. Van Kuiken, A. Vazquez-Mayagoitia, L. Jensen, M. Swart,
      Q. Wu, T. Van Voorhis, A. A. Auer, M. Nooijen, L. D. Crosby, E. Brown,
      G. Cisneros, G. I. Fann, H. Fruchtl, J. Garza, K. Hirao, R. A. Kendall,
      J. A. Nichols, K. Tsemekhman, K. Wolinski, J. Anchell, D. E. Bernholdt,
      P. Borowski, T. Clark, D. Clerc, H. Dachsel, M. J. O. Deegan, K. Dyall,
    D. Elwood, E. Glendening, M. Gutowski, A. C. Hess, J. Jaffe, B. G. Johnson,
     J. Ju, R. Kobayashi, R. Kutteh, Z. Lin, R. Littlefield, X. Long, B. Meng,
      T. Nakajima, S. Niu, L. Pollack, M. Rosing, K. Glaesemann, G. Sandrone,
      M. Stave, H. Taylor, G. Thomas, J. H. van Lenthe, A. T. Wong, Z. Zhang.

 Total times  cpu:        0.7s     wall:        0.7s
