 argument  1 = /home/list1234/source/nwchem-6.8.1-release/QA/tests/dft_siosi3/dft_siosi3.nw



============================== echo of input deck ==============================
title siosi3

start siosi3_64
echo

geometry units au
O 0.000000 0.000000 0.000000
Si 3.014576 0.000000 0.000000
Si -2.508676 -1.669137 0.090355
O 3.981166 -1.323122 -2.508935
O 3.870273 2.910825 0.000000
O 4.041116 -1.465033 2.376888
O -2.655663 -3.328781 -2.400368
O -2.480544 -3.435889 2.483573
O -4.832471 0.280842 0.142363
Si 5.637169 -3.319181 -4.029830
Si 5.930953 4.953101 0.791790
Si 5.468246 -2.250324 4.885188
Si -7.654391 0.847590 1.014023
Si -3.158194 -4.857247 5.026302
Si -2.974151 -5.921535 -3.888964
H 5.270061 -6.079998 -2.949279
H 8.494671 -2.562004 -3.822741
H 4.688562 -3.250915 -6.887353
H 4.114112 -1.013523 7.254688
H 5.390639 -5.229699 5.239395
H 8.311107 -1.375146 4.719652
H 5.236878 7.507709 -0.616368
H 5.938739 5.355645 3.732678
H 8.621652 4.058320 -0.087848
H -1.107625 -8.007345 -2.844945
H -5.765149 -6.871347 -3.589463
H -2.308182 -5.365343 -6.772894
H -2.645080 -3.056162 7.365261
H -1.433339 -7.291917 5.351028
H -6.013502 -5.704069 4.953988
H -8.533456 3.346292 -0.391100
H -7.795607 1.205101 3.957357
H -9.424475 -1.395251 0.207369
end

dft
  noio
  convergence nolevelshifting nodamping
  print "dft timings"
  tolerances acccoul 10
end

basis "ao basis" cartesian print segment
H  library "DZVP2 (DFT Orbital)"
O  library "DZVP (DFT Orbital)"
Si library "DZVP (DFT Orbital)"
end

basis "cd basis" cartesian print segment
H  library "DGauss A2 DFT Coulomb Fitting"
O  library "DGauss A1 DFT Coulomb Fitting"
Si library "DGauss A1 DFT Coulomb Fitting"
end

task dft

================================================================================


                                         
                                         


              Northwest Computational Chemistry Package (NWChem) 6.8
              ------------------------------------------------------


                    Environmental Molecular Sciences Laboratory
                       Pacific Northwest National Laboratory
                                Richland, WA 99352

                              Copyright (c) 1994-2018
                       Pacific Northwest National Laboratory
                            Battelle Memorial Institute

             NWChem is an open-source computational chemistry package
                        distributed under the terms of the
                      Educational Community License (ECL) 2.0
             A copy of the license is included with this distribution
                              in the LICENSE.TXT file

                                  ACKNOWLEDGMENT
                                  --------------

            This software and its documentation were developed at the
            EMSL at Pacific Northwest National Laboratory, a multiprogram
            national laboratory, operated for the U.S. Department of Energy
            by Battelle under Contract Number DE-AC05-76RL01830. Support
            for this work was provided by the Department of Energy Office
            of Biological and Environmental Research, Office of Basic
            Energy Sciences, and the Office of Advanced Scientific Computing.


           Job information
           ---------------

    hostname        = list1234-B360M-H
    program         = /home/list1234/source/nwchem-6.8.1-release/bin/LINUX64/nwchem
    date            = Sun Jun 30 05:51:24 2019

    compiled        = Sun_Jun_30_05:21:11_2019
    source          = /home/list1234/source/nwchem-6.8.1-release
    nwchem branch   = Development
    nwchem revision = N/A
    ga revision     = 5.6.5
    use scalapack   = T
    input           = /home/list1234/source/nwchem-6.8.1-release/QA/tests/dft_siosi3/dft_siosi3.nw
    prefix          = siosi3_64.
    data base       = ./siosi3_64.db
    status          = startup
    nproc           =        4
    time left       =     -1s



           Memory information
           ------------------

    heap     =   86247164 doubles =    658.0 Mbytes
    stack    =   86247169 doubles =    658.0 Mbytes
    global   =  172494336 doubles =   1316.0 Mbytes (distinct from heap & stack)
    total    =  344988669 doubles =   2632.1 Mbytes
    verify   = yes
    hardfail = no 


           Directory information
           ---------------------

  0 permanent = .
  0 scratch   = .




                                NWChem Input Module
                                -------------------


                                      siosi3
                                      ------
 CS  symmetry detected

          ------
          auto-z
          ------
  no constraints, skipping    0.0000000000000000     
  no constraints, skipping    0.0000000000000000     


                             Geometry "geometry" -> ""
                             -------------------------

 Output coordinates in a.u. (scale by  1.000000000 to convert to a.u.)

  No.       Tag          Charge          X              Y              Z
 ---- ---------------- ---------- -------------- -------------- --------------
    1 O                    8.0000     0.58768366     1.37681278     0.00000000
    2 Si                  14.0000     0.09040124     0.65901094     2.88532905
    3 Si                  14.0000     0.09040124     0.65901094    -2.88532905
    4 O                    8.0000    -2.83339551     0.96350747     3.46705761
    5 O                    8.0000     1.66283486     2.65245282     4.54628505
    6 O                    8.0000     0.93954127    -2.14395728     3.40689390
    7 O                    8.0000    -2.83339551     0.96350747    -3.46705761
    8 O                    8.0000     0.93954127    -2.14395728    -3.40689390
    9 O                    8.0000     1.66283486     2.65245282    -4.54628505
   10 Si                  14.0000    -5.48519233    -0.00797098     4.49852536
   11 Si                  14.0000     3.15176314     3.21944682     7.09693912
   12 Si                  14.0000     2.22675343    -4.60953295     4.50642396
   13 Si                  14.0000     3.15176314     3.21944682    -7.09693912
   14 Si                  14.0000     2.22675343    -4.60953295    -4.50642396
   15 Si                  14.0000    -5.48519233    -0.00797098    -4.49852536
   16 H                    1.0000    -6.19482498    -2.66492089     3.33168241
   17 H                    1.0000    -5.34693571    -0.24339872     7.44928389
   18 H                    1.0000    -7.54980555     2.01586225     3.65507638
   19 H                    1.0000     5.05332177    -4.80169037     3.53097993
   20 H                    1.0000     0.76591126    -7.05647082     3.56482401
   21 H                    1.0000     2.14201596    -4.52466561     7.48312954
   22 H                    1.0000     3.65580930     6.17363924     7.19357761
   23 H                    1.0000     5.71471166     1.72405931     7.17477798
   24 H                    1.0000     1.48506003     2.44095670     9.42723832
   25 H                    1.0000    -6.19482498    -2.66492089    -3.33168241
   26 H                    1.0000    -5.34693571    -0.24339872    -7.44928389
   27 H                    1.0000    -7.54980555     2.01586225    -3.65507638
   28 H                    1.0000     5.05332177    -4.80169037    -3.53097993
   29 H                    1.0000     0.76591126    -7.05647082    -3.56482401
   30 H                    1.0000     2.14201596    -4.52466561    -7.48312954
   31 H                    1.0000     3.65580930     6.17363924    -7.19357761
   32 H                    1.0000     5.71471166     1.72405931    -7.17477798
   33 H                    1.0000     1.48506003     2.44095670    -9.42723832

      Atomic Mass 
      ----------- 

      O                 15.994910
      Si                27.976930
      H                  1.007825


 Effective nuclear repulsion energy (a.u.)    2313.2423767735

            Nuclear Dipole moment (a.u.) 
            ----------------------------
        X                 Y               Z
 ---------------- ---------------- ----------------
    -0.0000000000    -0.0000000000    -0.0000000000

      Symmetry information
      --------------------

 Group name             Cs        
 Group number              2
 Group order               2
 No. of unique centers    17

      Symmetry unique atoms

     1    2    4    5    6   10   11   12   16   17   18   19   20   21   22
    23   24



                                Z-matrix (autoz)
                                -------- 

 Units are Angstrom for bonds and degrees for angles

      Type          Name      I     J     K     L     M      Value
      ----------- --------  ----- ----- ----- ----- ----- ----------
    1 Stretch                  1     2                       1.59524
    2 Stretch                  1     3                       1.59524
    3 Stretch                  2     4                       1.58574
    4 Stretch                  2     5                       1.60552
    5 Stretch                  2     6                       1.57422
    6 Stretch                  3     7                       1.58574
    7 Stretch                  3     8                       1.57422
    8 Stretch                  3     9                       1.60552
    9 Stretch                  4    10                       1.59103
   10 Stretch                  5    11                       1.59143
   11 Stretch                  6    12                       1.58267
   12 Stretch                  7    15                       1.59103
   13 Stretch                  8    14                       1.58267
   14 Stretch                  9    13                       1.59143
   15 Stretch                 10    16                       1.58086
   16 Stretch                 10    17                       1.56814
   17 Stretch                 10    18                       1.59369
   18 Stretch                 11    22                       1.58671
   19 Stretch                 11    23                       1.57077
   20 Stretch                 11    24                       1.57106
   21 Stretch                 12    19                       1.58558
   22 Stretch                 12    20                       1.58825
   23 Stretch                 12    21                       1.57648
   24 Stretch                 13    31                       1.58671
   25 Stretch                 13    32                       1.57077
   26 Stretch                 13    33                       1.57106
   27 Stretch                 14    28                       1.58558
   28 Stretch                 14    29                       1.58825
   29 Stretch                 14    30                       1.57648
   30 Stretch                 15    25                       1.58086
   31 Stretch                 15    26                       1.56814
   32 Stretch                 15    27                       1.59369
   33 Bend                     1     2     4               108.81788
   34 Bend                     1     2     5               106.38180
   35 Bend                     1     2     6               110.18641
   36 Bend                     1     3     7               108.81788
   37 Bend                     1     3     8               110.18641
   38 Bend                     1     3     9               106.38180
   39 Bend                     2     1     3               146.32369
   40 Bend                     2     4    10               153.42137
   41 Bend                     2     5    11               147.64823
   42 Bend                     2     6    12               164.59237
   43 Bend                     3     7    15               153.42137
   44 Bend                     3     8    14               164.59237
   45 Bend                     3     9    13               147.64823
   46 Bend                     4     2     5               109.42898
   47 Bend                     4     2     6               109.88971
   48 Bend                     4    10    16               111.27753
   49 Bend                     4    10    17               109.03392
   50 Bend                     4    10    18               106.94351
   51 Bend                     5     2     6               112.03401
   52 Bend                     5    11    22               107.23640
   53 Bend                     5    11    23               110.77757
   54 Bend                     5    11    24               109.77523
   55 Bend                     6    12    19               109.82768
   56 Bend                     6    12    20               110.32117
   57 Bend                     6    12    21               109.36663
   58 Bend                     7     3     8               109.88971
   59 Bend                     7     3     9               109.42898
   60 Bend                     7    15    25               111.27753
   61 Bend                     7    15    26               109.03392
   62 Bend                     7    15    27               106.94351
   63 Bend                     8     3     9               112.03401
   64 Bend                     8    14    28               109.82768
   65 Bend                     8    14    29               110.32117
   66 Bend                     8    14    30               109.36663
   67 Bend                     9    13    31               107.23640
   68 Bend                     9    13    32               110.77757
   69 Bend                     9    13    33               109.77523
   70 Bend                    16    10    17               109.22948
   71 Bend                    16    10    18               108.99209
   72 Bend                    17    10    18               111.36113
   73 Bend                    19    12    20               107.74225
   74 Bend                    19    12    21               110.72870
   75 Bend                    20    12    21               108.83541
   76 Bend                    22    11    23               110.50913
   77 Bend                    22    11    24               109.11234
   78 Bend                    23    11    24               109.39270
   79 Bend                    25    15    26               109.22948
   80 Bend                    25    15    27               108.99209
   81 Bend                    26    15    27               111.36113
   82 Bend                    28    14    29               107.74225
   83 Bend                    28    14    30               110.72870
   84 Bend                    29    14    30               108.83541
   85 Bend                    31    13    32               110.50913
   86 Bend                    31    13    33               109.11234
   87 Bend                    32    13    33               109.39270
   88 Torsion                  1     2     4    10         128.27092
   89 Torsion                  1     2     5    11        -150.52705
   90 Torsion                  1     2     6    12         125.41304
   91 Torsion                  1     3     7    15        -128.27092
   92 Torsion                  1     3     8    14        -125.41304
   93 Torsion                  1     3     9    13         150.52705
   94 Torsion                  2     1     3     7          65.29307
   95 Torsion                  2     1     3     8         -55.25321
   96 Torsion                  2     1     3     9        -176.90150
   97 Torsion                  2     4    10    16         -51.60144
   98 Torsion                  2     4    10    17          68.94508
   99 Torsion                  2     4    10    18        -170.53098
  100 Torsion                  2     5    11    22        -169.05377
  101 Torsion                  2     5    11    23          70.27837
  102 Torsion                  2     5    11    24         -50.63935
  103 Torsion                  2     6    12    19         -77.43248
  104 Torsion                  2     6    12    20         163.94943
  105 Torsion                  2     6    12    21          44.27314
  106 Torsion                  3     1     2     4         -65.29307
  107 Torsion                  3     1     2     5         176.90150
  108 Torsion                  3     1     2     6          55.25321
  109 Torsion                  3     7    15    25          51.60144
  110 Torsion                  3     7    15    26         -68.94508
  111 Torsion                  3     7    15    27         170.53098
  112 Torsion                  3     8    14    28          77.43248
  113 Torsion                  3     8    14    29        -163.94943
  114 Torsion                  3     8    14    30         -44.27314
  115 Torsion                  3     9    13    31         169.05377
  116 Torsion                  3     9    13    32         -70.27837
  117 Torsion                  3     9    13    33          50.63935
  118 Torsion                  4     2     5    11          92.07279
  119 Torsion                  4     2     6    12        -114.68695
  120 Torsion                  5     2     4    10        -115.87025
  121 Torsion                  5     2     6    12           7.18581
  122 Torsion                  6     2     4    10           7.54193
  123 Torsion                  6     2     5    11         -30.06334
  124 Torsion                  7     3     8    14         114.68695
  125 Torsion                  7     3     9    13         -92.07279
  126 Torsion                  8     3     7    15          -7.54193
  127 Torsion                  8     3     9    13          30.06334
  128 Torsion                  9     3     7    15         115.87025
  129 Torsion                  9     3     8    14          -7.18581


            XYZ format geometry
            -------------------
    33
 geometry
 O                     0.31098882     0.72857800     0.00000000
 Si                    0.04783828     0.34873360     1.52685049
 Si                    0.04783828     0.34873360    -1.52685049
 O                    -1.49936844     0.50986623     1.83468801
 O                     0.87993438     1.40361769     2.40579061
 O                     0.49718386    -1.13453342     1.80285074
 O                    -1.49936844     0.50986623    -1.83468801
 O                     0.49718386    -1.13453342    -1.80285074
 O                     0.87993438     1.40361769    -2.40579061
 Si                   -2.90263899    -0.00421806     2.38051728
 Si                    1.66784135     1.70365801     3.75553872
 Si                    1.17834725    -2.43925997     2.38469704
 Si                    1.66784135     1.70365801    -3.75553872
 Si                    1.17834725    -2.43925997    -2.38469704
 Si                   -2.90263899    -0.00421806    -2.38051728
 H                    -3.27816044    -1.41021551     1.76305053
 H                    -2.82947673    -0.12880106     3.94199156
 H                    -3.99518533     1.06674844     1.93418326
 H                     2.67410291    -2.54094530     1.86851424
 H                     0.40530281    -3.73412382     1.88642376
 H                     1.13350611    -2.39435010     3.95990190
 H                     1.93457111     3.26694943     3.80667761
 H                     3.02409539     0.91233296     3.79672927
 H                     0.78585998     1.29169875     4.98868004
 H                    -3.27816044    -1.41021551    -1.76305053
 H                    -2.82947673    -0.12880106    -3.94199156
 H                    -3.99518533     1.06674844    -1.93418326
 H                     2.67410291    -2.54094530    -1.86851424
 H                     0.40530281    -3.73412382    -1.88642376
 H                     1.13350611    -2.39435010    -3.95990190
 H                     1.93457111     3.26694943    -3.80667761
 H                     3.02409539     0.91233296    -3.79672927
 H                     0.78585998     1.29169875    -4.98868004

 ==============================================================================
                                internuclear distances
 ------------------------------------------------------------------------------
       center one      |      center two      | atomic units |       a.u.
 ------------------------------------------------------------------------------
    2 Si               |   1 O                |     3.01457  |     3.01457
    3 Si               |   1 O                |     3.01457  |     3.01457
    4 O                |   2 Si               |     2.99662  |     2.99662
    5 O                |   2 Si               |     3.03400  |     3.03400
    6 O                |   2 Si               |     2.97484  |     2.97484
    7 O                |   3 Si               |     2.99662  |     2.99662
    8 O                |   3 Si               |     2.97484  |     2.97484
    9 O                |   3 Si               |     3.03400  |     3.03400
   10 Si               |   4 O                |     3.00661  |     3.00661
   11 Si               |   5 O                |     3.00736  |     3.00736
   12 Si               |   6 O                |     2.99081  |     2.99081
   13 Si               |   9 O                |     3.00736  |     3.00736
   14 Si               |   8 O                |     2.99081  |     2.99081
   15 Si               |   7 O                |     3.00661  |     3.00661
 ------------------------------------------------------------------------------
                         number of included internuclear distances:         14
 ==============================================================================



 ==============================================================================
                                 internuclear angles
 ------------------------------------------------------------------------------
        center 1       |       center 2       |       center 3       |  degrees
 ------------------------------------------------------------------------------
    2 Si               |   1 O                |   3 Si               |   146.32
    1 O                |   2 Si               |   4 O                |   108.82
    1 O                |   2 Si               |   5 O                |   106.38
    1 O                |   2 Si               |   6 O                |   110.19
    4 O                |   2 Si               |   5 O                |   109.43
    4 O                |   2 Si               |   6 O                |   109.89
    5 O                |   2 Si               |   6 O                |   112.03
    1 O                |   3 Si               |   7 O                |   108.82
    1 O                |   3 Si               |   8 O                |   110.19
    1 O                |   3 Si               |   9 O                |   106.38
    7 O                |   3 Si               |   8 O                |   109.89
    7 O                |   3 Si               |   9 O                |   109.43
    8 O                |   3 Si               |   9 O                |   112.03
    2 Si               |   4 O                |  10 Si               |   153.42
    2 Si               |   5 O                |  11 Si               |   147.65
    2 Si               |   6 O                |  12 Si               |   164.59
    3 Si               |   7 O                |  15 Si               |   153.42
    3 Si               |   8 O                |  14 Si               |   164.59
    3 Si               |   9 O                |  13 Si               |   147.65
 ------------------------------------------------------------------------------
                            number of included internuclear angles:         19
 ==============================================================================



                      Basis "ao basis" -> "" (cartesian)
                      -----
  H (Hydrogen)
  ------------
            Exponent  Coefficients 
       -------------- ---------------------------------------------------------
  1 S  5.09991780E+01  0.009661
  1 S  7.48321810E+00  0.073729
  1 S  1.77746760E+00  0.295858
  1 S  5.19329500E-01  0.715905

  2 S  1.54110000E-01  1.000000

  3 P  7.50000000E-01  1.000000

  O (Oxygen)
  ----------
            Exponent  Coefficients 
       -------------- ---------------------------------------------------------
  1 S  5.22290220E+03 -0.001936
  1 S  7.82539940E+02 -0.014851
  1 S  1.77267430E+02 -0.073319
  1 S  4.95166880E+01 -0.245116
  1 S  1.56664400E+01 -0.480285
  1 S  5.17935990E+00 -0.335943

  2 S  1.06014410E+01  0.078806
  2 S  9.42317000E-01 -0.567695

  3 S  2.77474600E-01  1.000000

  4 P  3.34241260E+01  0.017560
  4 P  7.62217140E+00  0.107630
  4 P  2.23820930E+00  0.323526
  4 P  6.86730000E-01  0.483223

  5 P  1.93813500E-01  1.000000

  6 D  8.00000000E-01  1.000000

  Si (Silicon)
  ------------
            Exponent  Coefficients 
       -------------- ---------------------------------------------------------
  1 S  1.72685770E+04 -0.001797
  1 S  2.58665090E+03 -0.013797
  1 S  5.85636410E+02 -0.068781
  1 S  1.63773640E+02 -0.235251
  1 S  5.22670280E+01 -0.476619
  1 S  1.75416810E+01 -0.350773

  2 S  3.51241390E+01  0.090214
  2 S  3.56542270E+00 -0.572255
  2 S  1.25914740E+00 -0.504554

  3 S  1.94701440E+00 -0.150835
  3 S  2.36757300E-01  0.674559

  4 S  8.58966000E-02  1.000000

  5 P  1.59681740E+02 -0.012393
  5 P  3.72581720E+01 -0.085080
  5 P  1.14382530E+01 -0.290551
  5 P  3.82783360E+00 -0.498559
  5 P  1.26790030E+00 -0.332562

  6 P  5.34409500E-01 -0.226437
  6 P  1.82903100E-01 -0.555304

  7 P  6.17873000E-02  1.000000

  8 D  4.50000000E-01  1.000000



 Summary of "ao basis" -> "" (cartesian)
 ------------------------------------------------------------------------------
       Tag                 Description            Shells   Functions and Types
 ---------------- ------------------------------  ------  ---------------------
 H                    DZVP2 (DFT Orbital)            3        5   2s1p
 O                     DZVP (DFT Orbital)            6       15   3s2p1d
 Si                    DZVP (DFT Orbital)            8       19   4s3p1d


                      Basis "cd basis" -> "" (cartesian)
                      -----
  H (Hydrogen)
  ------------
            Exponent  Coefficients 
       -------------- ---------------------------------------------------------
  1 S  4.50000000E+01  1.000000

  2 S  7.50000000E+00  1.000000

  3 S  3.00000000E-01  1.000000

  4 S  1.50000000E+00  1.000000

  5 P  1.50000000E+00  1.000000

  6 D  1.50000000E+00  1.000000

  O (Oxygen)
  ----------
            Exponent  Coefficients 
       -------------- ---------------------------------------------------------
  1 S  2.00000000E+03  1.000000

  2 S  4.00000000E+02  1.000000

  3 S  1.00000000E+02  1.000000

  4 S  2.50000000E+01  1.000000

  5 S  7.80000000E+00  1.000000

  6 P  7.80000000E+00  1.000000

  7 S  1.56000000E+00  1.000000

  8 P  1.56000000E+00  1.000000

  9 S  3.90000000E-01  1.000000

 10 P  3.90000000E-01  1.000000

 11 D  7.80000000E+00  1.000000

 12 D  1.56000000E+00  1.000000

 13 D  3.90000000E-01  1.000000

  Si (Silicon)
  ------------
            Exponent  Coefficients 
       -------------- ---------------------------------------------------------
  1 S  9.83000000E+03  1.000000

  2 S  1.96600000E+03  1.000000

  3 S  4.92000000E+02  1.000000

  4 S  1.23000000E+02  1.000000

  5 S  3.07200000E+01  1.000000

  6 S  9.60000000E+00  1.000000

  7 P  9.60000000E+00  1.000000

  8 S  1.92000000E+00  1.000000

  9 P  1.92000000E+00  1.000000

 10 S  4.80000000E-01  1.000000

 11 P  4.80000000E-01  1.000000

 12 S  1.20000000E-01  1.000000

 13 P  1.20000000E-01  1.000000

 14 D  9.60000000E+00  1.000000

 15 D  1.92000000E+00  1.000000

 16 D  4.80000000E-01  1.000000

 17 D  1.20000000E-01  1.000000



 Summary of "cd basis" -> "" (cartesian)
 ------------------------------------------------------------------------------
       Tag                 Description            Shells   Functions and Types
 ---------------- ------------------------------  ------  ---------------------
 H                DGauss A2 DFT Coulomb Fitting      6       13   4s1p1d
 O                DGauss A1 DFT Coulomb Fitting     13       34   7s3p3d
 Si               DGauss A1 DFT Coulomb Fitting     17       45   9s4p4d



                                 NWChem DFT Module
                                 -----------------


                                      siosi3




 Summary of "ao basis" -> "ao basis" (cartesian)
 ------------------------------------------------------------------------------
       Tag                 Description            Shells   Functions and Types
 ---------------- ------------------------------  ------  ---------------------
 H                    DZVP2 (DFT Orbital)            3        5   2s1p
 O                     DZVP (DFT Orbital)            6       15   3s2p1d
 Si                    DZVP (DFT Orbital)            8       19   4s3p1d


      Symmetry analysis of basis
      --------------------------

        a'        177
        a"        170

  Caching 1-el integrals 

            General Information
            -------------------
          SCF calculation type: DFT
          Wavefunction type:  closed shell.
          No. of atoms     :    33
          No. of electrons :   186
           Alpha electrons :    93
            Beta electrons :    93
          Charge           :     0
          Spin multiplicity:     1
          Use of symmetry is: on ; symmetry adaption is: on 
          Maximum number of iterations:  30
          AO basis - number of functions:   347
                     number of shells:   160
          A Charge density fitting basis will be used.
          CD basis - number of functions:   832
                     number of shells:   335
          Convergence on energy requested:  1.00D-06
          Convergence on density requested:  1.00D-05
          Convergence on gradient requested:  5.00D-04

              XC Information
              --------------
                        Slater Exchange Functional  1.000 local    
                      VWN V Correlation Functional  1.000 local    

             Grid Information
             ----------------
          Grid used for XC integration:  medium    
          Radial quadrature: Mura-Knowles        
          Angular quadrature: Lebedev. 
          Tag              B.-S. Rad. Rad. Pts. Rad. Cut. Ang. Pts.
          ---              ---------- --------- --------- ---------
          O                   0.60       49          16.0       434
          Si                  1.10       88          19.0       590
          H                   0.35       45          20.0       434
          Grid pruning is: on 
          Number of quadrature shells:   953
          Spatial weights used:  Erf1

          Convergence Information
          -----------------------
          Convergence aids based upon iterative change in 
          total energy or number of iterations. 
          Levelshifting, if invoked, occurs when the 
          HOMO/LUMO gap drops below (HL_TOL):  1.00D-02
          DIIS, if invoked, will attempt to extrapolate 
          using up to (NFOCK): 10 stored Fock matrices.

                    Damping( 0%)  Levelshifting(0.0)       DIIS
                  --------------- ------------------- ---------------
          dE  on:     N/A              N/A                start   
          dE off:     N/A              N/A               30 iters 


      Screening Tolerance Information
      -------------------------------
          Density screening/tol_rho:  1.00D-10
          AO Gaussian exp screening on grid/accAOfunc:  14
          CD Gaussian exp screening on grid/accCDfunc:  20
          XC Gaussian exp screening on grid/accXCfunc:  20
          Schwarz screening/accCoul:  1.00D-10



     <<<<<<    Before call to DFT_SCF.    >>>>>>
     <<<<<< date:  Jun 30  time: 05:51:24 >>>>>>



     <<<<<<    Before 3c-2e initialize.   >>>>>>
     <<<<<< date:  Jun 30  time: 05:51:24 >>>>>>


      Superposition of Atomic Density Guess
      -------------------------------------

 Sum of atomic energies:       -2842.55896089

      Non-variational initial energy
      ------------------------------

 Total energy =   -2848.609786
 1-e energy   =   -8548.884472
 2-e energy   =    3387.032309
 HOMO         =      -0.373293
 LUMO         =      -0.026963


      Symmetry analysis of molecular orbitals - initial
      -------------------------------------------------

  Numbering of irreducible representations: 

     1 a'          2 a"      

  Orbital symmetries:

     1 a"          2 a'          3 a"          4 a'          5 a"      
     6 a'          7 a"          8 a'          9 a'         10 a"      
    11 a'         12 a"         13 a'         14 a"         15 a'      
    16 a"         17 a'         18 a"         19 a'         20 a'      
    21 a"         22 a'         23 a"         24 a'         25 a"      
    26 a"         27 a'         28 a'         29 a"         30 a"      
    31 a'         32 a"         33 a'         34 a'         35 a"      
    36 a"         37 a'         38 a"         39 a'         40 a'      
    41 a"         42 a'         43 a"         44 a'         45 a"      
    46 a'         47 a"         48 a'         49 a"         50 a'      
    51 a'         52 a"         53 a"         54 a'         55 a"      
    56 a'         57 a'         58 a"         59 a'         60 a"      
    61 a"         62 a'         63 a"         64 a'         65 a'      
    66 a"         67 a"         68 a'         69 a'         70 a'      
    71 a"         72 a"         73 a'         74 a'         75 a"      
    76 a"         77 a"         78 a'         79 a"         80 a'      
    81 a'         82 a'         83 a'         84 a"         85 a'      
    86 a"         87 a'         88 a"         89 a'         90 a"      
    91 a"         92 a'         93 a"         94 a'         95 a"      
    96 a'         97 a'         98 a"         99 a"        100 a'      
   101 a'        102 a"        103 a'      

   Time after variat. SCF:      2.2

      3 Center 2 Electron Integral Information
      ----------------------------------------
          Maximum number of 3-center 2e- integrals is:       100180288.
            This is reduced with Schwarz screening to:        36348416.
            Incore requires a per proc buffer size of:         8983937.
          Minimum dble words available (all nodes) is:       172466020
                   This is reduced (for later use) to:       171741922
                      proc 0 Suggested buffer size is:         8983937
                         Max Suggested buffer size is:         9372481
                              no. integral batches is:            1000

           8.984 MW buffer allocated for incore 3-center 
          2e- integral storage on stack. 
   Time prior to 1st pass:      3.1


     <<<<<<      Before SCF iter loop.    >>>>>>
     <<<<<< date:  Jun 30  time: 05:51:27 >>>>>>



     <<<<<<            calling 1-e int    >>>>>>
     <<<<<< date:  Jun 30  time: 05:51:27 >>>>>>

    Kinetic Matrix Time:          0.0s
    Potential Matrix Time:          0.0s


     <<<<<<    Before call to FITCD.      >>>>>>
     <<<<<< date:  Jun 30  time: 05:51:27 >>>>>>



     <<<<<<    Before call to GETVCOUL.   >>>>>>
     <<<<<< date:  Jun 30  time: 05:51:27 >>>>>>



     <<<<<<    Before call to GETVXC.     >>>>>>
     <<<<<< date:  Jun 30  time: 05:51:27 >>>>>>

    Fock_2e Build Time:          0.0s

 Grid_pts file          = ./siosi3_64.gridpts.0
 Record size in doubles =  12289        No. of grid_pts per rec  =   3070
 Max. records in memory =     52        Max. recs in file   = 253312716

    Fock_xc Build Time:          1.0s


     <<<<<<    End of parallel region.    >>>>>>
     <<<<<< date:  Jun 30  time: 05:51:28 >>>>>>

    Total Fock Matrix Build Time:          1.1s


     <<<<<<        calling diis driver    >>>>>>
     <<<<<< date:  Jun 30  time: 05:51:28 >>>>>>



     <<<<<<         called diis driver    >>>>>>
     <<<<<< date:  Jun 30  time: 05:51:28 >>>>>>



     <<<<<<               calling diag    >>>>>>
     <<<<<< date:  Jun 30  time: 05:51:28 >>>>>>



     <<<<<<                called diag    >>>>>>
     <<<<<< date:  Jun 30  time: 05:51:28 >>>>>>

    Diagonalization Time:          0.0s


     <<<<<<              calling densm    >>>>>>
     <<<<<< date:  Jun 30  time: 05:51:28 >>>>>>



     <<<<<<               called densm    >>>>>>
     <<<<<< date:  Jun 30  time: 05:51:28 >>>>>>


           Memory utilization after 1st SCF pass: 
           Heap Space remaining (MW):       52.99            52986324
          Stack Space remaining (MW):       77.26            77259012

   convergence    iter        energy       DeltaE   RMS-Dens  Diis-err    time
 ---------------- ----- ----------------- --------- --------- ---------  ------
 d= 0,ls=0.0,diis     1  -2840.3331579978 -5.15D+03  9.83D-03  6.29D+00     4.3


     <<<<<<             calling scfcvg    >>>>>>
     <<<<<< date:  Jun 30  time: 05:51:28 >>>>>>



     <<<<<<              called scfcvg    >>>>>>
     <<<<<< date:  Jun 30  time: 05:51:28 >>>>>>



     <<<<<<            calling 1-e int    >>>>>>
     <<<<<< date:  Jun 30  time: 05:51:28 >>>>>>

    Kinetic Matrix Time:          0.0s
    Potential Matrix Time:          0.0s


     <<<<<<    Before call to FITCD.      >>>>>>
     <<<<<< date:  Jun 30  time: 05:51:28 >>>>>>



     <<<<<<    Before call to GETVCOUL.   >>>>>>
     <<<<<< date:  Jun 30  time: 05:51:28 >>>>>>



     <<<<<<    Before call to GETVXC.     >>>>>>
     <<<<<< date:  Jun 30  time: 05:51:28 >>>>>>

    Fock_2e Build Time:          0.0s
    Fock_xc Build Time:          0.2s


     <<<<<<    End of parallel region.    >>>>>>
     <<<<<< date:  Jun 30  time: 05:51:28 >>>>>>

    Total Fock Matrix Build Time:          0.3s


     <<<<<<        calling diis driver    >>>>>>
     <<<<<< date:  Jun 30  time: 05:51:28 >>>>>>



     <<<<<<         called diis driver    >>>>>>
     <<<<<< date:  Jun 30  time: 05:51:28 >>>>>>



     <<<<<<               calling diag    >>>>>>
     <<<<<< date:  Jun 30  time: 05:51:28 >>>>>>



     <<<<<<                called diag    >>>>>>
     <<<<<< date:  Jun 30  time: 05:51:28 >>>>>>

    Diagonalization Time:          0.0s


     <<<<<<              calling densm    >>>>>>
     <<<<<< date:  Jun 30  time: 05:51:28 >>>>>>



     <<<<<<               called densm    >>>>>>
     <<<<<< date:  Jun 30  time: 05:51:28 >>>>>>

 d= 0,ls=0.0,diis     2  -2839.6818674417  6.51D-01  6.68D-03  1.08D+01     4.6


     <<<<<<             calling scfcvg    >>>>>>
     <<<<<< date:  Jun 30  time: 05:51:29 >>>>>>



     <<<<<<              called scfcvg    >>>>>>
     <<<<<< date:  Jun 30  time: 05:51:29 >>>>>>



     <<<<<<            calling 1-e int    >>>>>>
     <<<<<< date:  Jun 30  time: 05:51:29 >>>>>>

    Kinetic Matrix Time:          0.0s
    Potential Matrix Time:          0.0s


     <<<<<<    Before call to FITCD.      >>>>>>
     <<<<<< date:  Jun 30  time: 05:51:29 >>>>>>



     <<<<<<    Before call to GETVCOUL.   >>>>>>
     <<<<<< date:  Jun 30  time: 05:51:29 >>>>>>



     <<<<<<    Before call to GETVXC.     >>>>>>
     <<<<<< date:  Jun 30  time: 05:51:29 >>>>>>

    Fock_2e Build Time:          0.0s
    Fock_xc Build Time:          0.2s


     <<<<<<    End of parallel region.    >>>>>>
     <<<<<< date:  Jun 30  time: 05:51:29 >>>>>>

    Total Fock Matrix Build Time:          0.3s


     <<<<<<        calling diis driver    >>>>>>
     <<<<<< date:  Jun 30  time: 05:51:29 >>>>>>



     <<<<<<         called diis driver    >>>>>>
     <<<<<< date:  Jun 30  time: 05:51:29 >>>>>>



     <<<<<<               calling diag    >>>>>>
     <<<<<< date:  Jun 30  time: 05:51:29 >>>>>>



     <<<<<<                called diag    >>>>>>
     <<<<<< date:  Jun 30  time: 05:51:29 >>>>>>

    Diagonalization Time:          0.0s


     <<<<<<              calling densm    >>>>>>
     <<<<<< date:  Jun 30  time: 05:51:29 >>>>>>



     <<<<<<               called densm    >>>>>>
     <<<<<< date:  Jun 30  time: 05:51:29 >>>>>>

 d= 0,ls=0.0,diis     3  -2840.6217058627 -9.40D-01  2.05D-03  9.97D-01     5.0


     <<<<<<             calling scfcvg    >>>>>>
     <<<<<< date:  Jun 30  time: 05:51:29 >>>>>>



     <<<<<<              called scfcvg    >>>>>>
     <<<<<< date:  Jun 30  time: 05:51:29 >>>>>>



     <<<<<<            calling 1-e int    >>>>>>
     <<<<<< date:  Jun 30  time: 05:51:29 >>>>>>

    Kinetic Matrix Time:          0.0s
    Potential Matrix Time:          0.0s


     <<<<<<    Before call to FITCD.      >>>>>>
     <<<<<< date:  Jun 30  time: 05:51:29 >>>>>>



     <<<<<<    Before call to GETVCOUL.   >>>>>>
     <<<<<< date:  Jun 30  time: 05:51:29 >>>>>>



     <<<<<<    Before call to GETVXC.     >>>>>>
     <<<<<< date:  Jun 30  time: 05:51:29 >>>>>>

    Fock_2e Build Time:          0.0s
    Fock_xc Build Time:          0.2s


     <<<<<<    End of parallel region.    >>>>>>
     <<<<<< date:  Jun 30  time: 05:51:29 >>>>>>

    Total Fock Matrix Build Time:          0.3s


     <<<<<<        calling diis driver    >>>>>>
     <<<<<< date:  Jun 30  time: 05:51:29 >>>>>>



     <<<<<<         called diis driver    >>>>>>
     <<<<<< date:  Jun 30  time: 05:51:29 >>>>>>



     <<<<<<               calling diag    >>>>>>
     <<<<<< date:  Jun 30  time: 05:51:29 >>>>>>



     <<<<<<                called diag    >>>>>>
     <<<<<< date:  Jun 30  time: 05:51:29 >>>>>>

    Diagonalization Time:          0.0s


     <<<<<<              calling densm    >>>>>>
     <<<<<< date:  Jun 30  time: 05:51:29 >>>>>>



     <<<<<<               called densm    >>>>>>
     <<<<<< date:  Jun 30  time: 05:51:29 >>>>>>

 d= 0,ls=0.0,diis     4  -2840.7153459142 -9.36D-02  6.66D-04  6.30D-02     5.4


     <<<<<<             calling scfcvg    >>>>>>
     <<<<<< date:  Jun 30  time: 05:51:29 >>>>>>



     <<<<<<              called scfcvg    >>>>>>
     <<<<<< date:  Jun 30  time: 05:51:29 >>>>>>



     <<<<<<            calling 1-e int    >>>>>>
     <<<<<< date:  Jun 30  time: 05:51:29 >>>>>>

    Kinetic Matrix Time:          0.0s
    Potential Matrix Time:          0.0s


     <<<<<<    Before call to FITCD.      >>>>>>
     <<<<<< date:  Jun 30  time: 05:51:29 >>>>>>



     <<<<<<    Before call to GETVCOUL.   >>>>>>
     <<<<<< date:  Jun 30  time: 05:51:29 >>>>>>



     <<<<<<    Before call to GETVXC.     >>>>>>
     <<<<<< date:  Jun 30  time: 05:51:29 >>>>>>

    Fock_2e Build Time:          0.0s
    Fock_xc Build Time:          0.2s


     <<<<<<    End of parallel region.    >>>>>>
     <<<<<< date:  Jun 30  time: 05:51:30 >>>>>>

    Total Fock Matrix Build Time:          0.3s


     <<<<<<        calling diis driver    >>>>>>
     <<<<<< date:  Jun 30  time: 05:51:30 >>>>>>



     <<<<<<         called diis driver    >>>>>>
     <<<<<< date:  Jun 30  time: 05:51:30 >>>>>>



     <<<<<<               calling diag    >>>>>>
     <<<<<< date:  Jun 30  time: 05:51:30 >>>>>>



     <<<<<<                called diag    >>>>>>
     <<<<<< date:  Jun 30  time: 05:51:30 >>>>>>

    Diagonalization Time:          0.0s


     <<<<<<              calling densm    >>>>>>
     <<<<<< date:  Jun 30  time: 05:51:30 >>>>>>



     <<<<<<               called densm    >>>>>>
     <<<<<< date:  Jun 30  time: 05:51:30 >>>>>>

 d= 0,ls=0.0,diis     5  -2840.7228048833 -7.46D-03  2.05D-04  9.83D-03     5.7


     <<<<<<             calling scfcvg    >>>>>>
     <<<<<< date:  Jun 30  time: 05:51:30 >>>>>>



     <<<<<<              called scfcvg    >>>>>>
     <<<<<< date:  Jun 30  time: 05:51:30 >>>>>>



     <<<<<<            calling 1-e int    >>>>>>
     <<<<<< date:  Jun 30  time: 05:51:30 >>>>>>

    Kinetic Matrix Time:          0.0s
    Potential Matrix Time:          0.0s


     <<<<<<    Before call to FITCD.      >>>>>>
     <<<<<< date:  Jun 30  time: 05:51:30 >>>>>>



     <<<<<<    Before call to GETVCOUL.   >>>>>>
     <<<<<< date:  Jun 30  time: 05:51:30 >>>>>>



     <<<<<<    Before call to GETVXC.     >>>>>>
     <<<<<< date:  Jun 30  time: 05:51:30 >>>>>>

    Fock_2e Build Time:          0.0s
    Fock_xc Build Time:          0.3s


     <<<<<<    End of parallel region.    >>>>>>
     <<<<<< date:  Jun 30  time: 05:51:30 >>>>>>

    Total Fock Matrix Build Time:          0.3s


     <<<<<<        calling diis driver    >>>>>>
     <<<<<< date:  Jun 30  time: 05:51:30 >>>>>>



     <<<<<<         called diis driver    >>>>>>
     <<<<<< date:  Jun 30  time: 05:51:30 >>>>>>



     <<<<<<               calling diag    >>>>>>
     <<<<<< date:  Jun 30  time: 05:51:30 >>>>>>



     <<<<<<                called diag    >>>>>>
     <<<<<< date:  Jun 30  time: 05:51:30 >>>>>>

    Diagonalization Time:          0.0s


     <<<<<<              calling densm    >>>>>>
     <<<<<< date:  Jun 30  time: 05:51:30 >>>>>>



     <<<<<<               called densm    >>>>>>
     <<<<<< date:  Jun 30  time: 05:51:30 >>>>>>

  Resetting Diis
 d= 0,ls=0.0,diis     6  -2840.7236417992 -8.37D-04  7.43D-05  7.84D-04     6.2


     <<<<<<             calling scfcvg    >>>>>>
     <<<<<< date:  Jun 30  time: 05:51:30 >>>>>>



     <<<<<<              called scfcvg    >>>>>>
     <<<<<< date:  Jun 30  time: 05:51:30 >>>>>>



     <<<<<<            calling 1-e int    >>>>>>
     <<<<<< date:  Jun 30  time: 05:51:30 >>>>>>

    Kinetic Matrix Time:          0.0s
    Potential Matrix Time:          0.0s


     <<<<<<    Before call to FITCD.      >>>>>>
     <<<<<< date:  Jun 30  time: 05:51:30 >>>>>>



     <<<<<<    Before call to GETVCOUL.   >>>>>>
     <<<<<< date:  Jun 30  time: 05:51:30 >>>>>>



     <<<<<<    Before call to GETVXC.     >>>>>>
     <<<<<< date:  Jun 30  time: 05:51:30 >>>>>>

    Fock_2e Build Time:          0.0s
    Fock_xc Build Time:          0.3s


     <<<<<<    End of parallel region.    >>>>>>
     <<<<<< date:  Jun 30  time: 05:51:30 >>>>>>

    Total Fock Matrix Build Time:          0.3s


     <<<<<<        calling diis driver    >>>>>>
     <<<<<< date:  Jun 30  time: 05:51:30 >>>>>>



     <<<<<<         called diis driver    >>>>>>
     <<<<<< date:  Jun 30  time: 05:51:30 >>>>>>



     <<<<<<               calling diag    >>>>>>
     <<<<<< date:  Jun 30  time: 05:51:30 >>>>>>



     <<<<<<                called diag    >>>>>>
     <<<<<< date:  Jun 30  time: 05:51:30 >>>>>>

    Diagonalization Time:          0.0s


     <<<<<<              calling densm    >>>>>>
     <<<<<< date:  Jun 30  time: 05:51:30 >>>>>>



     <<<<<<               called densm    >>>>>>
     <<<<<< date:  Jun 30  time: 05:51:30 >>>>>>

 d= 0,ls=0.0,diis     7  -2840.7237418066 -1.00D-04  1.98D-05  1.24D-05     6.6


     <<<<<<             calling scfcvg    >>>>>>
     <<<<<< date:  Jun 30  time: 05:51:30 >>>>>>



     <<<<<<              called scfcvg    >>>>>>
     <<<<<< date:  Jun 30  time: 05:51:30 >>>>>>



     <<<<<<            calling 1-e int    >>>>>>
     <<<<<< date:  Jun 30  time: 05:51:30 >>>>>>

    Kinetic Matrix Time:          0.0s
    Potential Matrix Time:          0.0s


     <<<<<<    Before call to FITCD.      >>>>>>
     <<<<<< date:  Jun 30  time: 05:51:30 >>>>>>



     <<<<<<    Before call to GETVCOUL.   >>>>>>
     <<<<<< date:  Jun 30  time: 05:51:30 >>>>>>



     <<<<<<    Before call to GETVXC.     >>>>>>
     <<<<<< date:  Jun 30  time: 05:51:30 >>>>>>

    Fock_2e Build Time:          0.0s
    Fock_xc Build Time:          0.3s


     <<<<<<    End of parallel region.    >>>>>>
     <<<<<< date:  Jun 30  time: 05:51:31 >>>>>>

    Total Fock Matrix Build Time:          0.3s


     <<<<<<        calling diis driver    >>>>>>
     <<<<<< date:  Jun 30  time: 05:51:31 >>>>>>



     <<<<<<         called diis driver    >>>>>>
     <<<<<< date:  Jun 30  time: 05:51:31 >>>>>>



     <<<<<<               calling diag    >>>>>>
     <<<<<< date:  Jun 30  time: 05:51:31 >>>>>>



     <<<<<<                called diag    >>>>>>
     <<<<<< date:  Jun 30  time: 05:51:31 >>>>>>

    Diagonalization Time:          0.0s


     <<<<<<              calling densm    >>>>>>
     <<<<<< date:  Jun 30  time: 05:51:31 >>>>>>



     <<<<<<               called densm    >>>>>>
     <<<<<< date:  Jun 30  time: 05:51:31 >>>>>>

 d= 0,ls=0.0,diis     8  -2840.7237383463  3.46D-06  1.16D-05  4.87D-05     7.0


     <<<<<<             calling scfcvg    >>>>>>
     <<<<<< date:  Jun 30  time: 05:51:31 >>>>>>



     <<<<<<              called scfcvg    >>>>>>
     <<<<<< date:  Jun 30  time: 05:51:31 >>>>>>



     <<<<<<            calling 1-e int    >>>>>>
     <<<<<< date:  Jun 30  time: 05:51:31 >>>>>>

    Kinetic Matrix Time:          0.0s
    Potential Matrix Time:          0.0s


     <<<<<<    Before call to FITCD.      >>>>>>
     <<<<<< date:  Jun 30  time: 05:51:31 >>>>>>



     <<<<<<    Before call to GETVCOUL.   >>>>>>
     <<<<<< date:  Jun 30  time: 05:51:31 >>>>>>



     <<<<<<    Before call to GETVXC.     >>>>>>
     <<<<<< date:  Jun 30  time: 05:51:31 >>>>>>

    Fock_2e Build Time:          0.0s
    Fock_xc Build Time:          0.3s


     <<<<<<    End of parallel region.    >>>>>>
     <<<<<< date:  Jun 30  time: 05:51:31 >>>>>>

    Total Fock Matrix Build Time:          0.3s


     <<<<<<        calling diis driver    >>>>>>
     <<<<<< date:  Jun 30  time: 05:51:31 >>>>>>



     <<<<<<         called diis driver    >>>>>>
     <<<<<< date:  Jun 30  time: 05:51:31 >>>>>>



     <<<<<<               calling diag    >>>>>>
     <<<<<< date:  Jun 30  time: 05:51:31 >>>>>>



     <<<<<<                called diag    >>>>>>
     <<<<<< date:  Jun 30  time: 05:51:31 >>>>>>

    Diagonalization Time:          0.0s


     <<<<<<              calling densm    >>>>>>
     <<<<<< date:  Jun 30  time: 05:51:31 >>>>>>



     <<<<<<               called densm    >>>>>>
     <<<<<< date:  Jun 30  time: 05:51:31 >>>>>>

 d= 0,ls=0.0,diis     9  -2840.7237433112 -4.96D-06  2.31D-06  6.99D-07     7.4


     <<<<<<             calling scfcvg    >>>>>>
     <<<<<< date:  Jun 30  time: 05:51:31 >>>>>>



     <<<<<<              called scfcvg    >>>>>>
     <<<<<< date:  Jun 30  time: 05:51:31 >>>>>>



     <<<<<<            calling 1-e int    >>>>>>
     <<<<<< date:  Jun 30  time: 05:51:31 >>>>>>

    Kinetic Matrix Time:          0.0s
    Potential Matrix Time:          0.0s


     <<<<<<    Before call to FITCD.      >>>>>>
     <<<<<< date:  Jun 30  time: 05:51:31 >>>>>>



     <<<<<<    Before call to GETVCOUL.   >>>>>>
     <<<<<< date:  Jun 30  time: 05:51:31 >>>>>>



     <<<<<<    Before call to GETVXC.     >>>>>>
     <<<<<< date:  Jun 30  time: 05:51:31 >>>>>>

    Fock_2e Build Time:          0.0s
    Fock_xc Build Time:          0.3s


     <<<<<<    End of parallel region.    >>>>>>
     <<<<<< date:  Jun 30  time: 05:51:32 >>>>>>

    Total Fock Matrix Build Time:          0.3s


     <<<<<<        calling diis driver    >>>>>>
     <<<<<< date:  Jun 30  time: 05:51:32 >>>>>>



     <<<<<<         called diis driver    >>>>>>
     <<<<<< date:  Jun 30  time: 05:51:32 >>>>>>



     <<<<<<               calling diag    >>>>>>
     <<<<<< date:  Jun 30  time: 05:51:32 >>>>>>



     <<<<<<                called diag    >>>>>>
     <<<<<< date:  Jun 30  time: 05:51:32 >>>>>>

    Diagonalization Time:          0.0s


     <<<<<<              calling densm    >>>>>>
     <<<<<< date:  Jun 30  time: 05:51:32 >>>>>>



     <<<<<<               called densm    >>>>>>
     <<<<<< date:  Jun 30  time: 05:51:32 >>>>>>

 d= 0,ls=0.0,diis    10  -2840.7237434012 -9.00D-08  3.84D-07  4.60D-08     7.9


     <<<<<<             calling scfcvg    >>>>>>
     <<<<<< date:  Jun 30  time: 05:51:32 >>>>>>



     <<<<<<              called scfcvg    >>>>>>
     <<<<<< date:  Jun 30  time: 05:51:32 >>>>>>



         Total DFT energy =    -2840.723743401153
      One electron energy =    -8561.193926672055
           Coulomb energy =     3628.154084176735
    Exchange-Corr. energy =     -220.926277679337
 Nuclear repulsion energy =     2313.242376773504

 Numeric. integr. density =      186.000130480407

     Total iterative time =      4.8s



                  Occupations of the irreducible representations
                  ----------------------------------------------

                     irrep           alpha         beta
                     --------     --------     --------
                     a'               48.0         48.0
                     a"               45.0         45.0


                       DFT Final Molecular Orbital Analysis
                       ------------------------------------

 Vector    1  Occ=2.000000D+00  E=-6.521568D+01  Symmetry=a"
              MO Center=  4.8D-02,  3.5D-01,  2.3D-11, r^2= 2.3D+00
   Bfn.  Coefficient  Atom+Function         Bfn.  Coefficient  Atom+Function  
  ----- ------------  ---------------      ----- ------------  ---------------
    16      0.704544   2 Si s                35     -0.704544   3 Si s         

 Vector    2  Occ=2.000000D+00  E=-6.521568D+01  Symmetry=a'
              MO Center=  4.8D-02,  3.5D-01, -2.3D-11, r^2= 2.3D+00
   Bfn.  Coefficient  Atom+Function         Bfn.  Coefficient  Atom+Function  
  ----- ------------  ---------------      ----- ------------  ---------------
    16      0.704545   2 Si s                35      0.704545   3 Si s         

 Vector    3  Occ=2.000000D+00  E=-6.518131D+01  Symmetry=a"
              MO Center=  1.2D+00, -2.4D+00,  3.6D-08, r^2= 5.7D+00
   Bfn.  Coefficient  Atom+Function         Bfn.  Coefficient  Atom+Function  
  ----- ------------  ---------------      ----- ------------  ---------------
   182      0.704546  12 Si s               220     -0.704546  14 Si s         

 Vector    4  Occ=2.000000D+00  E=-6.518131D+01  Symmetry=a'
              MO Center=  1.2D+00, -2.4D+00, -3.6D-08, r^2= 5.7D+00
   Bfn.  Coefficient  Atom+Function         Bfn.  Coefficient  Atom+Function  
  ----- ------------  ---------------      ----- ------------  ---------------
   182      0.704550  12 Si s               220      0.704550  14 Si s         

 Vector    5  Occ=2.000000D+00  E=-6.517664D+01  Symmetry=a"
              MO Center= -2.9D+00, -4.2D-03, -2.6D-16, r^2= 5.7D+00
   Bfn.  Coefficient  Atom+Function         Bfn.  Coefficient  Atom+Function  
  ----- ------------  ---------------      ----- ------------  ---------------
   144      0.704546  10 Si s               239     -0.704546  15 Si s         

 Vector    6  Occ=2.000000D+00  E=-6.517664D+01  Symmetry=a'
              MO Center= -2.9D+00, -4.2D-03,  6.2D-16, r^2= 5.7D+00
   Bfn.  Coefficient  Atom+Function         Bfn.  Coefficient  Atom+Function  
  ----- ------------  ---------------      ----- ------------  ---------------
   144      0.704550  10 Si s               239      0.704550  15 Si s         

 Vector    7  Occ=2.000000D+00  E=-6.517383D+01  Symmetry=a"
              MO Center=  1.7D+00,  1.7D+00,  6.8D-16, r^2= 1.4D+01
   Bfn.  Coefficient  Atom+Function         Bfn.  Coefficient  Atom+Function  
  ----- ------------  ---------------      ----- ------------  ---------------
   163      0.704547  11 Si s               201     -0.704547  13 Si s         

 Vector    8  Occ=2.000000D+00  E=-6.517383D+01  Symmetry=a'
              MO Center=  1.7D+00,  1.7D+00,  2.2D-15, r^2= 1.4D+01
   Bfn.  Coefficient  Atom+Function         Bfn.  Coefficient  Atom+Function  
  ----- ------------  ---------------      ----- ------------  ---------------
   163      0.704549  11 Si s               201      0.704549  13 Si s         

 Vector    9  Occ=2.000000D+00  E=-1.862854D+01  Symmetry=a"
              MO Center=  5.0D-01, -1.1D+00, -2.0D-08, r^2= 3.3D+00
   Bfn.  Coefficient  Atom+Function         Bfn.  Coefficient  Atom+Function  
  ----- ------------  ---------------      ----- ------------  ---------------
    84      0.705383   6 O  s               114     -0.705383   8 O  s         

 Vector   10  Occ=2.000000D+00  E=-1.862854D+01  Symmetry=a'
              MO Center=  5.0D-01, -1.1D+00,  2.0D-08, r^2= 3.3D+00
   Bfn.  Coefficient  Atom+Function         Bfn.  Coefficient  Atom+Function  
  ----- ------------  ---------------      ----- ------------  ---------------
    84      0.705363   6 O  s               114      0.705363   8 O  s         

 Vector   11  Occ=2.000000D+00  E=-1.862031D+01  Symmetry=a"
              MO Center= -1.5D+00,  5.1D-01, -6.5D-09, r^2= 3.4D+00
   Bfn.  Coefficient  Atom+Function         Bfn.  Coefficient  Atom+Function  
  ----- ------------  ---------------      ----- ------------  ---------------
    54      0.705389   4 O  s                99     -0.705389   7 O  s         

 Vector   12  Occ=2.000000D+00  E=-1.862031D+01  Symmetry=a'
              MO Center= -1.5D+00,  5.1D-01,  6.5D-09, r^2= 3.4D+00
   Bfn.  Coefficient  Atom+Function         Bfn.  Coefficient  Atom+Function  
  ----- ------------  ---------------      ----- ------------  ---------------
    54      0.705367   4 O  s                99      0.705367   7 O  s         

 Vector   13  Occ=2.000000D+00  E=-1.861908D+01  Symmetry=a"
              MO Center=  8.8D-01,  1.4D+00, -2.9D-16, r^2= 5.8D+00
   Bfn.  Coefficient  Atom+Function         Bfn.  Coefficient  Atom+Function  
  ----- ------------  ---------------      ----- ------------  ---------------
    69      0.705382   5 O  s               129     -0.705382   9 O  s         

 Vector   14  Occ=2.000000D+00  E=-1.861908D+01  Symmetry=a'
              MO Center=  8.8D-01,  1.4D+00,  1.1D-15, r^2= 5.8D+00
   Bfn.  Coefficient  Atom+Function         Bfn.  Coefficient  Atom+Function  
  ----- ------------  ---------------      ----- ------------  ---------------
    69      0.705377   5 O  s               129      0.705377   9 O  s         

 Vector   15  Occ=2.000000D+00  E=-1.861734D+01  Symmetry=a'
              MO Center=  3.1D-01,  7.3D-01,  8.3D-16, r^2= 1.5D-02
   Bfn.  Coefficient  Atom+Function         Bfn.  Coefficient  Atom+Function  
  ----- ------------  ---------------      ----- ------------  ---------------
     1      0.997558   1 O  s         

 Vector   16  Occ=2.000000D+00  E=-5.099648D+00  Symmetry=a'
              MO Center=  4.8D-02,  3.5D-01,  2.1D-09, r^2= 2.4D+00
   Bfn.  Coefficient  Atom+Function         Bfn.  Coefficient  Atom+Function  
  ----- ------------  ---------------      ----- ------------  ---------------
    17      0.733283   2 Si s                36      0.733283   3 Si s         
    16     -0.206494   2 Si s                35     -0.206494   3 Si s         

 Vector   17  Occ=2.000000D+00  E=-5.099645D+00  Symmetry=a"
              MO Center=  4.8D-02,  3.5D-01, -2.1D-09, r^2= 2.4D+00
   Bfn.  Coefficient  Atom+Function         Bfn.  Coefficient  Atom+Function  
  ----- ------------  ---------------      ----- ------------  ---------------
    17      0.733373   2 Si s                36     -0.733373   3 Si s         
    16     -0.206491   2 Si s                35      0.206491   3 Si s         

 Vector   18  Occ=2.000000D+00  E=-5.065405D+00  Symmetry=a"
              MO Center=  1.2D+00, -2.4D+00,  4.8D-16, r^2= 5.8D+00
   Bfn.  Coefficient  Atom+Function         Bfn.  Coefficient  Atom+Function  
  ----- ------------  ---------------      ----- ------------  ---------------
   183      0.733512  12 Si s               221     -0.733512  14 Si s         
   182     -0.206560  12 Si s               220      0.206560  14 Si s         

 Vector   19  Occ=2.000000D+00  E=-5.065404D+00  Symmetry=a'
              MO Center=  1.2D+00, -2.4D+00,  8.9D-17, r^2= 5.8D+00
   Bfn.  Coefficient  Atom+Function         Bfn.  Coefficient  Atom+Function  
  ----- ------------  ---------------      ----- ------------  ---------------
   183      0.733492  12 Si s               221      0.733492  14 Si s         
   182     -0.206564  12 Si s               220     -0.206564  14 Si s         

 Vector   20  Occ=2.000000D+00  E=-5.060632D+00  Symmetry=a"
              MO Center= -2.9D+00, -3.7D-03, -2.5D-08, r^2= 5.8D+00
   Bfn.  Coefficient  Atom+Function         Bfn.  Coefficient  Atom+Function  
  ----- ------------  ---------------      ----- ------------  ---------------
   145      0.733483  10 Si s               240     -0.733483  15 Si s         
   144     -0.206562  10 Si s               239      0.206562  15 Si s         

 Vector   21  Occ=2.000000D+00  E=-5.060631D+00  Symmetry=a'
              MO Center= -2.9D+00, -3.7D-03,  2.5D-08, r^2= 5.8D+00
   Bfn.  Coefficient  Atom+Function         Bfn.  Coefficient  Atom+Function  
  ----- ------------  ---------------      ----- ------------  ---------------
   145      0.733460  10 Si s               240      0.733460  15 Si s         
   144     -0.206567  10 Si s               239     -0.206567  15 Si s         

 Vector   22  Occ=2.000000D+00  E=-5.058182D+00  Symmetry=a"
              MO Center=  1.7D+00,  1.7D+00, -2.4D-08, r^2= 1.4D+01
   Bfn.  Coefficient  Atom+Function         Bfn.  Coefficient  Atom+Function  
  ----- ------------  ---------------      ----- ------------  ---------------
   164      0.733467  11 Si s               202     -0.733467  13 Si s         
   163     -0.206560  11 Si s               201      0.206560  13 Si s         

 Vector   23  Occ=2.000000D+00  E=-5.058181D+00  Symmetry=a'
              MO Center=  1.7D+00,  1.7D+00,  2.4D-08, r^2= 1.4D+01
   Bfn.  Coefficient  Atom+Function         Bfn.  Coefficient  Atom+Function  
  ----- ------------  ---------------      ----- ------------  ---------------
   164      0.733447  11 Si s               202      0.733447  13 Si s         
   163     -0.206563  11 Si s               201     -0.206563  13 Si s         

 Vector   24  Occ=2.000000D+00  E=-3.542099D+00  Symmetry=a'
              MO Center=  4.8D-02,  3.5D-01,  4.6D-17, r^2= 2.4D+00
   Bfn.  Coefficient  Atom+Function         Bfn.  Coefficient  Atom+Function  
  ----- ------------  ---------------      ----- ------------  ---------------
    21      0.680972   2 Si py               40      0.680972   3 Si py        
    20     -0.154228   2 Si px               39     -0.154228   3 Si px        
    22     -0.085255   2 Si pz               41      0.085255   3 Si pz        

 Vector   25  Occ=2.000000D+00  E=-3.542096D+00  Symmetry=a"
              MO Center=  4.8D-02,  3.5D-01,  8.0D-14, r^2= 2.4D+00
   Bfn.  Coefficient  Atom+Function         Bfn.  Coefficient  Atom+Function  
  ----- ------------  ---------------      ----- ------------  ---------------
    21      0.679186   2 Si py               40     -0.679186   3 Si py        
    20     -0.169160   2 Si px               39      0.169160   3 Si px        
    22     -0.070064   2 Si pz               41     -0.070064   3 Si pz        

 Vector   26  Occ=2.000000D+00  E=-3.541554D+00  Symmetry=a'
              MO Center=  4.8D-02,  3.5D-01,  2.4D-10, r^2= 2.4D+00
   Bfn.  Coefficient  Atom+Function         Bfn.  Coefficient  Atom+Function  
  ----- ------------  ---------------      ----- ------------  ---------------
    20      0.642159   2 Si px               39      0.642159   3 Si px        
    22     -0.264257   2 Si pz               41      0.264257   3 Si pz        
    21      0.112408   2 Si py               40      0.112408   3 Si py        

 Vector   27  Occ=2.000000D+00  E=-3.541539D+00  Symmetry=a"
              MO Center=  4.8D-02,  3.5D-01, -2.4D-10, r^2= 2.4D+00
   Bfn.  Coefficient  Atom+Function         Bfn.  Coefficient  Atom+Function  
  ----- ------------  ---------------      ----- ------------  ---------------
    20      0.648823   2 Si px               39     -0.648823   3 Si px        
    22     -0.234452   2 Si pz               41     -0.234452   3 Si pz        
    21      0.137322   2 Si py               40     -0.137322   3 Si py        

 Vector   28  Occ=2.000000D+00  E=-3.541200D+00  Symmetry=a'
              MO Center=  4.8D-02,  3.5D-01, -1.4D-09, r^2= 2.4D+00
   Bfn.  Coefficient  Atom+Function         Bfn.  Coefficient  Atom+Function  
  ----- ------------  ---------------      ----- ------------  ---------------
    22      0.646315   2 Si pz               41     -0.646315   3 Si pz        
    20      0.242154   2 Si px               39      0.242154   3 Si px        
    21      0.135758   2 Si py               40      0.135758   3 Si py        

 Vector   29  Occ=2.000000D+00  E=-3.541194D+00  Symmetry=a"
              MO Center=  4.8D-02,  3.5D-01,  1.4D-09, r^2= 2.4D+00
   Bfn.  Coefficient  Atom+Function         Bfn.  Coefficient  Atom+Function  
  ----- ------------  ---------------      ----- ------------  ---------------
    22      0.659485   2 Si pz               41      0.659485   3 Si pz        
    20      0.212687   2 Si px               39     -0.212687   3 Si px        
    21      0.121028   2 Si py               40     -0.121028   3 Si py        

 Vector   30  Occ=2.000000D+00  E=-3.509391D+00  Symmetry=a'
              MO Center=  1.2D+00, -2.4D+00,  5.0D-16, r^2= 5.8D+00
   Bfn.  Coefficient  Atom+Function         Bfn.  Coefficient  Atom+Function  
  ----- ------------  ---------------      ----- ------------  ---------------
   187      0.562157  12 Si py              225      0.562157  14 Si py        
   186     -0.315799  12 Si px              224     -0.315799  14 Si px        
   188     -0.281086  12 Si pz              226      0.281086  14 Si pz        

 Vector   31  Occ=2.000000D+00  E=-3.509391D+00  Symmetry=a"
              MO Center=  1.2D+00, -2.4D+00,  1.3D-16, r^2= 5.8D+00
   Bfn.  Coefficient  Atom+Function         Bfn.  Coefficient  Atom+Function  
  ----- ------------  ---------------      ----- ------------  ---------------
   187      0.562273  12 Si py              225     -0.562273  14 Si py        
   186     -0.315895  12 Si px              224      0.315895  14 Si px        
   188     -0.280780  12 Si pz              226     -0.280780  14 Si pz        

 Vector   32  Occ=2.000000D+00  E=-3.505962D+00  Symmetry=a"
              MO Center=  1.2D+00, -2.4D+00, -1.4D-08, r^2= 5.8D+00
   Bfn.  Coefficient  Atom+Function         Bfn.  Coefficient  Atom+Function  
  ----- ------------  ---------------      ----- ------------  ---------------
   186      0.477727  12 Si px              224     -0.477727  14 Si px        
   187      0.419121  12 Si py              225     -0.419121  14 Si py        
   188      0.301883  12 Si pz              226      0.301883  14 Si pz        

 Vector   33  Occ=2.000000D+00  E=-3.505961D+00  Symmetry=a'
              MO Center=  1.2D+00, -2.4D+00,  1.4D-08, r^2= 5.8D+00
   Bfn.  Coefficient  Atom+Function         Bfn.  Coefficient  Atom+Function  
  ----- ------------  ---------------      ----- ------------  ---------------
   186      0.473754  12 Si px              224      0.473754  14 Si px        
   187      0.419766  12 Si py              225      0.419766  14 Si py        
   188      0.307248  12 Si pz              226     -0.307248  14 Si pz        

 Vector   34  Occ=2.000000D+00  E=-3.505844D+00  Symmetry=a'
              MO Center=  1.2D+00, -2.4D+00, -3.7D-09, r^2= 5.8D+00
   Bfn.  Coefficient  Atom+Function         Bfn.  Coefficient  Atom+Function  
  ----- ------------  ---------------      ----- ------------  ---------------
   188      0.567078  12 Si pz              226     -0.567078  14 Si pz        
   186     -0.413318  12 Si px              224     -0.413318  14 Si px        
   187      0.051372  12 Si py              225      0.051372  14 Si py        

 Vector   35  Occ=2.000000D+00  E=-3.505842D+00  Symmetry=a"
              MO Center=  1.2D+00, -2.4D+00,  3.7D-09, r^2= 5.8D+00
   Bfn.  Coefficient  Atom+Function         Bfn.  Coefficient  Atom+Function  
  ----- ------------  ---------------      ----- ------------  ---------------
   188      0.570126  12 Si pz              226      0.570126  14 Si pz        
   186     -0.408610  12 Si px              224      0.408610  14 Si px        
   187      0.055093  12 Si py              225     -0.055093  14 Si py        

 Vector   36  Occ=2.000000D+00  E=-3.504560D+00  Symmetry=a'
              MO Center= -2.9D+00, -4.6D-03,  1.3D-15, r^2= 5.8D+00
   Bfn.  Coefficient  Atom+Function         Bfn.  Coefficient  Atom+Function  
  ----- ------------  ---------------      ----- ------------  ---------------
   148      0.618582  10 Si px              243      0.618582  15 Si px        
   150     -0.254916  10 Si pz              245      0.254916  15 Si pz        
   149      0.217118  10 Si py              244      0.217118  15 Si py        

 Vector   37  Occ=2.000000D+00  E=-3.504559D+00  Symmetry=a"
              MO Center= -2.9D+00, -4.6D-03, -1.2D-15, r^2= 5.8D+00
   Bfn.  Coefficient  Atom+Function         Bfn.  Coefficient  Atom+Function  
  ----- ------------  ---------------      ----- ------------  ---------------
   148      0.618703  10 Si px              243     -0.618703  15 Si px        
   150     -0.254586  10 Si pz              245     -0.254586  15 Si pz        
   149      0.217136  10 Si py              244     -0.217136  15 Si py        

 Vector   38  Occ=2.000000D+00  E=-3.502036D+00  Symmetry=a"
              MO Center=  1.7D+00,  1.7D+00,  1.1D-08, r^2= 1.4D+01
   Bfn.  Coefficient  Atom+Function         Bfn.  Coefficient  Atom+Function  
  ----- ------------  ---------------      ----- ------------  ---------------
   169      0.603375  11 Si pz              207      0.603375  13 Si pz        
   167      0.337772  11 Si px              205     -0.337772  13 Si px        
   168      0.128816  11 Si py              206     -0.128816  13 Si py        

 Vector   39  Occ=2.000000D+00  E=-3.502035D+00  Symmetry=a'
              MO Center=  1.7D+00,  1.7D+00, -1.1D-08, r^2= 1.4D+01
   Bfn.  Coefficient  Atom+Function         Bfn.  Coefficient  Atom+Function  
  ----- ------------  ---------------      ----- ------------  ---------------
   169      0.603393  11 Si pz              207     -0.603393  13 Si pz        
   167      0.337732  11 Si px              205      0.337732  13 Si px        
   168      0.128815  11 Si py              206      0.128815  13 Si py        

 Vector   40  Occ=2.000000D+00  E=-3.501267D+00  Symmetry=a"
              MO Center= -2.9D+00, -4.2D-03, -1.3D-08, r^2= 5.8D+00
   Bfn.  Coefficient  Atom+Function         Bfn.  Coefficient  Atom+Function  
  ----- ------------  ---------------      ----- ------------  ---------------
   149      0.608378  10 Si py              244     -0.608378  15 Si py        
   150      0.346193  10 Si pz              245      0.346193  15 Si pz        
   148     -0.071052  10 Si px              243      0.071052  15 Si px        

 Vector   41  Occ=2.000000D+00  E=-3.501266D+00  Symmetry=a'
              MO Center= -2.9D+00, -4.2D-03,  1.3D-08, r^2= 5.8D+00
   Bfn.  Coefficient  Atom+Function         Bfn.  Coefficient  Atom+Function  
  ----- ------------  ---------------      ----- ------------  ---------------
   149      0.605714  10 Si py              244      0.605714  15 Si py        
   150      0.351533  10 Si pz              245     -0.351533  15 Si pz        
   148     -0.067714  10 Si px              243     -0.067714  15 Si px        

 Vector   42  Occ=2.000000D+00  E=-3.501099D+00  Symmetry=a'
              MO Center= -2.9D+00, -4.2D-03, -2.9D-09, r^2= 5.8D+00
   Bfn.  Coefficient  Atom+Function         Bfn.  Coefficient  Atom+Function  
  ----- ------------  ---------------      ----- ------------  ---------------
   150      0.553579  10 Si pz              245     -0.553579  15 Si pz        
   148      0.328017  10 Si px              243      0.328017  15 Si px        
   149     -0.284603  10 Si py              244     -0.284603  15 Si py        

 Vector   43  Occ=2.000000D+00  E=-3.501097D+00  Symmetry=a"
              MO Center= -2.9D+00, -4.2D-03,  2.9D-09, r^2= 5.8D+00
   Bfn.  Coefficient  Atom+Function         Bfn.  Coefficient  Atom+Function  
  ----- ------------  ---------------      ----- ------------  ---------------
   150      0.557106  10 Si pz              245      0.557106  15 Si pz        
   148      0.327025  10 Si px              243     -0.327025  15 Si px        
   149     -0.278793  10 Si py              244      0.278793  15 Si py        

 Vector   44  Occ=2.000000D+00  E=-3.498771D+00  Symmetry=a"
              MO Center=  1.7D+00,  1.7D+00, -6.9D-16, r^2= 1.4D+01
   Bfn.  Coefficient  Atom+Function         Bfn.  Coefficient  Atom+Function  
  ----- ------------  ---------------      ----- ------------  ---------------
   167      0.558034  11 Si px              205     -0.558034  13 Si px        
   169     -0.361539  11 Si pz              207     -0.361539  13 Si pz        
   168      0.230052  11 Si py              206     -0.230052  13 Si py        

 Vector   45  Occ=2.000000D+00  E=-3.498770D+00  Symmetry=a'
              MO Center=  1.7D+00,  1.7D+00, -3.5D-15, r^2= 1.4D+01
   Bfn.  Coefficient  Atom+Function         Bfn.  Coefficient  Atom+Function  
  ----- ------------  ---------------      ----- ------------  ---------------
   167      0.558219  11 Si px              205      0.558219  13 Si px        
   169     -0.361506  11 Si pz              207      0.361506  13 Si pz        
   168      0.229656  11 Si py              206      0.229656  13 Si py        

 Vector   46  Occ=2.000000D+00  E=-3.498702D+00  Symmetry=a"
              MO Center=  1.7D+00,  1.7D+00,  8.1D-08, r^2= 1.4D+01
   Bfn.  Coefficient  Atom+Function         Bfn.  Coefficient  Atom+Function  
  ----- ------------  ---------------      ----- ------------  ---------------
   168      0.652288  11 Si py              206     -0.652288  13 Si py        
   167     -0.263583  11 Si px              205      0.263583  13 Si px        

 Vector   47  Occ=2.000000D+00  E=-3.498701D+00  Symmetry=a'
              MO Center=  1.7D+00,  1.7D+00, -8.1D-08, r^2= 1.4D+01
   Bfn.  Coefficient  Atom+Function         Bfn.  Coefficient  Atom+Function  
  ----- ------------  ---------------      ----- ------------  ---------------
   168      0.652431  11 Si py              206      0.652431  13 Si py        
   167     -0.263244  11 Si px              205     -0.263244  13 Si px        

 Vector   48  Occ=2.000000D+00  E=-9.739484D-01  Symmetry=a'
              MO Center=  6.9D-02,  1.3D-01,  3.6D-14, r^2= 4.8D+00
   Bfn.  Coefficient  Atom+Function         Bfn.  Coefficient  Atom+Function  
  ----- ------------  ---------------      ----- ------------  ---------------
     2      0.234919   1 O  s                85      0.192931   6 O  s         
   115      0.192931   8 O  s                 3     -0.183572   1 O  s         
    18     -0.182484   2 Si s                37     -0.182484   3 Si s         
    86     -0.157397   6 O  s               116     -0.157397   8 O  s         
    55      0.152308   4 O  s               100      0.152308   7 O  s         

 Vector   49  Occ=2.000000D+00  E=-9.598102D-01  Symmetry=a"
              MO Center=  5.1D-02, -1.4D-01, -3.8D-14, r^2= 6.2D+00
   Bfn.  Coefficient  Atom+Function         Bfn.  Coefficient  Atom+Function  
  ----- ------------  ---------------      ----- ------------  ---------------
    85      0.239786   6 O  s               115     -0.239786   8 O  s         
    86     -0.197934   6 O  s               116      0.197934   8 O  s         
    55      0.172614   4 O  s               100     -0.172614   7 O  s         
    70      0.153218   5 O  s               130     -0.153218   9 O  s         
    18     -0.151879   2 Si s                37      0.151879   3 Si s         

 Vector   50  Occ=2.000000D+00  E=-9.282887D-01  Symmetry=a'
              MO Center=  5.6D-02, -4.7D-01,  7.0D-18, r^2= 5.7D+00
   Bfn.  Coefficient  Atom+Function         Bfn.  Coefficient  Atom+Function  
  ----- ------------  ---------------      ----- ------------  ---------------
    85      0.287058   6 O  s               115      0.287058   8 O  s         
    86     -0.199692   6 O  s               116     -0.199692   8 O  s         
    55     -0.174685   4 O  s               100     -0.174685   7 O  s         
    84     -0.132252   6 O  s               114     -0.132252   8 O  s         
    56      0.126619   4 O  s               101      0.126619   7 O  s         

 Vector   51  Occ=2.000000D+00  E=-9.264341D-01  Symmetry=a"
              MO Center= -1.9D-01, -2.1D-01,  2.1D-14, r^2= 6.4D+00
   Bfn.  Coefficient  Atom+Function         Bfn.  Coefficient  Atom+Function  
  ----- ------------  ---------------      ----- ------------  ---------------
    85      0.252557   6 O  s               115     -0.252557   8 O  s         
    55     -0.217733   4 O  s               100      0.217733   7 O  s         
    86     -0.180714   6 O  s               116      0.180714   8 O  s         
    56      0.164201   4 O  s               101     -0.164201   7 O  s         
    70     -0.130520   5 O  s               130      0.130520   9 O  s         

 Vector   52  Occ=2.000000D+00  E=-9.205022D-01  Symmetry=a'
              MO Center= -1.6D-01,  9.1D-01, -2.4D-12, r^2= 7.1D+00
   Bfn.  Coefficient  Atom+Function         Bfn.  Coefficient  Atom+Function  
  ----- ------------  ---------------      ----- ------------  ---------------
    70      0.262288   5 O  s               130      0.262288   9 O  s         
    55     -0.237155   4 O  s               100     -0.237155   7 O  s         
    71     -0.185033   5 O  s               131     -0.185033   9 O  s         
    56      0.161656   4 O  s               101      0.161656   7 O  s         
    69     -0.120883   5 O  s               129     -0.120883   9 O  s         

 Vector   53  Occ=2.000000D+00  E=-9.199151D-01  Symmetry=a"
              MO Center=  5.2D-02,  1.0D+00,  2.4D-12, r^2= 7.3D+00
   Bfn.  Coefficient  Atom+Function         Bfn.  Coefficient  Atom+Function  
  ----- ------------  ---------------      ----- ------------  ---------------
    70      0.286677   5 O  s               130     -0.286677   9 O  s         
    55     -0.211827   4 O  s               100      0.211827   7 O  s         
    71     -0.203129   5 O  s               131      0.203129   9 O  s         
    56      0.152334   4 O  s               101     -0.152334   7 O  s         
    69     -0.132219   5 O  s               129      0.132219   9 O  s         

 Vector   54  Occ=2.000000D+00  E=-9.117159D-01  Symmetry=a'
              MO Center=  2.1D-01,  7.4D-01, -2.1D-14, r^2= 3.0D+00
   Bfn.  Coefficient  Atom+Function         Bfn.  Coefficient  Atom+Function  
  ----- ------------  ---------------      ----- ------------  ---------------
     2      0.420866   1 O  s                 3     -0.278612   1 O  s         
     1     -0.191946   1 O  s                70     -0.165085   5 O  s         
   130     -0.165085   9 O  s                25     -0.138913   2 Si pz        
    44      0.138913   3 Si pz               55     -0.118708   4 O  s         
   100     -0.118708   7 O  s                71      0.113518   5 O  s         

 Vector   55  Occ=2.000000D+00  E=-6.103154D-01  Symmetry=a"
              MO Center=  6.3D-02,  1.8D-01,  9.3D-17, r^2= 6.6D+00
   Bfn.  Coefficient  Atom+Function         Bfn.  Coefficient  Atom+Function  
  ----- ------------  ---------------      ----- ------------  ---------------
    18      0.328806   2 Si s                37     -0.328806   3 Si s         
     6      0.249222   1 O  pz               88      0.183323   6 O  py        
   118     -0.183323   8 O  py               57      0.169660   4 O  px        
   102     -0.169660   7 O  px               17      0.153923   2 Si s         
    36     -0.153923   3 Si s               184     -0.138588  12 Si s         

 Vector   56  Occ=2.000000D+00  E=-5.832312D-01  Symmetry=a'
              MO Center= -1.5D-02, -2.7D-01, -4.6D-16, r^2= 7.9D+00
[...]
  ----- ------------  ---------------      ----- ------------  ---------------
     3      1.702193   1 O  s                56      1.664477   4 O  s         
   101      1.664477   7 O  s                86      1.302674   6 O  s         
   116      1.302674   8 O  s                71      1.206803   5 O  s         
   131      1.206803   9 O  s                18      0.899416   2 Si s         
    37      0.899416   3 Si s                32     -0.890917   2 Si dyy       

 Vector  327  Occ=0.000000D+00  E= 2.642181D+00  Symmetry=a"
              MO Center= -2.4D-01,  3.4D-01,  1.0D-13, r^2= 8.1D+00
   Bfn.  Coefficient  Atom+Function         Bfn.  Coefficient  Atom+Function  
  ----- ------------  ---------------      ----- ------------  ---------------
    56      1.838117   4 O  s               101     -1.838117   7 O  s         
    71      1.474765   5 O  s               131     -1.474765   9 O  s         
    86      1.333153   6 O  s               116     -1.333153   8 O  s         
    18      1.108987   2 Si s                37     -1.108987   3 Si s         
    29     -1.038173   2 Si dxx              48      1.038173   3 Si dxx       

 Vector  328  Occ=0.000000D+00  E= 2.698561D+00  Symmetry=a'
              MO Center=  6.6D-01,  1.1D+00, -8.2D-14, r^2= 6.3D+00
   Bfn.  Coefficient  Atom+Function         Bfn.  Coefficient  Atom+Function  
  ----- ------------  ---------------      ----- ------------  ---------------
     3      2.529094   1 O  s                71     -2.328203   5 O  s         
   131     -2.328203   9 O  s                25     -1.439901   2 Si pz        
    44      1.439901   3 Si pz               80     -0.945812   5 O  dxz       
   140      0.945812   9 O  dxz              33      0.892046   2 Si dyz       
    52     -0.892046   3 Si dyz               2      0.788755   1 O  s         

 Vector  329  Occ=0.000000D+00  E= 2.760219D+00  Symmetry=a"
              MO Center=  6.7D-01,  8.3D-02, -2.3D-15, r^2= 8.3D+00
   Bfn.  Coefficient  Atom+Function         Bfn.  Coefficient  Atom+Function  
  ----- ------------  ---------------      ----- ------------  ---------------
    18      1.980433   2 Si s                37     -1.980433   3 Si s         
    71     -1.742250   5 O  s               131      1.742250   9 O  s         
   184      1.703606  12 Si s               222     -1.703606  14 Si s         
    86      1.536301   6 O  s               116     -1.536301   8 O  s         
    32     -1.126356   2 Si dyy              51      1.126356   3 Si dyy       

 Vector  330  Occ=0.000000D+00  E= 2.804790D+00  Symmetry=a'
              MO Center=  2.0D-01, -4.6D-01, -3.9D-15, r^2= 7.2D+00
   Bfn.  Coefficient  Atom+Function         Bfn.  Coefficient  Atom+Function  
  ----- ------------  ---------------      ----- ------------  ---------------
    18      2.671532   2 Si s                37      2.671532   3 Si s         
   184      2.081122  12 Si s               222      2.081122  14 Si s         
    86      1.582338   6 O  s               116      1.582338   8 O  s         
    32     -1.563222   2 Si dyy              51     -1.563222   3 Si dyy       
   198     -1.213768  12 Si dyy             236     -1.213768  14 Si dyy       

 Vector  331  Occ=0.000000D+00  E= 2.815936D+00  Symmetry=a"
              MO Center= -6.3D-01,  3.0D-01,  3.3D-14, r^2= 8.6D+00
   Bfn.  Coefficient  Atom+Function         Bfn.  Coefficient  Atom+Function  
  ----- ------------  ---------------      ----- ------------  ---------------
    56      2.148867   4 O  s               101     -2.148867   7 O  s         
    71     -1.345201   5 O  s               131      1.345201   9 O  s         
    23     -1.099067   2 Si px               42      1.099067   3 Si px        
    86     -1.073564   6 O  s               116      1.073564   8 O  s         
   184     -0.953123  12 Si s               222      0.953123  14 Si s         

 Vector  332  Occ=0.000000D+00  E= 2.858067D+00  Symmetry=a'
              MO Center= -7.2D-01,  4.6D-01,  6.3D-14, r^2= 6.9D+00
   Bfn.  Coefficient  Atom+Function         Bfn.  Coefficient  Atom+Function  
  ----- ------------  ---------------      ----- ------------  ---------------
    56      2.037049   4 O  s               101      2.037049   7 O  s         
     3     -1.848247   1 O  s               146      1.318656  10 Si s         
   241      1.318656  15 Si s                18      1.286055   2 Si s         
    37      1.286055   3 Si s                23     -1.099245   2 Si px        
    42     -1.099245   3 Si px               29     -1.086592   2 Si dxx       

 Vector  333  Occ=0.000000D+00  E= 2.881128D+00  Symmetry=a'
              MO Center=  4.7D-01,  9.7D-01, -1.5D-14, r^2= 1.5D+01
   Bfn.  Coefficient  Atom+Function         Bfn.  Coefficient  Atom+Function  
  ----- ------------  ---------------      ----- ------------  ---------------
   165      3.668912  11 Si s               203      3.668912  13 Si s         
   146      2.126689  10 Si s               241      2.126689  15 Si s         
   181     -1.721395  11 Si dzz             219     -1.721395  13 Si dzz       
   176     -1.651935  11 Si dxx             214     -1.651935  13 Si dxx       
   179     -1.609933  11 Si dyy             217     -1.609933  13 Si dyy       

 Vector  334  Occ=0.000000D+00  E= 2.882340D+00  Symmetry=a"
              MO Center= -2.0D+00,  7.1D-02,  6.3D-13, r^2= 9.2D+00
   Bfn.  Coefficient  Atom+Function         Bfn.  Coefficient  Atom+Function  
  ----- ------------  ---------------      ----- ------------  ---------------
   146      4.119809  10 Si s               241     -4.119809  15 Si s         
   162     -1.818385  10 Si dzz             257      1.818385  15 Si dzz       
   160     -1.808043  10 Si dyy             255      1.808043  15 Si dyy       
   157     -1.734333  10 Si dxx             252      1.734333  15 Si dxx       
    18      1.449997   2 Si s                37     -1.449997   3 Si s         

 Vector  335  Occ=0.000000D+00  E= 2.899875D+00  Symmetry=a"
              MO Center=  1.5D+00,  1.6D+00, -6.3D-15, r^2= 1.6D+01
   Bfn.  Coefficient  Atom+Function         Bfn.  Coefficient  Atom+Function  
  ----- ------------  ---------------      ----- ------------  ---------------
   165      4.584257  11 Si s               203     -4.584257  13 Si s         
   181     -2.129936  11 Si dzz             219      2.129936  13 Si dzz       
   176     -2.086926  11 Si dxx             214      2.086926  13 Si dxx       
   179     -2.063075  11 Si dyy             217      2.063075  13 Si dyy       
   146      0.945646  10 Si s               241     -0.945646  15 Si s         

 Vector  336  Occ=0.000000D+00  E= 2.900699D+00  Symmetry=a'
              MO Center= -1.3D+00,  5.0D-01, -7.8D-13, r^2= 1.4D+01
   Bfn.  Coefficient  Atom+Function         Bfn.  Coefficient  Atom+Function  
  ----- ------------  ---------------      ----- ------------  ---------------
   146      3.747918  10 Si s               241      3.747918  15 Si s         
   165     -2.507684  11 Si s               203     -2.507684  13 Si s         
   160     -1.675398  10 Si dyy             162     -1.674569  10 Si dzz       
   255     -1.675398  15 Si dyy             257     -1.674569  15 Si dzz       
   157     -1.607061  10 Si dxx             252     -1.607061  15 Si dxx       

 Vector  337  Occ=0.000000D+00  E= 2.927143D+00  Symmetry=a"
              MO Center=  5.9D-01, -1.7D+00,  1.0D-12, r^2= 8.1D+00
   Bfn.  Coefficient  Atom+Function         Bfn.  Coefficient  Atom+Function  
  ----- ------------  ---------------      ----- ------------  ---------------
   184      3.723734  12 Si s               222     -3.723734  14 Si s         
   200     -1.654210  12 Si dzz             238      1.654210  14 Si dzz       
   195     -1.629071  12 Si dxx             233      1.629071  14 Si dxx       
    86     -1.539493   6 O  s               116      1.539493   8 O  s         
   198     -1.448717  12 Si dyy             236      1.448717  14 Si dyy       

 Vector  338  Occ=0.000000D+00  E= 2.934679D+00  Symmetry=a'
              MO Center=  9.0D-01, -1.6D+00, -1.0D-12, r^2= 7.6D+00
   Bfn.  Coefficient  Atom+Function         Bfn.  Coefficient  Atom+Function  
  ----- ------------  ---------------      ----- ------------  ---------------
   184      3.690757  12 Si s               222      3.690757  14 Si s         
   200     -1.640301  12 Si dzz             238     -1.640301  14 Si dzz       
    86     -1.612639   6 O  s               116     -1.612639   8 O  s         
   195     -1.617302  12 Si dxx             233     -1.617302  14 Si dxx       
   198     -1.442062  12 Si dyy             236     -1.442062  14 Si dyy       

 Vector  339  Occ=0.000000D+00  E= 2.964017D+00  Symmetry=a'
              MO Center=  1.3D-01, -2.7D-01,  4.7D-14, r^2= 8.7D+00
   Bfn.  Coefficient  Atom+Function         Bfn.  Coefficient  Atom+Function  
  ----- ------------  ---------------      ----- ------------  ---------------
    18      3.031216   2 Si s                37      3.031216   3 Si s         
    34     -1.777641   2 Si dzz              53     -1.777641   3 Si dzz       
   184     -1.740946  12 Si s               222     -1.740946  14 Si s         
    29     -1.537528   2 Si dxx              48     -1.537528   3 Si dxx       
    32     -1.399810   2 Si dyy              51     -1.399810   3 Si dyy       

 Vector  340  Occ=0.000000D+00  E= 2.994358D+00  Symmetry=a"
              MO Center= -3.8D-03, -3.9D-01, -1.9D-14, r^2= 7.5D+00
   Bfn.  Coefficient  Atom+Function         Bfn.  Coefficient  Atom+Function  
  ----- ------------  ---------------      ----- ------------  ---------------
    18      3.270485   2 Si s                37     -3.270485   3 Si s         
   184     -1.835074  12 Si s               222      1.835074  14 Si s         
    34     -1.793577   2 Si dzz              53      1.793577   3 Si dzz       
    29     -1.745888   2 Si dxx              48      1.745888   3 Si dxx       
    32     -1.671430   2 Si dyy              51      1.671430   3 Si dyy       

 Vector  341  Occ=0.000000D+00  E= 3.686771D+00  Symmetry=a'
              MO Center=  5.4D-01,  9.3D-01, -1.1D-15, r^2= 5.1D+00
   Bfn.  Coefficient  Atom+Function         Bfn.  Coefficient  Atom+Function  
  ----- ------------  ---------------      ----- ------------  ---------------
     3      3.305429   1 O  s                71     -2.550055   5 O  s         
   131     -2.550055   9 O  s                10     -1.283289   1 O  dxx       
    13     -1.234941   1 O  dyy              15     -1.020380   1 O  dzz       
    78      0.918481   5 O  dxx             138      0.918481   9 O  dxx       
    81      0.906827   5 O  dyy             141      0.906827   9 O  dyy       

 Vector  342  Occ=0.000000D+00  E= 3.698217D+00  Symmetry=a'
              MO Center= -5.6D-01, -1.3D-01,  1.4D-15, r^2= 6.7D+00
   Bfn.  Coefficient  Atom+Function         Bfn.  Coefficient  Atom+Function  
  ----- ------------  ---------------      ----- ------------  ---------------
    56      2.682553   4 O  s               101      2.682553   7 O  s         
    86     -2.251691   6 O  s               116     -2.251691   8 O  s         
    68     -0.988865   4 O  dzz             113     -0.988865   7 O  dzz       
    66     -0.981491   4 O  dyy             111     -0.981491   7 O  dyy       
    98      0.850087   6 O  dzz             128      0.850087   8 O  dzz       

 Vector  343  Occ=0.000000D+00  E= 3.706927D+00  Symmetry=a'
              MO Center=  6.4D-02,  3.2D-01, -1.0D-15, r^2= 6.5D+00
   Bfn.  Coefficient  Atom+Function         Bfn.  Coefficient  Atom+Function  
  ----- ------------  ---------------      ----- ------------  ---------------
     3      2.205605   1 O  s                71      1.833387   5 O  s         
    86     -1.827012   6 O  s               116     -1.827012   8 O  s         
   131      1.833387   9 O  s                56     -1.738751   4 O  s         
   101     -1.738751   7 O  s                13     -0.869415   1 O  dyy       
    10     -0.858668   1 O  dxx              15     -0.709623   1 O  dzz       

 Vector  344  Occ=0.000000D+00  E= 3.709907D+00  Symmetry=a"
              MO Center= -5.2D-01, -2.9D-01, -7.0D-15, r^2= 6.5D+00
   Bfn.  Coefficient  Atom+Function         Bfn.  Coefficient  Atom+Function  
  ----- ------------  ---------------      ----- ------------  ---------------
    56      2.680061   4 O  s               101     -2.680061   7 O  s         
    86     -2.573302   6 O  s               116      2.573302   8 O  s         
    68     -0.985249   4 O  dzz             113      0.985249   7 O  dzz       
    66     -0.948009   4 O  dyy              98      0.952574   6 O  dzz       
   111      0.948009   7 O  dyy             128     -0.952574   8 O  dzz       

 Vector  345  Occ=0.000000D+00  E= 3.753372D+00  Symmetry=a"
              MO Center=  7.7D-01,  1.3D+00,  6.9D-15, r^2= 7.5D+00
   Bfn.  Coefficient  Atom+Function         Bfn.  Coefficient  Atom+Function  
  ----- ------------  ---------------      ----- ------------  ---------------
    71      3.746061   5 O  s               131     -3.746061   9 O  s         
    78     -1.265694   5 O  dxx              81     -1.263210   5 O  dyy       
   138      1.265694   9 O  dxx             141      1.263210   9 O  dyy       
    83     -1.201728   5 O  dzz             143      1.201728   9 O  dzz       
    56     -0.786728   4 O  s               101      0.786728   7 O  s         

 Vector  346  Occ=0.000000D+00  E= 3.844352D+00  Symmetry=a'
              MO Center=  1.2D-01,  2.8D-01, -8.2D-13, r^2= 5.9D+00
   Bfn.  Coefficient  Atom+Function         Bfn.  Coefficient  Atom+Function  
  ----- ------------  ---------------      ----- ------------  ---------------
     3      3.866487   1 O  s                86      2.635130   6 O  s         
   116      2.635130   8 O  s                71      2.235889   5 O  s         
   131      2.235889   9 O  s                19     -2.187443   2 Si s         
    38     -2.187443   3 Si s                56      2.154871   4 O  s         
   101      2.154871   7 O  s                10     -1.187901   1 O  dxx       

 Vector  347  Occ=0.000000D+00  E= 3.984509D+00  Symmetry=a"
              MO Center= -3.8D-01, -2.5D-01,  8.1D-13, r^2= 6.7D+00
   Bfn.  Coefficient  Atom+Function         Bfn.  Coefficient  Atom+Function  
  ----- ------------  ---------------      ----- ------------  ---------------
    86     -3.746208   6 O  s               116      3.746208   8 O  s         
    56     -3.521685   4 O  s               101      3.521685   7 O  s         
    19      3.477674   2 Si s                38     -3.477674   3 Si s         
    71     -1.574583   5 O  s               131      1.574583   9 O  s         
    98      1.071159   6 O  dzz             128     -1.071159   8 O  dzz       


 center of mass
 --------------
 x =   0.00154070 y =   0.03892626 z =  -0.00000000

 moments of inertia (a.u.)
 ------------------
       10211.947106327363          -0.000000000220           0.000000000000
          -0.000000000220       10986.893236464955          -0.000000000000
           0.000000000000          -0.000000000000        5835.541935203861

     Multipole analysis of the density
     ---------------------------------

     L   x y z        total         alpha         beta         nuclear
     -   - - -        -----         -----         ----         -------
     0   0 0 0     -0.000000    -93.000000    -93.000000    186.000000

     1   1 0 0      0.011226      0.005613      0.005613     -0.000000
     1   0 1 0     -0.629917     -0.314959     -0.314959     -0.000000
     1   0 0 1      0.000000      0.000000      0.000000     -0.000000

     2   2 0 0   -110.630287   -982.833749   -982.833749   1855.037211
     2   1 1 0     -0.099845      0.303483      0.303483     -0.706811
     2   1 0 1      0.000000      0.000000      0.000000     -0.000000
     2   0 2 0   -113.857814   -765.244304   -765.244304   1416.630794
     2   0 1 1      0.000000      0.000000      0.000000      0.000000
     2   0 0 2   -108.423191  -2151.110517  -2151.110517   4193.797844


 Task  times  cpu:        8.4s     wall:        8.5s


                                NWChem Input Module
                                -------------------


 Summary of allocated global arrays
-----------------------------------
  No active global arrays



                         GA Statistics for process    0
                         ------------------------------

       create   destroy   get      put      acc     scatter   gather  read&inc
calls:  288      288     1.69e+05 1.30e+04 1.17e+05    0        0     1.14e+04 
number of processes/call 1.02e+00 1.17e+00 1.00e+00 0.00e+00 0.00e+00
bytes total:             4.86e+08 7.74e+07 2.42e+08 0.00e+00 0.00e+00 9.08e+04
bytes remote:            1.64e+08 2.11e+07 6.94e+07 0.00e+00 0.00e+00 0.00e+00
Max memory consumed for GA by this process: 13082256 bytes

MA_summarize_allocated_blocks: starting scan ...
heap block 'gridpts', handle 98, address 0x55bcd40614b0:
	type of elements:		double precision
	number of elements:		32595487
	address of client space:	0x55bcd4061540
	index for client space:		12994235
	total number of bytes:		260764048
MA_summarize_allocated_blocks: scan completed: 1 heap block, 0 stack blocks
MA usage statistics:

	allocation statistics:
					      heap	     stack
					      ----	     -----
	current number of blocks	         1	         0
	maximum number of blocks	        28	        58
	current total bytes		 260764048	         0
	maximum total bytes		 266086584	  81649512
	maximum total K-bytes		    266087	     81650
	maximum total M-bytes		       267	        82


                                     CITATION
                                     --------
                Please cite the following reference when publishing
                           results obtained with NWChem:

                 M. Valiev, E.J. Bylaska, N. Govind, K. Kowalski,
              T.P. Straatsma, H.J.J. van Dam, D. Wang, J. Nieplocha,
                        E. Apra, T.L. Windus, W.A. de Jong
                 "NWChem: a comprehensive and scalable open-source
                  solution for large scale molecular simulations"
                      Comput. Phys. Commun. 181, 1477 (2010)
                           doi:10.1016/j.cpc.2010.04.018

                                      AUTHORS
                                      -------
          E. Apra, E. J. Bylaska, W. A. de Jong, N. Govind, K. Kowalski,
       T. P. Straatsma, M. Valiev, H. J. J. van Dam, D. Wang, T. L. Windus,
        J. Hammond, J. Autschbach, K. Bhaskaran-Nair, J. Brabec, K. Lopata,
    S. A. Fischer, S. Krishnamoorthy, M. Jacquelin, W. Ma, M. Klemm, O. Villa,
      Y. Chen, V. Anisimov, F. Aquino, S. Hirata, M. T. Hackler, V. Konjkov,
            D. Mejia-Rodriguez, T. Risthaus, M. Malagoli, A. Marenich,
   A. Otero-de-la-Roza, J. Mullin, P. Nichols, R. Peverati, J. Pittner, Y. Zhao,
        P.-D. Fan, A. Fonari, M. J. Williamson, R. J. Harrison, J. R. Rehr,
      M. Dupuis, D. Silverstein, D. M. A. Smith, J. Nieplocha, V. Tipparaju,
    M. Krishnan, B. E. Van Kuiken, A. Vazquez-Mayagoitia, L. Jensen, M. Swart,
      Q. Wu, T. Van Voorhis, A. A. Auer, M. Nooijen, L. D. Crosby, E. Brown,
      G. Cisneros, G. I. Fann, H. Fruchtl, J. Garza, K. Hirao, R. A. Kendall,
      J. A. Nichols, K. Tsemekhman, K. Wolinski, J. Anchell, D. E. Bernholdt,
      P. Borowski, T. Clark, D. Clerc, H. Dachsel, M. J. O. Deegan, K. Dyall,
    D. Elwood, E. Glendening, M. Gutowski, A. C. Hess, J. Jaffe, B. G. Johnson,
     J. Ju, R. Kobayashi, R. Kutteh, Z. Lin, R. Littlefield, X. Long, B. Meng,
      T. Nakajima, S. Niu, L. Pollack, M. Rosing, K. Glaesemann, G. Sandrone,
      M. Stave, H. Taylor, G. Thomas, J. H. van Lenthe, A. T. Wong, Z. Zhang.

 Total times  cpu:        8.5s     wall:        8.5s
