 argument  1 = /home/list1234/source/nwchem-6.8.1-release/QA/tests/dft_m05nh2ch3/dft_m05nh2ch3.nw



============================== echo of input deck ==============================
echo
title "test5 M05-2X/6-31+G*  NH2 + CH3 TS single point"
start dft_m05nh2ch3

geometry
C       -1.199577    -.011126    -.000030
N        1.400715     .129862     .000015
H       -1.426660    -.512932     .933057
H       -1.419907    -.591382    -.888143
H       -1.520237    1.022806    -.045783
H         .188926     .126896     .001001
H        1.570338    -.887667    -.000053
end

basis
* library 6-31++G**
end

dft
xc  m05-2x
mult 3
grid fine
end

task dft

================================================================================


                                         
                                         


              Northwest Computational Chemistry Package (NWChem) 6.8
              ------------------------------------------------------


                    Environmental Molecular Sciences Laboratory
                       Pacific Northwest National Laboratory
                                Richland, WA 99352

                              Copyright (c) 1994-2018
                       Pacific Northwest National Laboratory
                            Battelle Memorial Institute

             NWChem is an open-source computational chemistry package
                        distributed under the terms of the
                      Educational Community License (ECL) 2.0
             A copy of the license is included with this distribution
                              in the LICENSE.TXT file

                                  ACKNOWLEDGMENT
                                  --------------

            This software and its documentation were developed at the
            EMSL at Pacific Northwest National Laboratory, a multiprogram
            national laboratory, operated for the U.S. Department of Energy
            by Battelle under Contract Number DE-AC05-76RL01830. Support
            for this work was provided by the Department of Energy Office
            of Biological and Environmental Research, Office of Basic
            Energy Sciences, and the Office of Advanced Scientific Computing.


           Job information
           ---------------

    hostname        = list1234-B360M-H
    program         = /home/list1234/source/nwchem-6.8.1-release/bin/LINUX64/nwchem
    date            = Sun Jun 30 07:48:12 2019

    compiled        = Sun_Jun_30_05:21:11_2019
    source          = /home/list1234/source/nwchem-6.8.1-release
    nwchem branch   = Development
    nwchem revision = N/A
    ga revision     = 5.6.5
    use scalapack   = T
    input           = /home/list1234/source/nwchem-6.8.1-release/QA/tests/dft_m05nh2ch3/dft_m05nh2ch3.nw
    prefix          = dft_m05nh2ch3.
    data base       = ./dft_m05nh2ch3.db
    status          = startup
    nproc           =        4
    time left       =     -1s



           Memory information
           ------------------

    heap     =   86247164 doubles =    658.0 Mbytes
    stack    =   86247169 doubles =    658.0 Mbytes
    global   =  172494336 doubles =   1316.0 Mbytes (distinct from heap & stack)
    total    =  344988669 doubles =   2632.1 Mbytes
    verify   = yes
    hardfail = no 


           Directory information
           ---------------------

  0 permanent = .
  0 scratch   = .




                                NWChem Input Module
                                -------------------


                  test5 M05-2X/6-31+G*  NH2 + CH3 TS single point
                  -----------------------------------------------

 Scaling coordinates for geometry "geometry" by  1.889725989
 (inverse scale =  0.529177249)

 C1  symmetry detected

          ------
          auto-z
          ------
  autoz: The atoms group into disjoint clusters
 cluster   1:    1    3    4    5
 cluster   2:    2    6    7
 Connecting clusters   1   2 via atoms    1    6 r = 1.40
  autoz: regenerating connections with new bonds
  Looking for out-of-plane bends
  no constraints, skipping    0.0000000000000000     
  no constraints, skipping    0.0000000000000000     


                             Geometry "geometry" -> ""
                             -------------------------

 Output coordinates in angstroms (scale by  1.889725989 to convert to a.u.)

  No.       Tag          Charge          X              Y              Z
 ---- ---------------- ---------- -------------- -------------- --------------
    1 C                    6.0000     0.01894486     1.19947916    -0.00002200
    2 N                    7.0000     0.09471245    -1.40352975     0.00000423
    3 H                    1.0000    -0.47700421     1.43906203     0.93307063
    4 H                    1.0000    -0.55561339     1.43429021    -0.88812877
    5 H                    1.0000     1.06058897     1.49412331    -0.04578127
    6 H                    1.0000     0.12212079    -0.19204712     0.00099846
    7 H                    1.0000    -0.92674845    -1.54759517    -0.00005661

      Atomic Mass 
      ----------- 

      C                 12.000000
      N                 14.003070
      H                  1.007825


 Effective nuclear repulsion energy (a.u.)      33.4595568057

            Nuclear Dipole moment (a.u.) 
            ----------------------------
        X                 Y               Z
 ---------------- ---------------- ----------------
     0.0000000000     0.0000000000     0.0000000000



                                Z-matrix (autoz)
                                -------- 

 Units are Angstrom for bonds and degrees for angles

      Type          Name      I     J     K     L     M      Value
      ----------- --------  ----- ----- ----- ----- ----- ----------
    1 Stretch                  1     6                       1.39535
    2 Stretch                  1     3                       1.08353
    3 Stretch                  1     4                       1.08351
    4 Stretch                  1     5                       1.08348
    5 Stretch                  2     6                       1.21179
    6 Stretch                  2     7                       1.03157
    7 Bend                     1     2     7                96.36069
    8 Bend                     2     1     3               103.55210
    9 Bend                     2     1     4               103.41833
   10 Bend                     2     1     5               104.11421
   11 Bend                     3     1     6               104.69799
   12 Bend                     3     1     4               114.53351
   13 Bend                     3     1     5               114.60018
   14 Bend                     4     1     6               104.82871
   15 Bend                     4     1     5               114.59805
   16 Bend                     5     1     6               101.54519
   17 Bend                     6     2     7                99.32399
   18 Torsion                  3     1     2     7          62.35729
   19 Torsion                  1     3     6     2        -171.28472
   20 Torsion                  4     1     2     7         -57.41867
   21 Torsion                  1     4     6     2         171.95379
   22 Torsion                  5     1     2     7        -177.50076
   23 Torsion                  1     5     6     2         179.30165
   24 Torsion                  1     6     7     2         179.86676


            XYZ format geometry
            -------------------
     7
 geometry
 C                     0.01894486     1.19947916    -0.00002200
 N                     0.09471245    -1.40352975     0.00000423
 H                    -0.47700421     1.43906203     0.93307063
 H                    -0.55561339     1.43429021    -0.88812877
 H                     1.06058897     1.49412331    -0.04578127
 H                     0.12212079    -0.19204712     0.00099846
 H                    -0.92674845    -1.54759517    -0.00005661

 ==============================================================================
                                internuclear distances
 ------------------------------------------------------------------------------
       center one      |      center two      | atomic units |  angstroms
 ------------------------------------------------------------------------------
    3 H                |   1 C                |     2.04757  |     1.08353
    4 H                |   1 C                |     2.04753  |     1.08351
    5 H                |   1 C                |     2.04748  |     1.08348
    7 H                |   2 N                |     1.94939  |     1.03157
 ------------------------------------------------------------------------------
                         number of included internuclear distances:          4
 ==============================================================================



 ==============================================================================
                                 internuclear angles
 ------------------------------------------------------------------------------
        center 1       |       center 2       |       center 3       |  degrees
 ------------------------------------------------------------------------------
    3 H                |   1 C                |   4 H                |   114.53
    3 H                |   1 C                |   5 H                |   114.60
    4 H                |   1 C                |   5 H                |   114.60
 ------------------------------------------------------------------------------
                            number of included internuclear angles:          3
 ==============================================================================





 Summary of "ao basis" -> "" (cartesian)
 ------------------------------------------------------------------------------
       Tag                 Description            Shells   Functions and Types
 ---------------- ------------------------------  ------  ---------------------
 *                         6-31++G**                  on all atoms 



                                 NWChem DFT Module
                                 -----------------


                  test5 M05-2X/6-31+G*  NH2 + CH3 TS single point


                      Basis "ao basis" -> "ao basis" (cartesian)
                      -----
  C (Carbon)
  ----------
            Exponent  Coefficients 
       -------------- ---------------------------------------------------------
  1 S  3.04752490E+03  0.001835
  1 S  4.57369510E+02  0.014037
  1 S  1.03948690E+02  0.068843
  1 S  2.92101550E+01  0.232184
  1 S  9.28666300E+00  0.467941
  1 S  3.16392700E+00  0.362312

  2 S  7.86827240E+00 -0.119332
  2 S  1.88128850E+00 -0.160854
  2 S  5.44249300E-01  1.143456

  3 P  7.86827240E+00  0.068999
  3 P  1.88128850E+00  0.316424
  3 P  5.44249300E-01  0.744308

  4 S  1.68714400E-01  1.000000

  5 P  1.68714400E-01  1.000000

  6 S  4.38000000E-02  1.000000

  7 P  4.38000000E-02  1.000000

  8 D  8.00000000E-01  1.000000

  N (Nitrogen)
  ------------
            Exponent  Coefficients 
       -------------- ---------------------------------------------------------
  1 S  4.17351100E+03  0.001835
  1 S  6.27457900E+02  0.013995
  1 S  1.42902100E+02  0.068587
  1 S  4.02343300E+01  0.232241
  1 S  1.28202100E+01  0.469070
  1 S  4.39043700E+00  0.360455

  2 S  1.16263580E+01 -0.114961
  2 S  2.71628000E+00 -0.169118
  2 S  7.72218000E-01  1.145852

  3 P  1.16263580E+01  0.067580
  3 P  2.71628000E+00  0.323907
  3 P  7.72218000E-01  0.740895

  4 S  2.12031300E-01  1.000000

  5 P  2.12031300E-01  1.000000

  6 S  6.39000000E-02  1.000000

  7 P  6.39000000E-02  1.000000

  8 D  8.00000000E-01  1.000000

  H (Hydrogen)
  ------------
            Exponent  Coefficients 
       -------------- ---------------------------------------------------------
  1 S  1.87311370E+01  0.033495
  1 S  2.82539370E+00  0.234727
  1 S  6.40121700E-01  0.813757

  2 S  1.61277800E-01  1.000000

  3 S  3.60000000E-02  1.000000

  4 P  1.10000000E+00  1.000000



 Summary of "ao basis" -> "ao basis" (cartesian)
 ------------------------------------------------------------------------------
       Tag                 Description            Shells   Functions and Types
 ---------------- ------------------------------  ------  ---------------------
 C                         6-31++G**                 8       19   4s3p1d
 N                         6-31++G**                 8       19   4s3p1d
 H                         6-31++G**                 4        6   3s1p




 Summary of "ao basis" -> "ao basis" (cartesian)
 ------------------------------------------------------------------------------
       Tag                 Description            Shells   Functions and Types
 ---------------- ------------------------------  ------  ---------------------
 C                         6-31++G**                 8       19   4s3p1d
 N                         6-31++G**                 8       19   4s3p1d
 H                         6-31++G**                 4        6   3s1p


  Caching 1-el integrals 

            General Information
            -------------------
          SCF calculation type: DFT
          Wavefunction type:  spin polarized.
          No. of atoms     :     7
          No. of electrons :    18
           Alpha electrons :    10
            Beta electrons :     8
          Charge           :     0
          Spin multiplicity:     3
          Use of symmetry is: off; symmetry adaption is: off
          Maximum number of iterations:  30
          AO basis - number of functions:    68
                     number of shells:    36
          Convergence on energy requested:  1.00D-06
          Convergence on density requested:  1.00D-05
          Convergence on gradient requested:  5.00D-04

              XC Information
              --------------
                       M05-2X Method XC Functional
                     Hartree-Fock (Exact) Exchange  0.560          
                M05-2X metaGGA Exchange Functional  0.440          
                      M05-2X Correlation Potential  1.000          

             Grid Information
             ----------------
          Grid used for XC integration:  fine      
          Radial quadrature: Mura-Knowles        
          Angular quadrature: Lebedev. 
          Tag              B.-S. Rad. Rad. Pts. Rad. Cut. Ang. Pts.
          ---              ---------- --------- --------- ---------
          C                   0.70       70          13.0       590
          N                   0.65       70          13.0       590
          H                   0.35       60          14.0       590
          Grid pruning is: on 
          Number of quadrature shells:   440
          Spatial weights used:  Erf1

          Convergence Information
          -----------------------
          Convergence aids based upon iterative change in 
          total energy or number of iterations. 
          Levelshifting, if invoked, occurs when the 
          HOMO/LUMO gap drops below (HL_TOL):  1.00D-02
          DIIS, if invoked, will attempt to extrapolate 
          using up to (NFOCK): 10 stored Fock matrices.

                    Damping( 0%)  Levelshifting(0.5)       DIIS
                  --------------- ------------------- ---------------
          dE  on:    start            ASAP                start   
          dE off:    2 iters         30 iters            30 iters 


      Screening Tolerance Information
      -------------------------------
          Density screening/tol_rho:  1.00D-10
          AO Gaussian exp screening on grid/accAOfunc:  14
          CD Gaussian exp screening on grid/accCDfunc:  20
          XC Gaussian exp screening on grid/accXCfunc:  20
          Schwarz screening/accCoul:  1.00D-08


      Superposition of Atomic Density Guess
      -------------------------------------

 Sum of atomic energies:         -94.45314038

      Non-variational initial energy
      ------------------------------

 Total energy =     -94.985824
 1-e energy   =    -192.188596
 2-e energy   =      63.743215
 HOMO         =      -0.273790
 LUMO         =      -0.194576

   Time after variat. SCF:      0.1
   Time prior to 1st pass:      0.1

 Grid_pts file          = ./dft_m05nh2ch3.gridpts.0
 Record size in doubles =  12289        No. of grid_pts per rec  =   3070
 Max. records in memory =     25        Max. recs in file   = 253312716


           Memory utilization after 1st SCF pass: 
           Heap Space remaining (MW):       51.51            51513556
          Stack Space remaining (MW):       86.25            86246348

   convergence    iter        energy       DeltaE   RMS-Dens  Diis-err    time
 ---------------- ----- ----------------- --------- --------- ---------  ------
 d= 0,ls=0.0,diis     1    -95.6576192329 -1.29D+02  3.29D-03  5.87D-02     0.6
                                                     3.38D-03  4.63D-02
 d= 0,ls=0.0,diis     2    -95.6833070784 -2.57D-02  7.50D-04  2.28D-03     1.1
                                                     9.66D-04  4.90D-03
 d= 0,ls=0.0,diis     3    -95.6850638338 -1.76D-03  5.45D-04  1.86D-03     1.6
                                                     3.44D-04  5.22D-04
 d= 0,ls=0.0,diis     4    -95.6856866516 -6.23D-04  1.67D-04  1.07D-04     2.1
                                                     2.21D-04  2.39D-04
 d= 0,ls=0.0,diis     5    -95.6858094564 -1.23D-04  7.99D-05  1.94D-05     2.5
                                                     8.50D-05  1.99D-05
  Resetting Diis
 d= 0,ls=0.0,diis     6    -95.6858260951 -1.66D-05  2.95D-05  3.08D-06     3.0
                                                     2.27D-05  1.45D-06
 d= 0,ls=0.0,diis     7    -95.6858280965 -2.00D-06  1.14D-05  1.66D-07     3.4
                                                     6.52D-06  1.30D-07
 d= 0,ls=0.0,diis     8    -95.6858282733 -1.77D-07  2.23D-06  3.69D-08     3.9
                                                     3.69D-06  7.49D-08


         Total DFT energy =      -95.685828273283
      One electron energy =     -194.159791635277
           Coulomb energy =       79.040360472702
    Exchange-Corr. energy =      -14.025953916400
 Nuclear repulsion energy =       33.459556805692

 Numeric. integr. density =       18.000000024246

     Total iterative time =      3.8s



                    DFT Final Alpha Molecular Orbital Analysis
                    ------------------------------------------

 Vector    1  Occ=1.000000D+00  E=-1.484248D+01
              MO Center=  9.5D-02, -1.4D+00,  4.3D-06, r^2= 2.0D-02
   Bfn.  Coefficient  Atom+Function         Bfn.  Coefficient  Atom+Function  
  ----- ------------  ---------------      ----- ------------  ---------------
    20      0.993328  2 N  s                 21      0.031660  2 N  s          

 Vector    2  Occ=1.000000D+00  E=-1.058910D+01
              MO Center=  1.9D-02,  1.2D+00, -2.2D-05, r^2= 2.8D-02
   Bfn.  Coefficient  Atom+Function         Bfn.  Coefficient  Atom+Function  
  ----- ------------  ---------------      ----- ------------  ---------------
     1      0.993656  1 C  s                  2      0.045262  1 C  s          

 Vector    3  Occ=1.000000D+00  E=-9.603323D-01
              MO Center= -1.2D-01, -1.2D+00,  1.0D-04, r^2= 7.8D-01
   Bfn.  Coefficient  Atom+Function         Bfn.  Coefficient  Atom+Function  
  ----- ------------  ---------------      ----- ------------  ---------------
    25      0.508501  2 N  s                 21      0.440604  2 N  s          
    20     -0.205211  2 N  s                 63      0.162933  7 H  s          
    57      0.111041  6 H  s                 22     -0.106341  2 N  px         
     6      0.078305  1 C  s                 59      0.064994  6 H  s          
    23      0.061191  2 N  py                 2      0.052726  1 C  s          

 Vector    4  Occ=1.000000D+00  E=-8.061161D-01
              MO Center=  5.2D-03,  1.1D+00, -6.7D-05, r^2= 1.3D+00
   Bfn.  Coefficient  Atom+Function         Bfn.  Coefficient  Atom+Function  
  ----- ------------  ---------------      ----- ------------  ---------------
     2      0.385838  1 C  s                  6      0.383618  1 C  s          
     1     -0.198035  1 C  s                 39      0.140790  3 H  s          
    45      0.140789  4 H  s                 51      0.140501  5 H  s          
    25     -0.121817  2 N  s                 21     -0.092937  2 N  s          
    57      0.063733  6 H  s                 63     -0.048487  7 H  s          

 Vector    5  Occ=1.000000D+00  E=-5.466167D-01
              MO Center= -6.1D-02, -6.8D-01, -7.0D-05, r^2= 1.9D+00
   Bfn.  Coefficient  Atom+Function         Bfn.  Coefficient  Atom+Function  
  ----- ------------  ---------------      ----- ------------  ---------------
    23      0.365147  2 N  py                22      0.268158  2 N  px         
    57      0.223895  6 H  s                  4     -0.199076  1 C  py         
    63     -0.191690  7 H  s                 27      0.184789  2 N  py         
    58      0.183250  6 H  s                 64     -0.135250  7 H  s          
    26      0.129563  2 N  px                 8     -0.091049  1 C  py         

 Vector    6  Occ=1.000000D+00  E=-4.969106D-01
              MO Center= -2.2D-01,  1.3D+00,  1.3D-02, r^2= 1.3D+00
   Bfn.  Coefficient  Atom+Function         Bfn.  Coefficient  Atom+Function  
  ----- ------------  ---------------      ----- ------------  ---------------
     5      0.450925  1 C  pz                39      0.238465  3 H  s          
    45     -0.236621  4 H  s                  9      0.209069  1 C  pz         
    40      0.177084  3 H  s                 46     -0.175976  4 H  s          
    24      0.054122  2 N  pz                28      0.037035  2 N  pz         
    16     -0.033350  1 C  dxz        

 Vector    7  Occ=1.000000D+00  E=-4.956214D-01
              MO Center=  2.8D-01,  1.3D+00, -1.3D-02, r^2= 1.3D+00
   Bfn.  Coefficient  Atom+Function         Bfn.  Coefficient  Atom+Function  
  ----- ------------  ---------------      ----- ------------  ---------------
     3      0.446360  1 C  px                51      0.280332  5 H  s          
     7      0.212169  1 C  px                52      0.199243  5 H  s          
    45     -0.128288  4 H  s                 39     -0.126546  3 H  s          
    46     -0.092387  4 H  s                 40     -0.090841  3 H  s          
    23     -0.069395  2 N  py                 4      0.055213  1 C  py         

 Vector    8  Occ=1.000000D+00  E=-4.407790D-01
              MO Center=  1.2D-01, -1.2D+00, -6.0D-04, r^2= 1.6D+00
   Bfn.  Coefficient  Atom+Function         Bfn.  Coefficient  Atom+Function  
  ----- ------------  ---------------      ----- ------------  ---------------
    22      0.444781  2 N  px                25      0.371518  2 N  s          
    26      0.249169  2 N  px                23     -0.220895  2 N  py         
    21      0.196029  2 N  s                 63     -0.182370  7 H  s          
    64     -0.177102  7 H  s                  4      0.162964  1 C  py         
    27     -0.134443  2 N  py                 8      0.096811  1 C  py         

 Vector    9  Occ=1.000000D+00  E=-3.974353D-01
              MO Center=  7.1D-02, -1.4D+00,  3.6D-04, r^2= 8.9D-01
   Bfn.  Coefficient  Atom+Function         Bfn.  Coefficient  Atom+Function  
  ----- ------------  ---------------      ----- ------------  ---------------
    24      0.656400  2 N  pz                28      0.439621  2 N  pz         
    32      0.064350  2 N  pz                 5     -0.053377  1 C  pz         
    35     -0.041708  2 N  dxz               40     -0.037361  3 H  s          
    46      0.035194  4 H  s                 39     -0.031984  3 H  s          
    45      0.030514  4 H  s          

 Vector   10  Occ=1.000000D+00  E=-3.014149D-01
              MO Center=  4.5D-02,  1.5D-01,  9.4D-05, r^2= 2.6D+00
   Bfn.  Coefficient  Atom+Function         Bfn.  Coefficient  Atom+Function  
  ----- ------------  ---------------      ----- ------------  ---------------
     4      0.477824  1 C  py                23      0.438884  2 N  py         
     8      0.363523  1 C  py                27      0.322501  2 N  py         
     6     -0.204826  1 C  s                 25      0.115637  2 N  s          
    12      0.094747  1 C  py                 2     -0.084316  1 C  s          
    59      0.072746  6 H  s                 58     -0.067317  6 H  s          

 Vector   11  Occ=0.000000D+00  E= 2.351888D-02
              MO Center= -9.4D-01,  5.0D-01, -2.2D-03, r^2= 1.3D+01
   Bfn.  Coefficient  Atom+Function         Bfn.  Coefficient  Atom+Function  
  ----- ------------  ---------------      ----- ------------  ---------------
    10      2.502670  1 C  s                 47     -1.140857  4 H  s          
    41     -1.130186  3 H  s                 65     -1.040898  7 H  s          
    53     -0.857985  5 H  s                 59      0.428741  6 H  s          
     6      0.370602  1 C  s                 29      0.280201  2 N  s          
    25      0.223387  2 N  s                 52     -0.197682  5 H  s          

 Vector   12  Occ=0.000000D+00  E= 5.185987D-02
              MO Center= -5.8D-01, -1.8D-01, -3.4D-03, r^2= 1.7D+01
   Bfn.  Coefficient  Atom+Function         Bfn.  Coefficient  Atom+Function  
  ----- ------------  ---------------      ----- ------------  ---------------
    10      2.721589  1 C  s                 65      1.993214  7 H  s          
    53     -1.589240  5 H  s                 29     -1.154199  2 N  s          
    41     -0.836037  3 H  s                 47     -0.777252  4 H  s          
    59     -0.508888  6 H  s                 30      0.342126  2 N  px         
    64      0.291726  7 H  s                 11      0.225137  1 C  px         

 Vector   13  Occ=0.000000D+00  E= 6.639427D-02
              MO Center= -1.2D+00,  1.6D+00,  6.6D-02, r^2= 1.3D+01
   Bfn.  Coefficient  Atom+Function         Bfn.  Coefficient  Atom+Function  
  ----- ------------  ---------------      ----- ------------  ---------------
    47     -3.664062  4 H  s                 41      3.640059  3 H  s          
    13     -1.453986  1 C  pz                 5     -0.148219  1 C  pz         
    32      0.101227  2 N  pz                 9     -0.095242  1 C  pz         
    59      0.064948  6 H  s                 11     -0.057641  1 C  px         
    28     -0.055861  2 N  pz                24     -0.047869  2 N  pz         

 Vector   14  Occ=0.000000D+00  E= 7.241913D-02
              MO Center=  1.1D+00,  1.4D+00, -4.7D-02, r^2= 1.4D+01
   Bfn.  Coefficient  Atom+Function         Bfn.  Coefficient  Atom+Function  
  ----- ------------  ---------------      ----- ------------  ---------------
    53      3.404988  5 H  s                 41     -2.414075  3 H  s          
    47     -2.416658  4 H  s                 59      2.208312  6 H  s          
    11     -1.344687  1 C  px                29     -0.759388  2 N  s          
    12      0.279014  1 C  py                31     -0.153465  2 N  py         
     3     -0.141191  1 C  px                64      0.107142  7 H  s          

 Vector   15  Occ=0.000000D+00  E= 9.508839D-02
              MO Center=  7.7D-01,  3.8D-02, -1.4D-02, r^2= 1.5D+01
   Bfn.  Coefficient  Atom+Function         Bfn.  Coefficient  Atom+Function  
  ----- ------------  ---------------      ----- ------------  ---------------
    59      8.470868  6 H  s                 53     -3.309417  5 H  s          
    65     -3.002017  7 H  s                 29     -1.656986  2 N  s          
    10     -1.566071  1 C  s                 12      0.751115  1 C  py         
    11      0.718131  1 C  px                31     -0.649416  2 N  py         
    30     -0.527082  2 N  px                 6     -0.223524  1 C  s          

 Vector   16  Occ=0.000000D+00  E= 1.262491D-01
              MO Center= -3.6D-01,  7.2D-01,  1.6D-02, r^2= 1.1D+01
   Bfn.  Coefficient  Atom+Function         Bfn.  Coefficient  Atom+Function  
  ----- ------------  ---------------      ----- ------------  ---------------
    59      5.314748  6 H  s                 53     -3.739583  5 H  s          
    12      2.706404  1 C  py                10     -2.287335  1 C  s          
    11      1.806892  1 C  px                58      0.589401  6 H  s          
    47      0.570166  4 H  s                 41      0.527271  3 H  s          
    52     -0.467853  5 H  s                 65     -0.412946  7 H  s          

 Vector   17  Occ=0.000000D+00  E= 1.451789D-01
              MO Center=  5.3D-01,  8.8D-01, -4.3D-02, r^2= 8.9D+00
   Bfn.  Coefficient  Atom+Function         Bfn.  Coefficient  Atom+Function  
  ----- ------------  ---------------      ----- ------------  ---------------
    41      4.151561  3 H  s                 47     -3.937838  4 H  s          
    13     -3.293973  1 C  pz                40      0.664185  3 H  s          
    46     -0.635132  4 H  s                 59     -0.221527  6 H  s          
     9     -0.187260  1 C  pz                28      0.163185  2 N  pz         
    32     -0.137508  2 N  pz                24      0.126754  2 N  pz         

 Vector   18  Occ=0.000000D+00  E= 1.524638D-01
              MO Center= -3.1D-01,  8.9D-01,  5.4D-02, r^2= 1.2D+01
   Bfn.  Coefficient  Atom+Function         Bfn.  Coefficient  Atom+Function  
  ----- ------------  ---------------      ----- ------------  ---------------
    59      6.661447  6 H  s                 47     -3.401658  4 H  s          
    41     -3.122404  3 H  s                 11     -3.081695  1 C  px         
    12      2.310645  1 C  py                53      1.891200  5 H  s          
    65     -1.721966  7 H  s                 52      0.471844  5 H  s          
    46     -0.460054  4 H  s                 40     -0.408363  3 H  s          

 Vector   19  Occ=0.000000D+00  E= 1.752434D-01
              MO Center=  1.9D-01,  1.2D+00,  8.0D-03, r^2= 1.2D+01
   Bfn.  Coefficient  Atom+Function         Bfn.  Coefficient  Atom+Function  
  ----- ------------  ---------------      ----- ------------  ---------------
    10      7.965893  1 C  s                 53     -3.187632  5 H  s          
    41     -1.558854  3 H  s                 47     -1.461309  4 H  s          
    11      0.944873  1 C  px                59     -0.882492  6 H  s          
     6     -0.813836  1 C  s                 29      0.783902  2 N  s          
    58     -0.673179  6 H  s                 30     -0.516326  2 N  px         

 Vector   20  Occ=0.000000D+00  E= 1.798593D-01
              MO Center=  1.9D-01, -1.0D+00, -2.0D-02, r^2= 9.3D+00
   Bfn.  Coefficient  Atom+Function         Bfn.  Coefficient  Atom+Function  
  ----- ------------  ---------------      ----- ------------  ---------------
    13      1.794005  1 C  pz                41     -1.532310  3 H  s          
    47      1.446040  4 H  s                 32     -1.412605  2 N  pz         
    28      0.408057  2 N  pz                24      0.192335  2 N  pz         
    40     -0.166882  3 H  s                 46      0.153260  4 H  s          
    53      0.128974  5 H  s                 10     -0.086607  1 C  s          

 Vector   21  Occ=0.000000D+00  E= 1.985956D-01
              MO Center= -3.0D-01, -1.2D+00, -1.0D-03, r^2= 9.7D+00
   Bfn.  Coefficient  Atom+Function         Bfn.  Coefficient  Atom+Function  
  ----- ------------  ---------------      ----- ------------  ---------------
    10      5.869764  1 C  s                 59     -5.495161  6 H  s          
    12     -2.124448  1 C  py                65      1.769574  7 H  s          
    29     -1.552020  2 N  s                 31     -1.540733  2 N  py         
    30      1.339989  2 N  px                 6     -0.696145  1 C  s          
    53      0.579243  5 H  s                 47     -0.481639  4 H  s          

 Vector   22  Occ=0.000000D+00  E= 2.279214D-01
              MO Center= -4.8D-01, -1.8D+00, -6.0D-03, r^2= 1.0D+01
   Bfn.  Coefficient  Atom+Function         Bfn.  Coefficient  Atom+Function  
  ----- ------------  ---------------      ----- ------------  ---------------
    65      2.529478  7 H  s                 29     -2.259498  2 N  s          
    59      2.155398  6 H  s                 12      1.817334  1 C  py         
    31      1.674958  2 N  py                53     -1.494428  5 H  s          
    47     -1.309011  4 H  s                 41     -1.155259  3 H  s          
    30      1.121441  2 N  px                10      0.840674  1 C  s          

 Vector   23  Occ=0.000000D+00  E= 2.553002D-01
              MO Center=  2.4D-01, -1.1D+00,  2.2D-02, r^2= 6.9D+00
   Bfn.  Coefficient  Atom+Function         Bfn.  Coefficient  Atom+Function  
  ----- ------------  ---------------      ----- ------------  ---------------
    59      8.506599  6 H  s                 65     -2.128327  7 H  s          
    64     -1.981778  7 H  s                 30     -1.923589  2 N  px         
    10     -1.849451  1 C  s                 12      1.740778  1 C  py         
    41     -1.638075  3 H  s                 29     -1.464958  2 N  s          
    25      1.264888  2 N  s                 53     -0.999846  5 H  s          

 Vector   24  Occ=0.000000D+00  E= 2.616889D-01
              MO Center= -6.1D-01,  1.5D+00, -1.0D-02, r^2= 5.4D+00
   Bfn.  Coefficient  Atom+Function         Bfn.  Coefficient  Atom+Function  
  ----- ------------  ---------------      ----- ------------  ---------------
    47     -2.704332  4 H  s                 41      2.464503  3 H  s          
    46      1.655828  4 H  s                 40     -1.626875  3 H  s          
     9      1.514756  1 C  pz                13     -1.284287  1 C  pz         
    59      0.660495  6 H  s                  5      0.356434  1 C  pz         
    32     -0.188323  2 N  pz                65     -0.158147  7 H  s          

 Vector   25  Occ=0.000000D+00  E= 2.633527D-01
              MO Center=  6.0D-01,  1.5D+00, -6.8D-03, r^2= 5.5D+00
   Bfn.  Coefficient  Atom+Function         Bfn.  Coefficient  Atom+Function  
  ----- ------------  ---------------      ----- ------------  ---------------
    53      3.008337  5 H  s                 52     -1.839086  5 H  s          
    41     -1.658927  3 H  s                 47     -1.585795  4 H  s          
     7      1.516967  1 C  px                11     -1.358046  1 C  px         
    40      1.013479  3 H  s                 46      0.964429  4 H  s          
     3      0.352448  1 C  px                59      0.316056  6 H  s          

 Vector   26  Occ=0.000000D+00  E= 3.201648D-01
              MO Center=  2.7D-01, -9.1D-01,  1.3D-03, r^2= 7.2D+00
   Bfn.  Coefficient  Atom+Function         Bfn.  Coefficient  Atom+Function  
  ----- ------------  ---------------      ----- ------------  ---------------
    59      7.643275  6 H  s                 29     -5.852611  2 N  s          
    64      2.189974  7 H  s                 53     -1.918660  5 H  s          
    31     -1.661221  2 N  py                65     -1.466036  7 H  s          
    58      1.152897  6 H  s                 26      0.856525  2 N  px         
    12      0.831944  1 C  py                41     -0.812182  3 H  s          

 Vector   27  Occ=0.000000D+00  E= 3.322471D-01
              MO Center=  6.5D-02,  7.3D-01, -2.8D-03, r^2= 5.0D+00
   Bfn.  Coefficient  Atom+Function         Bfn.  Coefficient  Atom+Function  
  ----- ------------  ---------------      ----- ------------  ---------------
    10      5.351094  1 C  s                 29     -2.492097  2 N  s          
    58      1.971627  6 H  s                 59     -1.951195  6 H  s          
    12     -1.681249  1 C  py                46     -1.354925  4 H  s          
    40     -1.343726  3 H  s                 52     -1.321069  5 H  s          
     8      1.182670  1 C  py                31     -0.949723  2 N  py         

 Vector   28  Occ=0.000000D+00  E= 4.306336D-01
              MO Center=  1.4D-01,  6.2D-01,  1.3D-03, r^2= 5.7D+00
   Bfn.  Coefficient  Atom+Function         Bfn.  Coefficient  Atom+Function  
  ----- ------------  ---------------      ----- ------------  ---------------
    10      8.826442  1 C  s                 59     -3.345853  6 H  s          
    58     -3.106625  6 H  s                  6      2.769539  1 C  s          
    52     -1.921574  5 H  s                 40     -1.769374  3 H  s          
    46     -1.760252  4 H  s                 12     -1.163734  1 C  py         
    53     -1.053326  5 H  s                 25      1.037848  2 N  s          

 Vector   29  Occ=0.000000D+00  E= 7.248867D-01
              MO Center=  2.4D-01,  9.9D-01, -3.4D-03, r^2= 3.6D+00
   Bfn.  Coefficient  Atom+Function         Bfn.  Coefficient  Atom+Function  
  ----- ------------  ---------------      ----- ------------  ---------------
    41      2.075577  3 H  s                 47     -2.065794  4 H  s          
    13     -1.934390  1 C  pz                 9      1.834784  1 C  pz         
     5     -0.841864  1 C  pz                39     -0.325984  3 H  s          
    45      0.326698  4 H  s                 28      0.266368  2 N  pz         
    24     -0.214617  2 N  pz                46      0.167066  4 H  s          

 Vector   30  Occ=0.000000D+00  E= 7.342645D-01
              MO Center= -9.8D-02,  1.0D+00, -2.5D-03, r^2= 3.9D+00
   Bfn.  Coefficient  Atom+Function         Bfn.  Coefficient  Atom+Function  
  ----- ------------  ---------------      ----- ------------  ---------------
    53      2.526724  5 H  s                 10     -1.835120  1 C  s          
    11     -1.773489  1 C  px                 7      1.601448  1 C  px         
     8      1.021487  1 C  py                58      0.811478  6 H  s          
    41     -0.781871  3 H  s                 65     -0.774401  7 H  s          
     3     -0.747104  1 C  px                59      0.738864  6 H  s          

 Vector   31  Occ=0.000000D+00  E= 7.556715D-01
              MO Center= -1.2D-01,  1.5D+00,  5.8D-03, r^2= 3.4D+00
   Bfn.  Coefficient  Atom+Function         Bfn.  Coefficient  Atom+Function  
  ----- ------------  ---------------      ----- ------------  ---------------
    59      3.112641  6 H  s                 10      2.071283  1 C  s          
     8     -1.808741  1 C  py                47     -1.742358  4 H  s          
    41     -1.696328  3 H  s                 58     -1.412299  6 H  s          
    12      1.371415  1 C  py                 7      1.044937  1 C  px         
    11     -1.034848  1 C  px                 4      0.889576  1 C  py         

 Vector   32  Occ=0.000000D+00  E= 9.198170D-01
              MO Center=  9.7D-02, -1.3D+00, -1.4D-03, r^2= 2.8D+00
   Bfn.  Coefficient  Atom+Function         Bfn.  Coefficient  Atom+Function  
  ----- ------------  ---------------      ----- ------------  ---------------
    28      1.447988  2 N  pz                24     -0.966923  2 N  pz         
    32     -0.768150  2 N  pz                 9     -0.563898  1 C  pz         
    13      0.537188  1 C  pz                41     -0.434005  3 H  s          
    47      0.404612  4 H  s                  5      0.248745  1 C  pz         
    40      0.194925  3 H  s                 46     -0.186092  4 H  s          

 Vector   33  Occ=0.000000D+00  E= 9.610707D-01
              MO Center= -2.4D-01, -1.4D+00,  2.1D-03, r^2= 2.8D+00
   Bfn.  Coefficient  Atom+Function         Bfn.  Coefficient  Atom+Function  
  ----- ------------  ---------------      ----- ------------  ---------------
    59      2.098650  6 H  s                 64      1.833614  7 H  s          
    26      1.483622  2 N  px                29     -1.103872  2 N  s          
    53     -1.102013  5 H  s                 25     -0.976067  2 N  s          
    22     -0.790606  2 N  px                27     -0.771209  2 N  py         
    12      0.558470  1 C  py                65     -0.553611  7 H  s          

 Vector   34  Occ=0.000000D+00  E= 9.999708D-01
              MO Center=  4.5D-02, -1.2D+00, -7.5D-03, r^2= 4.0D+00
   Bfn.  Coefficient  Atom+Function         Bfn.  Coefficient  Atom+Function  
  ----- ------------  ---------------      ----- ------------  ---------------
    27      1.472077  2 N  py                65     -1.226897  7 H  s          
    26      1.178965  2 N  px                59      0.980984  6 H  s          
    58     -0.956161  6 H  s                 31     -0.920203  2 N  py         
    30     -0.868100  2 N  px                23     -0.634996  2 N  py         
    52     -0.618487  5 H  s                 22     -0.478443  2 N  px         

 Vector   35  Occ=0.000000D+00  E= 1.012912D+00
              MO Center= -4.0D-01,  1.4D+00,  3.1D-02, r^2= 2.5D+00
   Bfn.  Coefficient  Atom+Function         Bfn.  Coefficient  Atom+Function  
  ----- ------------  ---------------      ----- ------------  ---------------
    40      1.708281  3 H  s                 46     -1.680482  4 H  s          
     9     -1.207783  1 C  pz                39     -0.749458  3 H  s          
    45      0.737439  4 H  s                  5      0.643557  1 C  pz         
    41     -0.553094  3 H  s                 47      0.521391  4 H  s          
    16      0.486689  1 C  dxz               18     -0.226148  1 C  dyz        

 Vector   36  Occ=0.000000D+00  E= 1.020138D+00
              MO Center=  2.6D-01,  5.0D-01, -2.6D-02, r^2= 4.8D+00
   Bfn.  Coefficient  Atom+Function         Bfn.  Coefficient  Atom+Function  
  ----- ------------  ---------------      ----- ------------  ---------------
    52      1.656305  5 H  s                 27      1.094769  2 N  py         
    58     -0.946544  6 H  s                  7     -0.901492  1 C  px         
    46     -0.849774  4 H  s                 40     -0.788425  3 H  s          
    51     -0.734566  5 H  s                 65     -0.696606  7 H  s          
    29      0.573466  2 N  s                 31     -0.541227  2 N  py         

 Vector   37  Occ=0.000000D+00  E= 1.067236D+00
              MO Center= -2.2D-01, -1.1D+00,  2.3D-03, r^2= 3.6D+00
   Bfn.  Coefficient  Atom+Function         Bfn.  Coefficient  Atom+Function  
  ----- ------------  ---------------      ----- ------------  ---------------
    59      4.099664  6 H  s                 64     -1.865113  7 H  s          
    10     -1.654553  1 C  s                 58      1.327460  6 H  s          
    30     -1.248097  2 N  px                65     -1.045827  7 H  s          
    63      1.003132  7 H  s                 12      0.997880  1 C  py         
    52      0.931092  5 H  s                 27     -0.735201  2 N  py         

 Vector   38  Occ=0.000000D+00  E= 1.109898D+00
              MO Center=  1.1D-01, -1.4D-02, -8.5D-04, r^2= 3.0D+00
   Bfn.  Coefficient  Atom+Function         Bfn.  Coefficient  Atom+Function  
  ----- ------------  ---------------      ----- ------------  ---------------
    58      4.019642  6 H  s                 10     -2.664003  1 C  s          
    59      2.582501  6 H  s                 29     -1.918462  2 N  s          
    25     -1.742678  2 N  s                 57     -1.162153  6 H  s          
     6      0.887737  1 C  s                 31     -0.793901  2 N  py         
    64      0.795936  7 H  s                 27     -0.778940  2 N  py         

 Vector   39  Occ=0.000000D+00  E= 1.159191D+00
              MO Center=  3.1D-02,  1.3D+00,  5.4D-04, r^2= 3.2D+00
   Bfn.  Coefficient  Atom+Function         Bfn.  Coefficient  Atom+Function  
  ----- ------------  ---------------      ----- ------------  ---------------
    10      5.037396  1 C  s                  6      3.635621  1 C  s          
    52     -2.176193  5 H  s                 40     -2.126471  3 H  s          
    46     -2.121300  4 H  s                 59     -2.120172  6 H  s          
    58     -1.155182  6 H  s                  2     -1.149177  1 C  s          
    12     -0.940583  1 C  py                51      0.641315  5 H  s          

 Vector   40  Occ=0.000000D+00  E= 1.268480D+00
              MO Center=  1.1D-01, -9.4D-02,  4.7D-04, r^2= 4.1D+00
   Bfn.  Coefficient  Atom+Function         Bfn.  Coefficient  Atom+Function  
  ----- ------------  ---------------      ----- ------------  ---------------
     6      3.819557  1 C  s                 29      3.769535  2 N  s          
    58     -3.336903  6 H  s                 59     -3.237897  6 H  s          
     2     -1.384890  1 C  s                 10     -1.363707  1 C  s          
    25     -1.332370  2 N  s                 21      0.943366  2 N  s          
    31      0.905442  2 N  py                53      0.873725  5 H  s          

 Vector   41  Occ=0.000000D+00  E= 1.382111D+00
              MO Center=  1.8D-01, -5.0D-02,  9.8D-04, r^2= 3.0D+00
   Bfn.  Coefficient  Atom+Function         Bfn.  Coefficient  Atom+Function  
  ----- ------------  ---------------      ----- ------------  ---------------
     6      2.945041  1 C  s                 25      2.703094  2 N  s          
    58     -2.510648  6 H  s                 59      1.754565  6 H  s          
    29     -1.589380  2 N  s                  2     -0.946680  1 C  s          
    21     -0.921652  2 N  s                  8     -0.893578  1 C  py         
    27      0.698058  2 N  py                15      0.581714  1 C  dxy        

 Vector   42  Occ=0.000000D+00  E= 1.428650D+00
              MO Center= -1.0D-02,  7.4D-01,  4.5D-03, r^2= 1.7D+00
   Bfn.  Coefficient  Atom+Function         Bfn.  Coefficient  Atom+Function  
  ----- ------------  ---------------      ----- ------------  ---------------
    18      0.981224  1 C  dyz               37     -0.494445  2 N  dyz        
    16      0.464553  1 C  dxz               62     -0.309969  6 H  pz         
    43      0.214573  3 H  py                49     -0.203669  4 H  py         
    56      0.185963  5 H  pz                35     -0.165250  2 N  dxz        
    41      0.107370  3 H  s                 47     -0.103591  4 H  s          

 Vector   43  Occ=0.000000D+00  E= 1.500318D+00
              MO Center=  1.7D-01,  4.7D-01, -6.3D-03, r^2= 2.6D+00
   Bfn.  Coefficient  Atom+Function         Bfn.  Coefficient  Atom+Function  
  ----- ------------  ---------------      ----- ------------  ---------------
    58     -3.587910  6 H  s                  6      3.507221  1 C  s          
    25      2.756040  2 N  s                  8     -1.078649  1 C  py         
     2     -1.067447  1 C  s                 27      1.053902  2 N  py         
    21     -0.824649  2 N  s                 15     -0.815539  1 C  dxy        
    59      0.687362  6 H  s                 29     -0.562221  2 N  s          

 Vector   44  Occ=0.000000D+00  E= 1.551120D+00
              MO Center= -1.8D-01, -1.1D+00,  3.0D-03, r^2= 1.4D+00
   Bfn.  Coefficient  Atom+Function         Bfn.  Coefficient  Atom+Function  
  ----- ------------  ---------------      ----- ------------  ---------------
    35      1.182389  2 N  dxz               37      0.417414  2 N  dyz        
    68     -0.414148  7 H  pz                18      0.354536  1 C  dyz        
    16      0.140660  1 C  dxz                9     -0.138586  1 C  pz         
    28      0.110700  2 N  pz                43      0.108598  3 H  py         
    49     -0.100765  4 H  py                40      0.099269  3 H  s          

 Vector   45  Occ=0.000000D+00  E= 1.555994D+00
              MO Center= -3.6D-02, -9.3D-01, -3.7D-03, r^2= 2.0D+00
   Bfn.  Coefficient  Atom+Function         Bfn.  Coefficient  Atom+Function  
  ----- ------------  ---------------      ----- ------------  ---------------
     6      1.331756  1 C  s                 25      1.330297  2 N  s          
    58     -1.334425  6 H  s                 34      1.064615  2 N  dxy        
    27      0.652982  2 N  py                29     -0.585723  2 N  s          
    21     -0.454963  2 N  s                 15      0.404480  1 C  dxy        
     8     -0.385289  1 C  py                 2     -0.358739  1 C  s          

 Vector   46  Occ=0.000000D+00  E= 1.631853D+00
              MO Center=  3.8D-02, -8.7D-01,  4.5D-03, r^2= 1.7D+00
   Bfn.  Coefficient  Atom+Function         Bfn.  Coefficient  Atom+Function  
  ----- ------------  ---------------      ----- ------------  ---------------
    37      1.265841  2 N  dyz               35     -0.589975  2 N  dxz        
    18      0.425754  1 C  dyz               62      0.303206  6 H  pz         
     9     -0.254330  1 C  pz                28     -0.162374  2 N  pz         
    43      0.158173  3 H  py                49     -0.150480  4 H  py         
    40      0.147928  3 H  s                 46     -0.142043  4 H  s          

 Vector   47  Occ=0.000000D+00  E= 1.807377D+00
              MO Center=  7.2D-02,  2.8D-01,  1.4D-04, r^2= 2.2D+00
   Bfn.  Coefficient  Atom+Function         Bfn.  Coefficient  Atom+Function  
  ----- ------------  ---------------      ----- ------------  ---------------
    10      1.824921  1 C  s                 17      0.637213  1 C  dyy        
    58      0.603885  6 H  s                 25     -0.596883  2 N  s          
     6     -0.593238  1 C  s                 29     -0.482396  2 N  s          
    27     -0.473164  2 N  py                36     -0.412663  2 N  dyy        
    53     -0.384537  5 H  s                 38      0.380186  2 N  dzz        

 Vector   48  Occ=0.000000D+00  E= 2.068755D+00
              MO Center=  8.3D-02,  7.4D-01, -1.3D-02, r^2= 2.4D+00
   Bfn.  Coefficient  Atom+Function         Bfn.  Coefficient  Atom+Function  
  ----- ------------  ---------------      ----- ------------  ---------------
     7      0.488671  1 C  px                51     -0.475583  5 H  s          
    15      0.366683  1 C  dxy               25     -0.356660  2 N  s          
    10     -0.348619  1 C  s                 14      0.345592  1 C  dxx        
    60      0.344256  6 H  px                53      0.331694  5 H  s          
    54     -0.304355  5 H  px                42     -0.301931  3 H  px         

 Vector   49  Occ=0.000000D+00  E= 2.079746D+00
              MO Center= -1.5D-03,  1.5D+00, -9.9D-04, r^2= 1.4D+00
   Bfn.  Coefficient  Atom+Function         Bfn.  Coefficient  Atom+Function  
  ----- ------------  ---------------      ----- ------------  ---------------
    56      0.573341  5 H  pz                42     -0.514801  3 H  px         
    48      0.490569  4 H  px                50     -0.317258  4 H  pz         
    44     -0.273655  3 H  pz                54      0.025353  5 H  px         

 Vector   50  Occ=0.000000D+00  E= 2.100103D+00
              MO Center= -8.6D-02,  1.2D+00,  1.4D-02, r^2= 1.7D+00
   Bfn.  Coefficient  Atom+Function         Bfn.  Coefficient  Atom+Function  
  ----- ------------  ---------------      ----- ------------  ---------------
    16      0.853714  1 C  dxz                9     -0.736360  1 C  pz         
    39      0.516992  3 H  s                 45     -0.493741  4 H  s          
    13      0.465385  1 C  pz                41     -0.438862  3 H  s          
    47      0.416337  4 H  s                 56      0.376986  5 H  pz         
    37      0.368311  2 N  dyz               18     -0.358821  1 C  dyz        

 Vector   51  Occ=0.000000D+00  E= 2.205399D+00
              MO Center= -1.6D-02,  2.1D-01, -1.5D-02, r^2= 2.7D+00
   Bfn.  Coefficient  Atom+Function         Bfn.  Coefficient  Atom+Function  
  ----- ------------  ---------------      ----- ------------  ---------------
    25      0.840002  2 N  s                 58     -0.784956  6 H  s          
     7      0.692153  1 C  px                59      0.562504  6 H  s          
    11     -0.543118  1 C  px                 6      0.527097  1 C  s          
    60     -0.507528  6 H  px                51     -0.476194  5 H  s          
    27      0.464543  2 N  py                53      0.435180  5 H  s          

 Vector   52  Occ=0.000000D+00  E= 2.266207D+00
              MO Center= -2.4D-01, -1.1D+00, -6.7D-03, r^2= 1.8D+00
   Bfn.  Coefficient  Atom+Function         Bfn.  Coefficient  Atom+Function  
  ----- ------------  ---------------      ----- ------------  ---------------
    58     -1.890872  6 H  s                 25      1.724988  2 N  s          
     6      1.277173  1 C  s                 10      1.012060  1 C  s          
    63     -0.851397  7 H  s                 59     -0.783088  6 H  s          
    38     -0.705101  2 N  dzz               26     -0.620943  2 N  px         
     8     -0.576737  1 C  py                21     -0.558337  2 N  s          

 Vector   53  Occ=0.000000D+00  E= 2.290951D+00
              MO Center= -1.3D-01,  4.8D-01,  3.0D-02, r^2= 2.1D+00
   Bfn.  Coefficient  Atom+Function         Bfn.  Coefficient  Atom+Function  
  ----- ------------  ---------------      ----- ------------  ---------------
    37      0.759992  2 N  dyz               62     -0.614247  6 H  pz         
    18      0.598783  1 C  dyz               16     -0.450768  1 C  dxz        
    43     -0.443192  3 H  py                49      0.415878  4 H  py         
    13     -0.321175  1 C  pz                41      0.308466  3 H  s          
    47     -0.285282  4 H  s                 39     -0.280391  3 H  s          

 Vector   54  Occ=0.000000D+00  E= 2.435009D+00
              MO Center= -3.3D-02, -2.7D-01,  8.7D-04, r^2= 2.7D+00
   Bfn.  Coefficient  Atom+Function         Bfn.  Coefficient  Atom+Function  
  ----- ------------  ---------------      ----- ------------  ---------------
    58      2.321768  6 H  s                  6     -1.999952  1 C  s          
    25     -1.625652  2 N  s                 10     -1.356905  1 C  s          
    27     -1.048921  2 N  py                 8      0.933320  1 C  py         
    36     -0.767853  2 N  dyy               17     -0.662691  1 C  dyy        
    57      0.636172  6 H  s                 40      0.522785  3 H  s          

 Vector   55  Occ=0.000000D+00  E= 2.494198D+00
              MO Center=  9.5D-02,  6.3D-01, -1.6D-02, r^2= 2.7D+00
   Bfn.  Coefficient  Atom+Function         Bfn.  Coefficient  Atom+Function  
  ----- ------------  ---------------      ----- ------------  ---------------
    15      0.894845  1 C  dxy               55     -0.641335  5 H  py         
    58      0.621670  6 H  s                 52      0.505528  5 H  s          
    25     -0.497411  2 N  s                 67      0.493279  7 H  py         
    27     -0.486479  2 N  py                 6     -0.471106  1 C  s          
    10     -0.462493  1 C  s                 34      0.414703  2 N  dxy        

 Vector   56  Occ=0.000000D+00  E= 2.564005D+00
              MO Center= -6.5D-02,  1.4D+00,  3.8D-03, r^2= 1.6D+00
   Bfn.  Coefficient  Atom+Function         Bfn.  Coefficient  Atom+Function  
  ----- ------------  ---------------      ----- ------------  ---------------
    58      1.319956  6 H  s                  8      1.008232  1 C  py         
     6     -0.884892  1 C  s                 43     -0.645144  3 H  py         
    49     -0.645108  4 H  py                25     -0.619850  2 N  s          
    59     -0.561554  6 H  s                 55     -0.549945  5 H  py         
    12     -0.365534  1 C  py                 2      0.333021  1 C  s          

 Vector   57  Occ=0.000000D+00  E= 2.569536D+00
              MO Center= -5.4D-01, -1.3D+00, -2.1D-03, r^2= 1.3D+00
   Bfn.  Coefficient  Atom+Function         Bfn.  Coefficient  Atom+Function  
  ----- ------------  ---------------      ----- ------------  ---------------
    35      1.227879  2 N  dxz               68      0.963332  7 H  pz         
    37      0.276609  2 N  dyz               28     -0.257322  2 N  pz         
    18     -0.250528  1 C  dyz                9      0.182823  1 C  pz         
    49     -0.137353  4 H  py                43      0.129048  3 H  py         
    62     -0.126467  6 H  pz                56     -0.113733  5 H  pz         

 Vector   58  Occ=0.000000D+00  E= 2.638393D+00
              MO Center=  1.1D-02,  3.9D-01, -3.1D-03, r^2= 2.1D+00
   Bfn.  Coefficient  Atom+Function         Bfn.  Coefficient  Atom+Function  
  ----- ------------  ---------------      ----- ------------  ---------------
    62      0.712532  6 H  pz                18      0.699904  1 C  dyz        
     9     -0.577568  1 C  pz                37     -0.552083  2 N  dyz        
    40      0.408053  3 H  s                 56      0.395429  5 H  pz         
    46     -0.389377  4 H  s                 43     -0.345701  3 H  py         
    35      0.333111  2 N  dxz               49      0.332537  4 H  py         

 Vector   59  Occ=0.000000D+00  E= 2.799609D+00
              MO Center= -3.3D-01,  8.8D-02,  2.1D-02, r^2= 2.8D+00
   Bfn.  Coefficient  Atom+Function         Bfn.  Coefficient  Atom+Function  
  ----- ------------  ---------------      ----- ------------  ---------------
    34      0.952154  2 N  dxy               67      0.578013  7 H  py         
     7      0.525051  1 C  px                60     -0.465870  6 H  px         
    10     -0.455185  1 C  s                 58      0.452401  6 H  s          
    42     -0.402395  3 H  px                19      0.393399  1 C  dzz        
    27     -0.390148  2 N  py                50      0.387329  4 H  pz         

 Vector   60  Occ=0.000000D+00  E= 2.847780D+00
              MO Center=  1.5D-01,  1.3D+00, -1.6D-02, r^2= 1.4D+00
   Bfn.  Coefficient  Atom+Function         Bfn.  Coefficient  Atom+Function  
  ----- ------------  ---------------      ----- ------------  ---------------
    18      1.033635  1 C  dyz               16      0.828968  1 C  dxz        
    56     -0.703278  5 H  pz                48      0.442375  4 H  px         
     9      0.421812  1 C  pz                42     -0.406871  3 H  px         
    40     -0.371357  3 H  s                 46      0.352671  4 H  s          
    43     -0.326464  3 H  py                49      0.317152  4 H  py         

 Vector   61  Occ=0.000000D+00  E= 2.877804D+00
              MO Center= -5.8D-02,  4.9D-01,  1.4D-03, r^2= 2.5D+00
   Bfn.  Coefficient  Atom+Function         Bfn.  Coefficient  Atom+Function  
  ----- ------------  ---------------      ----- ------------  ---------------
    15      0.937000  1 C  dxy               34     -0.801253  2 N  dxy        
    58     -0.669177  6 H  s                 10      0.561974  1 C  s          
     6      0.530935  1 C  s                 59     -0.516810  6 H  s          
    60      0.471699  6 H  px                14     -0.407683  1 C  dxx        
    52     -0.404048  5 H  s                 67     -0.402095  7 H  py         

 Vector   62  Occ=0.000000D+00  E= 3.159289D+00
              MO Center= -9.6D-02,  2.5D-01,  4.6D-04, r^2= 2.7D+00
   Bfn.  Coefficient  Atom+Function         Bfn.  Coefficient  Atom+Function  
  ----- ------------  ---------------      ----- ------------  ---------------
    25      1.679634  2 N  s                  2     -0.861927  1 C  s          
    58     -0.817615  6 H  s                  6     -0.773067  1 C  s          
    38     -0.688682  2 N  dzz               61      0.689486  6 H  py         
    10     -0.671543  1 C  s                 27      0.646580  2 N  py         
    52      0.544593  5 H  s                 46      0.525099  4 H  s          

 Vector   63  Occ=0.000000D+00  E= 3.317795D+00
              MO Center= -3.4D-01, -3.5D-01, -8.2D-04, r^2= 3.1D+00
   Bfn.  Coefficient  Atom+Function         Bfn.  Coefficient  Atom+Function  
  ----- ------------  ---------------      ----- ------------  ---------------
    25      1.764767  2 N  s                 10      1.152987  1 C  s          
     6      1.026452  1 C  s                 66     -0.965230  7 H  px         
    38     -0.762713  2 N  dzz               64     -0.759232  7 H  s          
    63     -0.708399  7 H  s                 26     -0.654886  2 N  px         
    36     -0.606169  2 N  dyy               59     -0.570785  6 H  s          

 Vector   64  Occ=0.000000D+00  E= 3.461712D+00
              MO Center= -2.7D-01,  1.3D+00,  7.3D-03, r^2= 1.2D+00
   Bfn.  Coefficient  Atom+Function         Bfn.  Coefficient  Atom+Function  
  ----- ------------  ---------------      ----- ------------  ---------------
    16      1.964464  1 C  dxz                5     -0.941585  1 C  pz         
    44     -0.869672  3 H  pz                50     -0.840754  4 H  pz         
    18     -0.725602  1 C  dyz               45     -0.715383  4 H  s          
    39      0.707763  3 H  s                  9     -0.608411  1 C  pz         
    48     -0.470089  4 H  px                40      0.457317  3 H  s          

 Vector   65  Occ=0.000000D+00  E= 3.465634D+00
              MO Center=  3.3D-01,  1.3D+00, -7.1D-03, r^2= 1.2D+00
   Bfn.  Coefficient  Atom+Function         Bfn.  Coefficient  Atom+Function  
  ----- ------------  ---------------      ----- ------------  ---------------
    54      1.110983  5 H  px                14      0.962339  1 C  dxx        
     3      0.938369  1 C  px                19     -0.942107  1 C  dzz        
    15      0.860795  1 C  dxy               51     -0.836683  5 H  s          
     7      0.616868  1 C  px                52     -0.559699  5 H  s          
    53      0.488370  5 H  s                 44     -0.423306  3 H  pz         

 Vector   66  Occ=0.000000D+00  E= 3.539684D+00
              MO Center= -4.4D-02, -4.1D-01,  1.6D-04, r^2= 2.2D+00
   Bfn.  Coefficient  Atom+Function         Bfn.  Coefficient  Atom+Function  
  ----- ------------  ---------------      ----- ------------  ---------------
    33      1.086119  2 N  dxx               61     -0.990640  6 H  py         
    66     -0.821854  7 H  px                27     -0.741091  2 N  py         
    63     -0.701789  7 H  s                 36     -0.669105  2 N  dyy        
    10     -0.643408  1 C  s                 58      0.584259  6 H  s          
    19     -0.559804  1 C  dzz               25     -0.528585  2 N  s          

 Vector   67  Occ=0.000000D+00  E= 4.010692D+00
              MO Center=  1.7D-01, -1.3D+00,  2.5D-04, r^2= 1.6D+00
   Bfn.  Coefficient  Atom+Function         Bfn.  Coefficient  Atom+Function  
  ----- ------------  ---------------      ----- ------------  ---------------
    25      3.664851  2 N  s                 59      2.097777  6 H  s          
    29     -1.930237  2 N  s                 33     -1.884535  2 N  dxx        
    36     -1.565331  2 N  dyy               38     -1.359989  2 N  dzz        
    58     -1.358273  6 H  s                  6      0.953562  1 C  s          
    21      0.786442  2 N  s                  8     -0.594391  1 C  py         

 Vector   68  Occ=0.000000D+00  E= 4.524525D+00
              MO Center=  2.8D-02,  1.1D+00,  9.7D-05, r^2= 9.6D-01
   Bfn.  Coefficient  Atom+Function         Bfn.  Coefficient  Atom+Function  
  ----- ------------  ---------------      ----- ------------  ---------------
     6      2.963862  1 C  s                  2      2.613309  1 C  s          
    14     -2.138251  1 C  dxx               19     -2.142575  1 C  dzz        
    17     -1.802095  1 C  dyy               58     -1.628977  6 H  s          
    25      0.754392  2 N  s                 27      0.522139  2 N  py         
     1     -0.496940  1 C  s                  8     -0.455461  1 C  py         


                     DFT Final Beta Molecular Orbital Analysis
                     -----------------------------------------

 Vector    1  Occ=1.000000D+00  E=-1.481816D+01
              MO Center=  9.5D-02, -1.4D+00,  4.3D-06, r^2= 2.0D-02
   Bfn.  Coefficient  Atom+Function         Bfn.  Coefficient  Atom+Function  
  ----- ------------  ---------------      ----- ------------  ---------------
    20      0.993843  2 N  s                 21      0.029801  2 N  s          

 Vector    2  Occ=1.000000D+00  E=-1.058067D+01
              MO Center=  1.9D-02,  1.2D+00, -2.2D-05, r^2= 2.8D-02
   Bfn.  Coefficient  Atom+Function         Bfn.  Coefficient  Atom+Function  
  ----- ------------  ---------------      ----- ------------  ---------------
     1      0.993798  1 C  s                  2      0.044578  1 C  s          

 Vector    3  Occ=1.000000D+00  E=-8.740138D-01
              MO Center= -1.6D-01, -1.1D+00,  1.0D-04, r^2= 1.1D+00
   Bfn.  Coefficient  Atom+Function         Bfn.  Coefficient  Atom+Function  
  ----- ------------  ---------------      ----- ------------  ---------------
    25      0.436473  2 N  s                 21      0.387249  2 N  s          
    63      0.191700  7 H  s                 20     -0.186472  2 N  s          
    57      0.132419  6 H  s                 22     -0.109520  2 N  px         
     6      0.106315  1 C  s                  2      0.092595  1 C  s          
     1     -0.052200  1 C  s                 26     -0.046971  2 N  px         

 Vector    4  Occ=1.000000D+00  E=-7.739860D-01
              MO Center= -1.6D-02,  1.0D+00, -1.8D-04, r^2= 1.7D+00
   Bfn.  Coefficient  Atom+Function         Bfn.  Coefficient  Atom+Function  
  ----- ------------  ---------------      ----- ------------  ---------------
     2      0.355194  1 C  s                  6      0.345390  1 C  s          
     1     -0.187492  1 C  s                 25     -0.150986  2 N  s          
    39      0.147440  3 H  s                 45      0.147479  4 H  s          
    51      0.147405  5 H  s                 21     -0.128700  2 N  s          
    63     -0.080987  7 H  s                 20      0.060614  2 N  s          

 Vector    5  Occ=1.000000D+00  E=-4.983075D-01
              MO Center= -3.4D-02, -1.5D-01, -1.1D-02, r^2= 2.5D+00
   Bfn.  Coefficient  Atom+Function         Bfn.  Coefficient  Atom+Function  
  ----- ------------  ---------------      ----- ------------  ---------------
    22      0.285060  2 N  px                 3      0.249026  1 C  px         
    58      0.209114  6 H  s                 57      0.196950  6 H  s          
    63     -0.195491  7 H  s                 23      0.192685  2 N  py         
    64     -0.159641  7 H  s                 26      0.143580  2 N  px         
    45     -0.123074  4 H  s                  7      0.116345  1 C  px         

 Vector    6  Occ=1.000000D+00  E=-4.880253D-01
              MO Center= -2.4D-01,  1.3D+00,  3.1D-02, r^2= 1.2D+00
   Bfn.  Coefficient  Atom+Function         Bfn.  Coefficient  Atom+Function  
  ----- ------------  ---------------      ----- ------------  ---------------
     5      0.439452  1 C  pz                39      0.249981  3 H  s          
    45     -0.238643  4 H  s                  9      0.198892  1 C  pz         
    40      0.195580  3 H  s                 46     -0.187207  4 H  s          
    16     -0.039681  1 C  dxz               13      0.025622  1 C  pz         

 Vector    7  Occ=1.000000D+00  E=-4.825665D-01
              MO Center=  2.6D-01,  6.8D-01, -2.0D-02, r^2= 2.3D+00
   Bfn.  Coefficient  Atom+Function         Bfn.  Coefficient  Atom+Function  
  ----- ------------  ---------------      ----- ------------  ---------------
     3      0.362491  1 C  px                51      0.263912  5 H  s          
    52      0.199825  5 H  s                 22     -0.184793  2 N  px         
     7      0.166872  1 C  px                58     -0.151083  6 H  s          
    23     -0.146522  2 N  py                57     -0.138436  6 H  s          
    63      0.133971  7 H  s                 64      0.113737  7 H  s          

 Vector    8  Occ=1.000000D+00  E=-3.725185D-01
              MO Center=  1.7D-01, -1.0D+00, -1.1D-06, r^2= 1.9D+00
   Bfn.  Coefficient  Atom+Function         Bfn.  Coefficient  Atom+Function  
  ----- ------------  ---------------      ----- ------------  ---------------
    25      0.422686  2 N  s                 22      0.349518  2 N  px         
    23     -0.237978  2 N  py                58     -0.233513  6 H  s          
    21      0.216862  2 N  s                 26      0.212947  2 N  px         
     4      0.181491  1 C  py                57     -0.178755  6 H  s          
    64     -0.147386  7 H  s                 27     -0.138968  2 N  py         

 Vector    9  Occ=0.000000D+00  E=-5.476541D-02
              MO Center=  8.0D-02, -1.4D+00, -1.7D-03, r^2= 1.7D+00
   Bfn.  Coefficient  Atom+Function         Bfn.  Coefficient  Atom+Function  
  ----- ------------  ---------------      ----- ------------  ---------------
    24      0.468867  2 N  pz                28      0.434709  2 N  pz         
    32      0.334638  2 N  pz                40     -0.072207  3 H  s          
    46      0.068186  4 H  s                  5     -0.037627  1 C  pz         
     9      0.029783  1 C  pz                39     -0.028892  3 H  s          
    35     -0.028744  2 N  dxz               45      0.027896  4 H  s          

 Vector   10  Occ=0.000000D+00  E=-5.074347D-02
              MO Center=  3.4D-02,  1.3D-01,  1.5D-03, r^2= 3.7D+00
   Bfn.  Coefficient  Atom+Function         Bfn.  Coefficient  Atom+Function  
  ----- ------------  ---------------      ----- ------------  ---------------
     8      0.415599  1 C  py                23      0.389193  2 N  py         
     4      0.379041  1 C  py                12      0.363125  1 C  py         
    59      0.349344  6 H  s                 27      0.320382  2 N  py         
     6     -0.301878  1 C  s                 31      0.186276  2 N  py         
    10     -0.170930  1 C  s                 25      0.156984  2 N  s          

 Vector   11  Occ=0.000000D+00  E= 3.623689D-02
              MO Center= -9.0D-01,  5.5D-01, -5.7D-03, r^2= 1.2D+01
   Bfn.  Coefficient  Atom+Function         Bfn.  Coefficient  Atom+Function  
  ----- ------------  ---------------      ----- ------------  ---------------
    10      1.852215  1 C  s                 47     -1.101901  4 H  s          
    41     -1.073262  3 H  s                 59      1.067616  6 H  s          
    53     -1.031078  5 H  s                 65     -1.022108  7 H  s          
     6      0.431362  1 C  s                 12      0.398054  1 C  py         
    29      0.247944  2 N  s                 25      0.230310  2 N  s          

 Vector   12  Occ=0.000000D+00  E= 7.166928D-02
              MO Center=  1.8D-01, -2.0D-01, -2.1D-02, r^2= 1.6D+01
   Bfn.  Coefficient  Atom+Function         Bfn.  Coefficient  Atom+Function  
  ----- ------------  ---------------      ----- ------------  ---------------
    10      2.367123  1 C  s                 65      2.223933  7 H  s          
    59     -2.035755  6 H  s                 53     -2.017560  5 H  s          
    29     -0.490916  2 N  s                 11      0.419120  1 C  px         
    30      0.401170  2 N  px                31      0.256554  2 N  py         
    64      0.244680  7 H  s                  6      0.174065  1 C  s          

 Vector   13  Occ=0.000000D+00  E= 8.007184D-02
              MO Center= -1.2D+00,  1.8D+00,  1.0D-01, r^2= 1.2D+01
   Bfn.  Coefficient  Atom+Function         Bfn.  Coefficient  Atom+Function  
  ----- ------------  ---------------      ----- ------------  ---------------
    41      3.684608  3 H  s                 47     -3.584471  4 H  s          
    13     -1.414156  1 C  pz                53     -0.160540  5 H  s          
     5     -0.151171  1 C  pz                 9     -0.129801  1 C  pz         
    59     -0.114773  6 H  s                 65      0.110350  7 H  s          
    10      0.098103  1 C  s                 46     -0.078273  4 H  s          

 Vector   14  Occ=0.000000D+00  E= 8.534543D-02
              MO Center=  3.9D-02,  9.6D-01, -6.0D-02, r^2= 1.6D+01
   Bfn.  Coefficient  Atom+Function         Bfn.  Coefficient  Atom+Function  
  ----- ------------  ---------------      ----- ------------  ---------------
    53      2.843439  5 H  s                 47     -2.660691  4 H  s          
    41     -2.517933  3 H  s                 59      1.584141  6 H  s          
    11     -1.273544  1 C  px                29     -0.901129  2 N  s          
    65      0.807310  7 H  s                 10      0.756885  1 C  s          
    12      0.415944  1 C  py                64      0.223596  7 H  s          

 Vector   15  Occ=0.000000D+00  E= 1.173353D-01
              MO Center=  9.9D-01,  2.9D-01, -2.9D-03, r^2= 1.4D+01
   Bfn.  Coefficient  Atom+Function         Bfn.  Coefficient  Atom+Function  
  ----- ------------  ---------------      ----- ------------  ---------------
    59      7.890414  6 H  s                 53     -3.353033  5 H  s          
    65     -2.566018  7 H  s                 29     -1.450569  2 N  s          
    10     -1.063924  1 C  s                 12      0.788622  1 C  py         
    11      0.705534  1 C  px                31     -0.503122  2 N  py         
    30     -0.395898  2 N  px                41     -0.193522  3 H  s          

 Vector   16  Occ=0.000000D+00  E= 1.367757D-01
              MO Center= -2.9D-01,  7.4D-01,  1.7D-02, r^2= 1.1D+01
   Bfn.  Coefficient  Atom+Function         Bfn.  Coefficient  Atom+Function  
  ----- ------------  ---------------      ----- ------------  ---------------
    53      4.121593  5 H  s                 59     -3.551103  6 H  s          
    12     -2.197397  1 C  py                11     -2.083403  1 C  px         
    47     -0.703005  4 H  s                 41     -0.590997  3 H  s          
    52      0.587862  5 H  s                 58     -0.531955  6 H  s          
    10      0.345094  1 C  s                 25      0.306495  2 N  s          

 Vector   17  Occ=0.000000D+00  E= 1.532875D-01
              MO Center=  6.3D-01,  1.1D+00, -5.2D-02, r^2= 8.8D+00
   Bfn.  Coefficient  Atom+Function         Bfn.  Coefficient  Atom+Function  
  ----- ------------  ---------------      ----- ------------  ---------------
    41      4.227648  3 H  s                 47     -4.236183  4 H  s          
    13     -3.627106  1 C  pz                40      0.678024  3 H  s          
    46     -0.676077  4 H  s                 32      0.270546  2 N  pz         
     9     -0.182003  1 C  pz                11     -0.119835  1 C  px         
    24      0.111061  2 N  pz                28      0.106198  2 N  pz         

 Vector   18  Occ=0.000000D+00  E= 1.567962D-01
              MO Center= -4.9D-01,  9.1D-01,  2.8D-02, r^2= 1.2D+01
   Bfn.  Coefficient  Atom+Function         Bfn.  Coefficient  Atom+Function  
  ----- ------------  ---------------      ----- ------------  ---------------
    59      5.936351  6 H  s                 41     -3.347969  3 H  s          
    47     -3.302856  4 H  s                 11     -2.953441  1 C  px         
    12      2.070687  1 C  py                65     -1.681008  7 H  s          
    53      1.600128  5 H  s                 10      1.122254  1 C  s          
    40     -0.446755  3 H  s                 46     -0.447687  4 H  s          

 Vector   19  Occ=0.000000D+00  E= 1.790917D-01
              MO Center=  1.9D-01,  6.1D-01,  1.8D-02, r^2= 1.3D+01
   Bfn.  Coefficient  Atom+Function         Bfn.  Coefficient  Atom+Function  
  ----- ------------  ---------------      ----- ------------  ---------------
    10      7.483200  1 C  s                 53     -2.645754  5 H  s          
    59     -1.544444  6 H  s                 41     -1.442996  3 H  s          
    47     -1.305562  4 H  s                 29      1.291275  2 N  s          
    58     -0.937343  6 H  s                 11      0.854067  1 C  px         
    30     -0.755652  2 N  px                 6     -0.705686  1 C  s          

 Vector   20  Occ=0.000000D+00  E= 2.117966D-01
              MO Center= -3.0D-01, -5.9D-01,  3.0D-03, r^2= 1.2D+01
   Bfn.  Coefficient  Atom+Function         Bfn.  Coefficient  Atom+Function  
  ----- ------------  ---------------      ----- ------------  ---------------
    10      7.163305  1 C  s                 59     -5.608842  6 H  s          
    29     -2.362835  2 N  s                 65      2.223848  7 H  s          
    12     -2.185129  1 C  py                30      1.440571  2 N  px         
    31     -1.408044  2 N  py                 6     -0.845093  1 C  s          
    47     -0.614353  4 H  s                 25      0.495552  2 N  s          

 Vector   21  Occ=0.000000D+00  E= 2.215226D-01
              MO Center=  9.2D-02, -1.4D+00, -6.2D-03, r^2= 6.8D+00
   Bfn.  Coefficient  Atom+Function         Bfn.  Coefficient  Atom+Function  
  ----- ------------  ---------------      ----- ------------  ---------------
    32      1.363325  2 N  pz                13     -0.925800  1 C  pz         
    41      0.640057  3 H  s                 28     -0.591423  2 N  pz         
    47     -0.580274  4 H  s                 24     -0.348917  2 N  pz         
    59     -0.097489  6 H  s                 10      0.076855  1 C  s          
     9      0.067935  1 C  pz                12     -0.057393  1 C  py         

 Vector   22  Occ=0.000000D+00  E= 2.281362D-01
              MO Center= -2.3D-01, -1.7D+00, -8.6D-03, r^2= 1.0D+01
   Bfn.  Coefficient  Atom+Function         Bfn.  Coefficient  Atom+Function  
  ----- ------------  ---------------      ----- ------------  ---------------
    65      2.374194  7 H  s                 59      2.360568  6 H  s          
    29     -2.124896  2 N  s                 12      2.027676  1 C  py         
    31      1.827017  2 N  py                53     -1.624158  5 H  s          
    30      1.196295  2 N  px                47     -1.135112  4 H  s          
    41     -0.913970  3 H  s                 64      0.653606  7 H  s          

 Vector   23  Occ=0.000000D+00  E= 2.733229D-01
              MO Center= -6.1D-01,  1.4D+00,  9.6D-02, r^2= 5.7D+00
   Bfn.  Coefficient  Atom+Function         Bfn.  Coefficient  Atom+Function  
  ----- ------------  ---------------      ----- ------------  ---------------
    41      2.912028  3 H  s                 47     -2.431283  4 H  s          
    40     -1.672479  3 H  s                 46      1.619565  4 H  s          
     9      1.534855  1 C  pz                13     -1.344615  1 C  pz         
    59     -1.225411  6 H  s                  5      0.345008  1 C  pz         
    29      0.313276  2 N  s                 12     -0.272560  1 C  py         

 Vector   24  Occ=0.000000D+00  E= 2.750019D-01
              MO Center=  5.3D-01,  9.5D-01, -1.1D-01, r^2= 7.8D+00
   Bfn.  Coefficient  Atom+Function         Bfn.  Coefficient  Atom+Function  
  ----- ------------  ---------------      ----- ------------  ---------------
    59      4.347747  6 H  s                 47     -2.291279  4 H  s          
    53      2.133873  5 H  s                 41     -1.934675  3 H  s          
    29     -1.637168  2 N  s                 52     -1.601652  5 H  s          
     7      1.361030  1 C  px                11     -1.298299  1 C  px         
    46      1.022170  4 H  s                 12      0.840527  1 C  py         

 Vector   25  Occ=0.000000D+00  E= 2.775547D-01
              MO Center=  4.4D-01, -5.0D-01,  2.3D-02, r^2= 8.4D+00
   Bfn.  Coefficient  Atom+Function         Bfn.  Coefficient  Atom+Function  
  ----- ------------  ---------------      ----- ------------  ---------------
    59      9.266948  6 H  s                 53     -2.746468  5 H  s          
    29     -2.423074  2 N  s                 12      1.971681  1 C  py         
    10     -1.869538  1 C  s                 65     -1.828593  7 H  s          
    30     -1.517572  2 N  px                64     -1.467147  7 H  s          
    25      1.217975  2 N  s                 52      0.993066  5 H  s          

 Vector   26  Occ=0.000000D+00  E= 3.172318D-01
              MO Center=  1.9D-03, -9.8D-01, -3.3D-03, r^2= 7.3D+00
[...]
    56      0.576432  5 H  pz                42     -0.513605  3 H  px         
    48      0.491253  4 H  px                50     -0.314647  4 H  pz         
    44     -0.270989  3 H  pz                54      0.026336  5 H  px         

 Vector   50  Occ=0.000000D+00  E= 2.114671D+00
              MO Center= -8.9D-02,  1.2D+00,  1.3D-02, r^2= 1.7D+00
   Bfn.  Coefficient  Atom+Function         Bfn.  Coefficient  Atom+Function  
  ----- ------------  ---------------      ----- ------------  ---------------
    16      0.841400  1 C  dxz                9     -0.750930  1 C  pz         
    39      0.509552  3 H  s                 45     -0.487665  4 H  s          
    13      0.472609  1 C  pz                41     -0.447378  3 H  s          
    47      0.425912  4 H  s                 37      0.385124  2 N  dyz        
    56      0.375261  5 H  pz                44      0.361836  3 H  pz         

 Vector   51  Occ=0.000000D+00  E= 2.214007D+00
              MO Center= -7.1D-04,  3.2D-01, -1.6D-02, r^2= 2.5D+00
   Bfn.  Coefficient  Atom+Function         Bfn.  Coefficient  Atom+Function  
  ----- ------------  ---------------      ----- ------------  ---------------
    59      0.711216  6 H  s                  7      0.672993  1 C  px         
    60     -0.575889  6 H  px                11     -0.566073  1 C  px         
    53      0.493071  5 H  s                 51     -0.478790  5 H  s          
    15      0.432344  1 C  dxy               25      0.409510  2 N  s          
    47     -0.408078  4 H  s                 67     -0.391136  7 H  py         

 Vector   52  Occ=0.000000D+00  E= 2.303636D+00
              MO Center= -1.3D-01,  3.9D-01,  1.9D-02, r^2= 2.2D+00
   Bfn.  Coefficient  Atom+Function         Bfn.  Coefficient  Atom+Function  
  ----- ------------  ---------------      ----- ------------  ---------------
    37      0.829493  2 N  dyz               18      0.592830  1 C  dyz        
    62     -0.589868  6 H  pz                43     -0.433923  3 H  py         
    16     -0.423477  1 C  dxz               49      0.418168  4 H  py         
    13     -0.305095  1 C  pz                41      0.297343  3 H  s          
    47     -0.261632  4 H  s                 39     -0.258878  3 H  s          

 Vector   53  Occ=0.000000D+00  E= 2.308920D+00
              MO Center= -2.8D-01, -1.2D+00,  5.8D-03, r^2= 1.5D+00
   Bfn.  Coefficient  Atom+Function         Bfn.  Coefficient  Atom+Function  
  ----- ------------  ---------------      ----- ------------  ---------------
    58     -1.760019  6 H  s                 25      1.648801  2 N  s          
     6      1.162395  1 C  s                 10      0.910195  1 C  s          
    63     -0.861138  7 H  s                 38     -0.758587  2 N  dzz        
    59     -0.683909  6 H  s                 26     -0.586937  2 N  px         
    21     -0.562644  2 N  s                 33      0.529259  2 N  dxx        

 Vector   54  Occ=0.000000D+00  E= 2.463622D+00
              MO Center= -4.7D-02, -2.2D-01,  1.0D-03, r^2= 2.7D+00
   Bfn.  Coefficient  Atom+Function         Bfn.  Coefficient  Atom+Function  
  ----- ------------  ---------------      ----- ------------  ---------------
    58      2.471254  6 H  s                  6     -2.070954  1 C  s          
    25     -1.712037  2 N  s                 10     -1.432370  1 C  s          
    27     -1.042852  2 N  py                 8      1.002172  1 C  py         
    36     -0.753790  2 N  dyy               17     -0.653132  1 C  dyy        
    57      0.600549  6 H  s                 40      0.543538  3 H  s          

 Vector   55  Occ=0.000000D+00  E= 2.505441D+00
              MO Center=  1.2D-01,  6.7D-01, -1.5D-02, r^2= 2.7D+00
   Bfn.  Coefficient  Atom+Function         Bfn.  Coefficient  Atom+Function  
  ----- ------------  ---------------      ----- ------------  ---------------
    15      0.896794  1 C  dxy               58      0.797049  6 H  s          
    55     -0.648621  5 H  py                25     -0.610226  2 N  s          
     6     -0.606036  1 C  s                 10     -0.554403  1 C  s          
    27     -0.542711  2 N  py                52      0.542661  5 H  s          
    67      0.466908  7 H  py                 7     -0.425390  1 C  px         

 Vector   56  Occ=0.000000D+00  E= 2.577150D+00
              MO Center= -7.0D-02,  1.5D+00,  1.4D-03, r^2= 1.5D+00
   Bfn.  Coefficient  Atom+Function         Bfn.  Coefficient  Atom+Function  
  ----- ------------  ---------------      ----- ------------  ---------------
    58      1.123454  6 H  s                  8      0.930353  1 C  py         
     6     -0.730059  1 C  s                 43     -0.638555  3 H  py         
    49     -0.641706  4 H  py                59     -0.553687  6 H  s          
    55     -0.535443  5 H  py                25     -0.478012  2 N  s          
    12     -0.363983  1 C  py                17      0.309872  1 C  dyy        

 Vector   57  Occ=0.000000D+00  E= 2.600184D+00
              MO Center= -4.7D-01, -1.2D+00, -3.6D-04, r^2= 1.6D+00
   Bfn.  Coefficient  Atom+Function         Bfn.  Coefficient  Atom+Function  
  ----- ------------  ---------------      ----- ------------  ---------------
    35      1.205474  2 N  dxz               68      0.914800  7 H  pz         
    37      0.359094  2 N  dyz               18     -0.321723  1 C  dyz        
     9      0.247487  1 C  pz                28     -0.221107  2 N  pz         
    62     -0.210134  6 H  pz                43      0.167255  3 H  py         
    49     -0.162575  4 H  py                56     -0.161621  5 H  pz         

 Vector   58  Occ=0.000000D+00  E= 2.646723D+00
              MO Center= -2.9D-02,  2.3D-01, -3.8D-03, r^2= 2.3D+00
   Bfn.  Coefficient  Atom+Function         Bfn.  Coefficient  Atom+Function  
  ----- ------------  ---------------      ----- ------------  ---------------
    62      0.678452  6 H  pz                18      0.652718  1 C  dyz        
     9     -0.552417  1 C  pz                37     -0.545652  2 N  dyz        
    35      0.487271  2 N  dxz               40      0.397460  3 H  s          
    56      0.392037  5 H  pz                68      0.393810  7 H  pz         
    46     -0.379084  4 H  s                 16     -0.335476  1 C  dxz        

 Vector   59  Occ=0.000000D+00  E= 2.807803D+00
              MO Center= -3.4D-01,  6.5D-02,  2.0D-02, r^2= 2.9D+00
   Bfn.  Coefficient  Atom+Function         Bfn.  Coefficient  Atom+Function  
  ----- ------------  ---------------      ----- ------------  ---------------
    34      0.968223  2 N  dxy               67      0.589737  7 H  py         
     7      0.512818  1 C  px                10     -0.463498  1 C  s          
    58      0.446002  6 H  s                 60     -0.446502  6 H  px         
    27     -0.394070  2 N  py                42     -0.395104  3 H  px         
    19      0.388963  1 C  dzz               50      0.389789  4 H  pz         

 Vector   60  Occ=0.000000D+00  E= 2.857985D+00
              MO Center=  1.4D-01,  1.3D+00, -1.5D-02, r^2= 1.4D+00
   Bfn.  Coefficient  Atom+Function         Bfn.  Coefficient  Atom+Function  
  ----- ------------  ---------------      ----- ------------  ---------------
    18      1.062040  1 C  dyz               16      0.818189  1 C  dxz        
    56     -0.691648  5 H  pz                48      0.438568  4 H  px         
     9      0.411738  1 C  pz                42     -0.402736  3 H  px         
    40     -0.363761  3 H  s                 46      0.345017  4 H  s          
    43     -0.332844  3 H  py                49      0.322973  4 H  py         

 Vector   61  Occ=0.000000D+00  E= 2.888641D+00
              MO Center= -5.5D-02,  4.8D-01,  1.2D-03, r^2= 2.5D+00
   Bfn.  Coefficient  Atom+Function         Bfn.  Coefficient  Atom+Function  
  ----- ------------  ---------------      ----- ------------  ---------------
    15      0.948688  1 C  dxy               34     -0.817720  2 N  dxy        
    58     -0.660737  6 H  s                 10      0.570424  1 C  s          
     6      0.514257  1 C  s                 59     -0.515067  6 H  s          
    60      0.464141  6 H  px                67     -0.409492  7 H  py         
    14     -0.402492  1 C  dxx               52     -0.399743  5 H  s          

 Vector   62  Occ=0.000000D+00  E= 3.179881D+00
              MO Center= -7.5D-02,  2.1D-01,  4.3D-04, r^2= 2.6D+00
   Bfn.  Coefficient  Atom+Function         Bfn.  Coefficient  Atom+Function  
  ----- ------------  ---------------      ----- ------------  ---------------
    25      1.627427  2 N  s                  2     -0.863514  1 C  s          
    58     -0.857122  6 H  s                 61      0.738791  6 H  py         
     6     -0.700648  1 C  s                 38     -0.690623  2 N  dzz        
    27      0.677329  2 N  py                10     -0.624609  1 C  s          
    52      0.517610  5 H  s                 46      0.500437  4 H  s          

 Vector   63  Occ=0.000000D+00  E= 3.365643D+00
              MO Center= -3.0D-01, -2.5D-01, -7.7D-04, r^2= 3.1D+00
   Bfn.  Coefficient  Atom+Function         Bfn.  Coefficient  Atom+Function  
  ----- ------------  ---------------      ----- ------------  ---------------
    25      1.670508  2 N  s                 10      1.124624  1 C  s          
     6      1.004211  1 C  s                 66     -0.918959  7 H  px         
    38     -0.758415  2 N  dzz               64     -0.707615  7 H  s          
    63     -0.690875  7 H  s                 26     -0.617991  2 N  px         
    17     -0.585079  1 C  dyy               59     -0.584072  6 H  s          

 Vector   64  Occ=0.000000D+00  E= 3.512398D+00
              MO Center= -2.7D-01,  1.3D+00,  6.5D-03, r^2= 1.2D+00
   Bfn.  Coefficient  Atom+Function         Bfn.  Coefficient  Atom+Function  
  ----- ------------  ---------------      ----- ------------  ---------------
    16      1.979336  1 C  dxz                5     -0.945475  1 C  pz         
    44     -0.864705  3 H  pz                50     -0.836764  4 H  pz         
    18     -0.724859  1 C  dyz               45     -0.724734  4 H  s          
    39      0.716037  3 H  s                  9     -0.604199  1 C  pz         
    48     -0.467872  4 H  px                46     -0.449729  4 H  s          

 Vector   65  Occ=0.000000D+00  E= 3.516270D+00
              MO Center=  3.3D-01,  1.3D+00, -6.1D-03, r^2= 1.2D+00
   Bfn.  Coefficient  Atom+Function         Bfn.  Coefficient  Atom+Function  
  ----- ------------  ---------------      ----- ------------  ---------------
    54      1.110082  5 H  px                14      0.976534  1 C  dxx        
     3      0.941375  1 C  px                19     -0.940432  1 C  dzz        
    15      0.863044  1 C  dxy               51     -0.850053  5 H  s          
     7      0.611481  1 C  px                52     -0.551246  5 H  s          
    53      0.484509  5 H  s                 44     -0.417384  3 H  pz         

 Vector   66  Occ=0.000000D+00  E= 3.574458D+00
              MO Center= -8.2D-02, -4.8D-01, -3.3D-05, r^2= 2.3D+00
   Bfn.  Coefficient  Atom+Function         Bfn.  Coefficient  Atom+Function  
  ----- ------------  ---------------      ----- ------------  ---------------
    33      1.066549  2 N  dxx               61     -0.950838  6 H  py         
    66     -0.871915  7 H  px                63     -0.761243  7 H  s          
    36     -0.740730  2 N  dyy               27     -0.695619  2 N  py         
    10     -0.571114  1 C  s                 26     -0.573791  2 N  px         
    19     -0.547054  1 C  dzz               58      0.501059  6 H  s          

 Vector   67  Occ=0.000000D+00  E= 4.071102D+00
              MO Center=  1.7D-01, -1.3D+00,  2.3D-04, r^2= 1.5D+00
   Bfn.  Coefficient  Atom+Function         Bfn.  Coefficient  Atom+Function  
  ----- ------------  ---------------      ----- ------------  ---------------
    25      3.632030  2 N  s                 59      2.081115  6 H  s          
    29     -1.924881  2 N  s                 33     -1.904588  2 N  dxx        
    36     -1.554497  2 N  dyy               38     -1.375700  2 N  dzz        
    58     -1.315372  6 H  s                  6      0.900894  1 C  s          
    21      0.831839  2 N  s                  8     -0.570012  1 C  py         

 Vector   68  Occ=0.000000D+00  E= 4.551232D+00
              MO Center=  2.7D-02,  1.1D+00,  9.2D-05, r^2= 9.4D-01
   Bfn.  Coefficient  Atom+Function         Bfn.  Coefficient  Atom+Function  
  ----- ------------  ---------------      ----- ------------  ---------------
     6      2.935389  1 C  s                  2      2.635772  1 C  s          
    14     -2.146720  1 C  dxx               19     -2.151952  1 C  dzz        
    17     -1.792341  1 C  dyy               58     -1.623196  6 H  s          
    25      0.763520  2 N  s                 27      0.515655  2 N  py         
     1     -0.498530  1 C  s                  8     -0.457642  1 C  py         


   alpha - beta orbital overlaps 
   ----------------------------- 


   alpha      1      2      3      4      5      6      7      8      9     10
    beta      1      2      3      4      5      6      7      8      9     10
 overlap   1.000  1.000  0.990  0.991  0.850  0.997  0.861  0.965  0.951  0.974


   alpha     11     12     13     14     15     16     17     18     19     20
    beta     11     12     13     14     15     16     17     18     19     21
 overlap   0.995  0.917  0.992  0.932  0.981  0.973  0.951  0.984  0.967  0.927


   alpha     21     22     23     24     25     26     27     28     29     30
    beta     20     22     25     23     24     26     27     28     29     30
 overlap   0.962  0.961  0.880  0.979  0.918  0.965  0.955  0.968  0.997  0.940


   alpha     31     32     33     34     35     36     37     38     39     40
    beta     31     33     32     34     35     36     37     38     39     40
 overlap   0.937  0.986  0.979  0.870  0.993  0.859  0.771  0.794  0.995  0.992


   alpha     41     42     43     44     45     46     47     48     49     50
    beta     41     42     43     45     44     46     47     48     49     50
 overlap   0.998  0.998  0.996  0.996  0.997  0.996  0.997  0.998  1.000  0.999


   alpha     51     52     53     54     55     56     57     58     59     60
    beta     51     53     52     54     55     56     57     58     59     60
 overlap   0.979  0.963  0.986  0.993  0.998  0.997  0.993  0.993  0.999  1.000


   alpha     61     62     63     64     65     66     67     68
    beta     61     62     63     64     65     66     67     68
 overlap   1.000  0.999  0.998  1.000  1.000  0.997  0.999  1.000

     --------------------------
     Expectation value of S2:  
     --------------------------
      <S2> =      2.0161 (Exact =     2.0000)


 center of mass
 --------------
 x =   0.04692750 y =  -0.15898261 z =  -0.00000619

 moments of inertia (a.u.)
 ------------------
         196.999893711015           0.000000000000          -0.000000000002
           0.000000000000          15.498308646263          -0.000000000000
          -0.000000000002          -0.000000000000         200.538767859806

     Multipole analysis of the density
     ---------------------------------

     L   x y z        total         alpha         beta         nuclear
     -   - - -        -----         -----         ----         -------
     0   0 0 0     -0.000000    -10.000000     -8.000000     18.000000

     1   1 0 0     -0.615704     -0.435535     -0.180169      0.000000
     1   0 1 0      0.523812      1.573220     -1.049408      0.000000
     1   0 0 1     -0.000013     -0.000097      0.000085      0.000000

     2   2 0 0    -10.476188    -10.296973     -9.463308      9.284092
     2   1 1 0      2.244799      0.155029     -0.473901      2.563672
     2   1 0 1     -0.001268     -0.000457     -0.000801     -0.000010
     2   0 2 0    -12.816210    -69.871187    -54.412929    111.467905
     2   0 1 1      0.000914      0.000098      0.000083      0.000733
     2   0 0 2    -10.850497     -9.451488     -7.332298      5.933289


 Task  times  cpu:        3.8s     wall:        3.9s


                                NWChem Input Module
                                -------------------


 Summary of allocated global arrays
-----------------------------------
  No active global arrays



                         GA Statistics for process    0
                         ------------------------------

       create   destroy   get      put      acc     scatter   gather  read&inc
calls:  312      312     3.11e+04 1643     2.24e+04    0        0     1086     
number of processes/call 1.05e+00 1.22e+00 1.02e+00 0.00e+00 0.00e+00
bytes total:             3.97e+07 4.05e+06 2.43e+07 0.00e+00 0.00e+00 8.69e+03
bytes remote:            9.30e+06 1.12e+06 4.05e+06 0.00e+00 0.00e+00 0.00e+00
Max memory consumed for GA by this process: 852640 bytes

MA_summarize_allocated_blocks: starting scan ...
heap block 'gridpts', handle 114, address 0x558e62efa140:
	type of elements:		double precision
	number of elements:		34423210
	address of client space:	0x558e62efa1c0
	index for client space:		10622539
	total number of bytes:		275385816
MA_summarize_allocated_blocks: scan completed: 1 heap block, 0 stack blocks
MA usage statistics:

	allocation statistics:
					      heap	     stack
					      ----	     -----
	current number of blocks	         1	         0
	maximum number of blocks	        21	        53
	current total bytes		 275385816	         0
	maximum total bytes		 277868624	  22515368
	maximum total K-bytes		    277869	     22516
	maximum total M-bytes		       278	        23


                                     CITATION
                                     --------
                Please cite the following reference when publishing
                           results obtained with NWChem:

                 M. Valiev, E.J. Bylaska, N. Govind, K. Kowalski,
              T.P. Straatsma, H.J.J. van Dam, D. Wang, J. Nieplocha,
                        E. Apra, T.L. Windus, W.A. de Jong
                 "NWChem: a comprehensive and scalable open-source
                  solution for large scale molecular simulations"
                      Comput. Phys. Commun. 181, 1477 (2010)
                           doi:10.1016/j.cpc.2010.04.018

                                      AUTHORS
                                      -------
          E. Apra, E. J. Bylaska, W. A. de Jong, N. Govind, K. Kowalski,
       T. P. Straatsma, M. Valiev, H. J. J. van Dam, D. Wang, T. L. Windus,
        J. Hammond, J. Autschbach, K. Bhaskaran-Nair, J. Brabec, K. Lopata,
    S. A. Fischer, S. Krishnamoorthy, M. Jacquelin, W. Ma, M. Klemm, O. Villa,
      Y. Chen, V. Anisimov, F. Aquino, S. Hirata, M. T. Hackler, V. Konjkov,
            D. Mejia-Rodriguez, T. Risthaus, M. Malagoli, A. Marenich,
   A. Otero-de-la-Roza, J. Mullin, P. Nichols, R. Peverati, J. Pittner, Y. Zhao,
        P.-D. Fan, A. Fonari, M. J. Williamson, R. J. Harrison, J. R. Rehr,
      M. Dupuis, D. Silverstein, D. M. A. Smith, J. Nieplocha, V. Tipparaju,
    M. Krishnan, B. E. Van Kuiken, A. Vazquez-Mayagoitia, L. Jensen, M. Swart,
      Q. Wu, T. Van Voorhis, A. A. Auer, M. Nooijen, L. D. Crosby, E. Brown,
      G. Cisneros, G. I. Fann, H. Fruchtl, J. Garza, K. Hirao, R. A. Kendall,
      J. A. Nichols, K. Tsemekhman, K. Wolinski, J. Anchell, D. E. Bernholdt,
      P. Borowski, T. Clark, D. Clerc, H. Dachsel, M. J. O. Deegan, K. Dyall,
    D. Elwood, E. Glendening, M. Gutowski, A. C. Hess, J. Jaffe, B. G. Johnson,
     J. Ju, R. Kobayashi, R. Kutteh, Z. Lin, R. Littlefield, X. Long, B. Meng,
      T. Nakajima, S. Niu, L. Pollack, M. Rosing, K. Glaesemann, G. Sandrone,
      M. Stave, H. Taylor, G. Thomas, J. H. van Lenthe, A. T. Wong, Z. Zhang.

 Total times  cpu:        3.8s     wall:        4.0s
