 argument  1 = /home/list1234/source/nwchem-6.8.1-release/QA/tests/dft_ch3ochch32/dft_ch3ochch32.nw



============================== echo of input deck ==============================
echo

start ch3ochch32
title "Alkyl bond dissociation energy from the ABDE4/05 database"
#Paper: DOI 10.1007/s00214-007-0310-x"
#ABDE4/05 database

geometry big
O  0.2581838741  0.937874606  0.0407424579
C  1.6365622261  1.0422982793  0.3233044075
H  1.8990698734  2.1004086002  0.2355469898
H  2.2623399434  0.4702401473  -0.3784687165
C  -0.2958120265  -0.3650962082  0.2296077208
H  0.0737268667  -0.770233074  1.1884225371
C  0.0999562654  -1.3221886514  -0.8997878285
C  -1.8070752191  -0.1766021952  0.3188323899
H  -2.3094122994  -1.1343594496  0.4933835016
H  -2.0591701944  0.5065049853  1.1358104054
H  -2.1901489088  0.2507080646  -0.6147505549
H  -0.3461659892  -2.3107435182  -0.7410685375
H  -0.2515839876  -0.9340770207  -1.8625311037
H  1.1853093402  -1.4555173912  -0.960633128
H  1.868776887  0.7036044613  1.346608805
end
geometry ch3o
O -0.0717954037 0.7904851464 0.
C 0.070527331 -0.5706524031 0.
H -0.9643070065 -0.9734523539 0.
H 0.557753125 -0.9632571993 0.9088020881
H 0.557753125 -0.9632571993 -0.9088020881
end
geometry isopr
H -1.5741282257 0.3384466025 0.
C -0.4949973207 0.2014373026 0.
C 0.1885698354 -0.059540887 -1.3011394423
C 0.1885698354 -0.059540887 1.3011394423
H -0.3378996345 0.4075090427 -2.1413392395
H -0.3378996345 0.4075090427 2.1413392395
H 1.2217611291 0.3159557584 -1.2963791248
H 1.2217611291 0.3159557584 1.2963791248
H 0.256775568 -1.1397546885 -1.5289592366
H 0.256775568 -1.1397546885 1.5289592366
end

basis
* library 6-311++G(3df,3pd)
end

dft
direct
vectors input atomic
xc xm06-2x cm06-2x
end

set geometry big

task dft

set geometry ch3o
dft
direct
vectors input atomic
mult 2
end

task dft

set geometry isopr

task dft
================================================================================


                                         
                                         


              Northwest Computational Chemistry Package (NWChem) 6.8
              ------------------------------------------------------


                    Environmental Molecular Sciences Laboratory
                       Pacific Northwest National Laboratory
                                Richland, WA 99352

                              Copyright (c) 1994-2018
                       Pacific Northwest National Laboratory
                            Battelle Memorial Institute

             NWChem is an open-source computational chemistry package
                        distributed under the terms of the
                      Educational Community License (ECL) 2.0
             A copy of the license is included with this distribution
                              in the LICENSE.TXT file

                                  ACKNOWLEDGMENT
                                  --------------

            This software and its documentation were developed at the
            EMSL at Pacific Northwest National Laboratory, a multiprogram
            national laboratory, operated for the U.S. Department of Energy
            by Battelle under Contract Number DE-AC05-76RL01830. Support
            for this work was provided by the Department of Energy Office
            of Biological and Environmental Research, Office of Basic
            Energy Sciences, and the Office of Advanced Scientific Computing.


           Job information
           ---------------

    hostname        = list1234-B360M-H
    program         = /home/list1234/source/nwchem-6.8.1-release/bin/LINUX64/nwchem
    date            = Sun Jun 30 07:40:16 2019

    compiled        = Sun_Jun_30_05:21:11_2019
    source          = /home/list1234/source/nwchem-6.8.1-release
    nwchem branch   = Development
    nwchem revision = N/A
    ga revision     = 5.6.5
    use scalapack   = T
    input           = /home/list1234/source/nwchem-6.8.1-release/QA/tests/dft_ch3ochch32/dft_ch3ochch32.nw
    prefix          = ch3ochch32.
    data base       = ./ch3ochch32.db
    status          = startup
    nproc           =        4
    time left       =     -1s



           Memory information
           ------------------

    heap     =   86247164 doubles =    658.0 Mbytes
    stack    =   86247169 doubles =    658.0 Mbytes
    global   =  172494336 doubles =   1316.0 Mbytes (distinct from heap & stack)
    total    =  344988669 doubles =   2632.1 Mbytes
    verify   = yes
    hardfail = no 


           Directory information
           ---------------------

  0 permanent = .
  0 scratch   = .




                                NWChem Input Module
                                -------------------


             Alkyl bond dissociation energy from the ABDE4/05 database
             ---------------------------------------------------------

 Scaling coordinates for geometry "big" by  1.889725989
 (inverse scale =  0.529177249)

 C1  symmetry detected

          ------
          auto-z
          ------
  no constraints, skipping    0.0000000000000000     
  no constraints, skipping    0.0000000000000000     


                               Geometry "big" -> ""
                               --------------------

 Output coordinates in angstroms (scale by  1.889725989 to convert to a.u.)

  No.       Tag          Charge          X              Y              Z
 ---- ---------------- ---------- -------------- -------------- --------------
    1 O                    8.0000     0.54570144    -0.72374075    -0.35543902
    2 C                    6.0000     0.06335621    -1.96251982     0.11725744
    3 H                    1.0000     0.62611787    -2.74192958    -0.40430638
    4 H                    1.0000    -1.00763104    -2.11175692    -0.08779958
    5 C                    6.0000     0.01031083     0.42157335     0.30933687
    6 H                    1.0000     0.02363979     0.23610937     1.39811884
    7 C                    6.0000    -1.42922895     0.71333777    -0.12746006
    8 C                    6.0000     0.95236780     1.57837445    -0.00964175
    9 H                    1.0000     0.62501292     2.49649537     0.49036059
   10 H                    1.0000     1.96992728     1.34361387     0.31762045
   11 H                    1.0000     0.97412902     1.76082888    -1.08999052
   12 H                    1.0000    -1.81457321     1.60241185     0.38490181
   13 H                    1.0000    -1.46555962     0.89323626    -1.20792404
   14 H                    1.0000    -2.10273135    -0.11886003     0.10343241
   15 H                    1.0000     0.22522151    -2.07481751     1.20214356

      Atomic Mass 
      ----------- 

      O                 15.994910
      C                 12.000000
      H                  1.007825


 Effective nuclear repulsion energy (a.u.)     195.7499152913

            Nuclear Dipole moment (a.u.) 
            ----------------------------
        X                 Y               Z
 ---------------- ---------------- ----------------
    -0.0000000000    -0.0000000000    -0.0000000000



                                Z-matrix (autoz)
                                -------- 

 Units are Angstrom for bonds and degrees for angles

      Type          Name      I     J     K     L     M      Value
      ----------- --------  ----- ----- ----- ----- ----- ----------
    1 Stretch                  1     2                       1.41091
    2 Stretch                  1     5                       1.42840
    3 Stretch                  2     3                       1.09371
    4 Stretch                  2     4                       1.10061
    5 Stretch                  2    15                       1.10263
    6 Stretch                  5     6                       1.10455
    7 Stretch                  5     7                       1.53238
    8 Stretch                  5     8                       1.52558
    9 Stretch                  7    12                       1.09611
   10 Stretch                  7    13                       1.09594
   11 Stretch                  7    14                       1.09520
   12 Stretch                  8     9                       1.09550
   13 Stretch                  8    10                       1.09437
   14 Stretch                  8    11                       1.09586
   15 Bend                     1     2     3               106.85877
   16 Bend                     1     2     4               112.91095
   17 Bend                     1     2    15               111.64609
   18 Bend                     1     5     6               108.63887
   19 Bend                     1     5     7               111.84620
   20 Bend                     1     5     8               106.21431
   21 Bend                     2     1     5               114.83044
   22 Bend                     3     2     4               108.37400
   23 Bend                     3     2    15               108.72877
   24 Bend                     4     2    15               108.20116
   25 Bend                     5     7    12               110.57619
   26 Bend                     5     7    13               110.08507
   27 Bend                     5     7    14               111.89635
   28 Bend                     5     8     9               110.82665
   29 Bend                     5     8    10               110.42489
   30 Bend                     5     8    11               110.15952
   31 Bend                     6     5     7               108.92212
   32 Bend                     6     5     8               109.02442
   33 Bend                     7     5     8               112.09359
   34 Bend                     9     8    10               108.73205
   35 Bend                     9     8    11               108.44248
   36 Bend                    10     8    11               108.18345
   37 Bend                    12     7    13               108.42339
   38 Bend                    12     7    14               107.55348
   39 Bend                    13     7    14               108.19119
   40 Torsion                  1     5     7    12        -179.27146
   41 Torsion                  1     5     7    13         -59.48973
   42 Torsion                  1     5     7    14          60.85575
   43 Torsion                  1     5     8     9        -178.40508
   44 Torsion                  1     5     8    10         -57.85442
   45 Torsion                  1     5     8    11          61.58099
   46 Torsion                  2     1     5     6          45.03026
   47 Torsion                  2     1     5     7         -75.23034
   48 Torsion                  2     1     5     8         162.18197
   49 Torsion                  3     2     1     5        -174.40263
   50 Torsion                  4     2     1     5          66.54166
   51 Torsion                  5     1     2    15         -55.63712
   52 Torsion                  6     5     7    12          60.63359
   53 Torsion                  6     5     7    13        -179.58468
   54 Torsion                  6     5     7    14         -59.23920
   55 Torsion                  6     5     8     9         -61.51118
   56 Torsion                  6     5     8    10          59.03948
   57 Torsion                  6     5     8    11         178.47490
   58 Torsion                  7     5     8     9          59.16383
   59 Torsion                  7     5     8    10         179.71449
   60 Torsion                  7     5     8    11         -60.85010
   61 Torsion                  8     5     7    12         -60.10064
   62 Torsion                  8     5     7    13          59.68109
   63 Torsion                  8     5     7    14        -179.97343


            XYZ format geometry
            -------------------
    15
 big
 O                     0.54570144    -0.72374075    -0.35543902
 C                     0.06335621    -1.96251982     0.11725744
 H                     0.62611787    -2.74192958    -0.40430638
 H                    -1.00763104    -2.11175692    -0.08779958
 C                     0.01031083     0.42157335     0.30933687
 H                     0.02363979     0.23610937     1.39811884
 C                    -1.42922895     0.71333777    -0.12746006
 C                     0.95236780     1.57837445    -0.00964175
 H                     0.62501292     2.49649537     0.49036059
 H                     1.96992728     1.34361387     0.31762045
 H                     0.97412902     1.76082888    -1.08999052
 H                    -1.81457321     1.60241185     0.38490181
 H                    -1.46555962     0.89323626    -1.20792404
 H                    -2.10273135    -0.11886003     0.10343241
 H                     0.22522151    -2.07481751     1.20214356

 ==============================================================================
                                internuclear distances
 ------------------------------------------------------------------------------
       center one      |      center two      | atomic units |  angstroms
 ------------------------------------------------------------------------------
    2 C                |   1 O                |     2.66624  |     1.41091
    3 H                |   2 C                |     2.06682  |     1.09371
    4 H                |   2 C                |     2.07984  |     1.10061
    5 C                |   1 O                |     2.69928  |     1.42840
    6 H                |   5 C                |     2.08729  |     1.10455
    7 C                |   5 C                |     2.89578  |     1.53238
    8 C                |   5 C                |     2.88294  |     1.52558
    9 H                |   8 C                |     2.07019  |     1.09550
   10 H                |   8 C                |     2.06805  |     1.09437
   11 H                |   8 C                |     2.07088  |     1.09586
   12 H                |   7 C                |     2.07135  |     1.09611
   13 H                |   7 C                |     2.07103  |     1.09594
   14 H                |   7 C                |     2.06963  |     1.09520
   15 H                |   2 C                |     2.08367  |     1.10263
 ------------------------------------------------------------------------------
                         number of included internuclear distances:         14
 ==============================================================================



 ==============================================================================
                                 internuclear angles
 ------------------------------------------------------------------------------
        center 1       |       center 2       |       center 3       |  degrees
 ------------------------------------------------------------------------------
    2 C                |   1 O                |   5 C                |   114.83
    1 O                |   2 C                |   3 H                |   106.86
    1 O                |   2 C                |   4 H                |   112.91
    1 O                |   2 C                |  15 H                |   111.65
    3 H                |   2 C                |   4 H                |   108.37
    3 H                |   2 C                |  15 H                |   108.73
    4 H                |   2 C                |  15 H                |   108.20
    1 O                |   5 C                |   6 H                |   108.64
    1 O                |   5 C                |   7 C                |   111.85
    1 O                |   5 C                |   8 C                |   106.21
    6 H                |   5 C                |   7 C                |   108.92
    6 H                |   5 C                |   8 C                |   109.02
    7 C                |   5 C                |   8 C                |   112.09
    5 C                |   7 C                |  12 H                |   110.58
    5 C                |   7 C                |  13 H                |   110.09
    5 C                |   7 C                |  14 H                |   111.90
   12 H                |   7 C                |  13 H                |   108.42
   12 H                |   7 C                |  14 H                |   107.55
   13 H                |   7 C                |  14 H                |   108.19
    5 C                |   8 C                |   9 H                |   110.83
    5 C                |   8 C                |  10 H                |   110.42
    5 C                |   8 C                |  11 H                |   110.16
    9 H                |   8 C                |  10 H                |   108.73
    9 H                |   8 C                |  11 H                |   108.44
   10 H                |   8 C                |  11 H                |   108.18
 ------------------------------------------------------------------------------
                            number of included internuclear angles:         25
 ==============================================================================




 Scaling coordinates for geometry "ch3o" by  1.889725989
 (inverse scale =  0.529177249)

 CS  symmetry detected

          ------
          auto-z
          ------
  Looking for out-of-plane bends
  no constraints, skipping    0.0000000000000000     
  no constraints, skipping    0.0000000000000000     


                             Geometry "ch3o" -> "   "
                             ------------------------

 Output coordinates in angstroms (scale by  1.889725989 to convert to a.u.)

  No.       Tag          Charge          X              Y              Z
 ---- ---------------- ---------- -------------- -------------- --------------
    1 O                    8.0000     0.00841729    -0.79369421     0.00000000
    2 C                    6.0000     0.01252604     0.57485769     0.00000000
    3 H                    1.0000    -1.05770184     0.87107078     0.00000000
    4 H                    1.0000     0.45760364     1.01466836     0.90880209
    5 H                    1.0000     0.45760364     1.01466836    -0.90880209

      Atomic Mass 
      ----------- 

      O                 15.994910
      C                 12.000000
      H                  1.007825


 Effective nuclear repulsion energy (a.u.)      34.2881276597

            Nuclear Dipole moment (a.u.) 
            ----------------------------
        X                 Y               Z
 ---------------- ---------------- ----------------
    -0.0000000000     0.0000000000     0.0000000000

      Symmetry information
      --------------------

 Group name             Cs        
 Group number              2
 Group order               2
 No. of unique centers     4

      Symmetry unique atoms

     1    2    3    4



                                Z-matrix (autoz)
                                -------- 

 Units are Angstrom for bonds and degrees for angles

      Type          Name      I     J     K     L     M      Value
      ----------- --------  ----- ----- ----- ----- ----- ----------
    1 Stretch                  1     2                       1.36856
    2 Stretch                  2     3                       1.11046
    3 Stretch                  2     4                       1.10338
    4 Stretch                  2     5                       1.10338
    5 Bend                     1     2     3               105.29878
    6 Bend                     1     2     4               113.56643
    7 Bend                     1     2     5               113.56643
    8 Bend                     3     2     4               106.40555
    9 Bend                     3     2     5               106.40555
   10 Bend                     4     2     5               110.90421


            XYZ format geometry
            -------------------
     5
 ch3o
 O                     0.00841729    -0.79369421     0.00000000
 C                     0.01252604     0.57485769     0.00000000
 H                    -1.05770184     0.87107078     0.00000000
 H                     0.45760364     1.01466836     0.90880209
 H                     0.45760364     1.01466836    -0.90880209

 ==============================================================================
                                internuclear distances
 ------------------------------------------------------------------------------
       center one      |      center two      | atomic units |  angstroms
 ------------------------------------------------------------------------------
    2 C                |   1 O                |     2.58620  |     1.36856
    3 H                |   2 C                |     2.09847  |     1.11046
    4 H                |   2 C                |     2.08509  |     1.10338
    5 H                |   2 C                |     2.08509  |     1.10338
 ------------------------------------------------------------------------------
                         number of included internuclear distances:          4
 ==============================================================================



 ==============================================================================
                                 internuclear angles
 ------------------------------------------------------------------------------
        center 1       |       center 2       |       center 3       |  degrees
 ------------------------------------------------------------------------------
    1 O                |   2 C                |   3 H                |   105.30
    1 O                |   2 C                |   4 H                |   113.57
    1 O                |   2 C                |   5 H                |   113.57
    3 H                |   2 C                |   4 H                |   106.41
    3 H                |   2 C                |   5 H                |   106.41
    4 H                |   2 C                |   5 H                |   110.90
 ------------------------------------------------------------------------------
                            number of included internuclear angles:          6
 ==============================================================================




 Scaling coordinates for geometry "isopr" by  1.889725989
 (inverse scale =  0.529177249)

 CS  symmetry detected

          ------
          auto-z
          ------
  no constraints, skipping    0.0000000000000000     
  no constraints, skipping    0.0000000000000000     


                            Geometry "isopr" -> "    "
                            --------------------------

 Output coordinates in angstroms (scale by  1.889725989 to convert to a.u.)

  No.       Tag          Charge          X              Y              Z
 ---- ---------------- ---------- -------------- -------------- --------------
    1 H                    1.0000    -1.60218643    -0.15945037     0.00000000
    2 C                    6.0000    -0.53289233     0.04031248     0.00000000
    3 C                    6.0000     0.19774395     0.00101497     1.30113944
    4 C                    6.0000     0.19774395     0.00101497    -1.30113944
    5 H                    1.0000    -0.44638513     0.28457002     2.14133924
    6 H                    1.0000    -0.44638513     0.28457002    -2.14133924
    7 H                    1.0000     1.06648149     0.67464474     1.29637912
    8 H                    1.0000     1.06648149     0.67464474    -1.29637912
    9 H                    1.0000     0.59321015    -1.00651685     1.52895924
   10 H                    1.0000     0.59321015    -1.00651685    -1.52895924

      Atomic Mass 
      ----------- 

      H                  1.007825
      C                 12.000000


 Effective nuclear repulsion energy (a.u.)      75.2071533596

            Nuclear Dipole moment (a.u.) 
            ----------------------------
        X                 Y               Z
 ---------------- ---------------- ----------------
     0.0000000000     0.0000000000     0.0000000000

      Symmetry information
      --------------------

 Group name             Cs        
 Group number              2
 Group order               2
 No. of unique centers     6

      Symmetry unique atoms

     1    2    3    5    7    9



                                Z-matrix (autoz)
                                -------- 

 Units are Angstrom for bonds and degrees for angles

      Type          Name      I     J     K     L     M      Value
      ----------- --------  ----- ----- ----- ----- ----- ----------
    1 Stretch                  1     2                       1.08779
    2 Stretch                  2     3                       1.49276
    3 Stretch                  2     4                       1.49276
    4 Stretch                  3     5                       1.09601
    5 Stretch                  3     7                       1.09932
    6 Stretch                  3     9                       1.10608
    7 Stretch                  4     6                       1.09601
    8 Stretch                  4     8                       1.09932
    9 Stretch                  4    10                       1.10608
   10 Bend                     1     2     3               118.44366
   11 Bend                     1     2     4               118.44366
   12 Bend                     2     3     5               111.94570
   13 Bend                     2     3     7               111.52358
   14 Bend                     2     3     9               112.24130
   15 Bend                     2     4     6               111.94570
   16 Bend                     2     4     8               111.52358
   17 Bend                     2     4    10               112.24130
   18 Bend                     3     2     4               121.29778
   19 Bend                     5     3     7               108.01215
   20 Bend                     5     3     9               106.73193
   21 Bend                     6     4     8               108.01215
   22 Bend                     6     4    10               106.73193
   23 Bend                     7     3     9               106.05265
   24 Bend                     8     4    10               106.05265
   25 Torsion                  1     2     3     5         -29.73248
   26 Torsion                  1     2     3     7        -150.88201
   27 Torsion                  1     2     3     9          90.27441
   28 Torsion                  1     2     4     6          29.73248
   29 Torsion                  1     2     4     8         150.88201
   30 Torsion                  1     2     4    10         -90.27441
   31 Torsion                  3     2     4     6        -165.84805
   32 Torsion                  3     2     4     8         -44.69852
   33 Torsion                  3     2     4    10          74.14506
   34 Torsion                  4     2     3     5         165.84805
   35 Torsion                  4     2     3     7          44.69852
   36 Torsion                  4     2     3     9         -74.14506


            XYZ format geometry
            -------------------
    10
 isopr
 H                    -1.60218643    -0.15945037     0.00000000
 C                    -0.53289233     0.04031248     0.00000000
 C                     0.19774395     0.00101497     1.30113944
 C                     0.19774395     0.00101497    -1.30113944
 H                    -0.44638513     0.28457002     2.14133924
 H                    -0.44638513     0.28457002    -2.14133924
 H                     1.06648149     0.67464474     1.29637912
 H                     1.06648149     0.67464474    -1.29637912
 H                     0.59321015    -1.00651685     1.52895924
 H                     0.59321015    -1.00651685    -1.52895924

 ==============================================================================
                                internuclear distances
 ------------------------------------------------------------------------------
       center one      |      center two      | atomic units |  angstroms
 ------------------------------------------------------------------------------
    2 C                |   1 H                |     2.05563  |     1.08779
    3 C                |   2 C                |     2.82091  |     1.49276
    4 C                |   2 C                |     2.82091  |     1.49276
    5 H                |   3 C                |     2.07116  |     1.09601
    6 H                |   4 C                |     2.07116  |     1.09601
    7 H                |   3 C                |     2.07741  |     1.09932
    8 H                |   4 C                |     2.07741  |     1.09932
    9 H                |   3 C                |     2.09019  |     1.10608
   10 H                |   4 C                |     2.09019  |     1.10608
 ------------------------------------------------------------------------------
                         number of included internuclear distances:          9
 ==============================================================================



 ==============================================================================
                                 internuclear angles
 ------------------------------------------------------------------------------
        center 1       |       center 2       |       center 3       |  degrees
 ------------------------------------------------------------------------------
    1 H                |   2 C                |   3 C                |   118.44
    1 H                |   2 C                |   4 C                |   118.44
    3 C                |   2 C                |   4 C                |   121.30
    2 C                |   3 C                |   5 H                |   111.95
    2 C                |   3 C                |   7 H                |   111.52
    2 C                |   3 C                |   9 H                |   112.24
    5 H                |   3 C                |   7 H                |   108.01
    5 H                |   3 C                |   9 H                |   106.73
    7 H                |   3 C                |   9 H                |   106.05
    2 C                |   4 C                |   6 H                |   111.95
    2 C                |   4 C                |   8 H                |   111.52
    2 C                |   4 C                |  10 H                |   112.24
    6 H                |   4 C                |   8 H                |   108.01
    6 H                |   4 C                |  10 H                |   106.73
    8 H                |   4 C                |  10 H                |   106.05
 ------------------------------------------------------------------------------
                            number of included internuclear angles:         15
 ==============================================================================





 Summary of "ao basis" -> "" (cartesian)
 ------------------------------------------------------------------------------
       Tag                 Description            Shells   Functions and Types
 ---------------- ------------------------------  ------  ---------------------
 *                     6-311++G(3df,3pd)              on all atoms 


 cm06-2x uses PW91LDA as defaults.These defaults cannot be changed 

                                 NWChem DFT Module
                                 -----------------


             Alkyl bond dissociation energy from the ABDE4/05 database


                      Basis "ao basis" -> "ao basis" (cartesian)
                      -----
  O (Oxygen)
  ----------
            Exponent  Coefficients 
       -------------- ---------------------------------------------------------
  1 S  8.58850000E+03  0.001895
  1 S  1.29723000E+03  0.014386
  1 S  2.99296000E+02  0.070732
  1 S  8.73771000E+01  0.240001
  1 S  2.56789000E+01  0.594797
  1 S  3.74004000E+00  0.280802

  2 S  4.21175000E+01  0.113889
  2 S  9.62837000E+00  0.920811
  2 S  2.85332000E+00 -0.003274

  3 P  4.21175000E+01  0.036511
  3 P  9.62837000E+00  0.237153
  3 P  2.85332000E+00  0.819702

  4 S  9.05661000E-01  1.000000

  5 P  9.05661000E-01  1.000000

  6 S  2.55611000E-01  1.000000

  7 P  2.55611000E-01  1.000000

  8 S  8.45000000E-02  1.000000

  9 P  8.45000000E-02  1.000000

 10 D  5.16000000E+00  1.000000

 11 D  1.29200000E+00  1.000000

 12 D  3.22500000E-01  1.000000

 13 F  1.40000000E+00  1.000000

  C (Carbon)
  ----------
            Exponent  Coefficients 
       -------------- ---------------------------------------------------------
  1 S  4.56324000E+03  0.001967
  1 S  6.82024000E+02  0.015231
  1 S  1.54973000E+02  0.076127
  1 S  4.44553000E+01  0.260801
  1 S  1.30290000E+01  0.616462
  1 S  1.82773000E+00  0.221006

  2 S  2.09642000E+01  0.114660
  2 S  4.80331000E+00  0.919999
  2 S  1.45933000E+00 -0.003031

  3 P  2.09642000E+01  0.040249
  3 P  4.80331000E+00  0.237594
  3 P  1.45933000E+00  0.815854

  4 S  4.83456000E-01  1.000000

  5 P  4.83456000E-01  1.000000

  6 S  1.45585000E-01  1.000000

  7 P  1.45585000E-01  1.000000

  8 S  4.38000000E-02  1.000000

  9 P  4.38000000E-02  1.000000

 10 D  2.50400000E+00  1.000000

 11 D  6.26000000E-01  1.000000

 12 D  1.56500000E-01  1.000000

 13 F  8.00000000E-01  1.000000

  H (Hydrogen)
  ------------
            Exponent  Coefficients 
       -------------- ---------------------------------------------------------
  1 S  3.38650000E+01  0.025494
  1 S  5.09479000E+00  0.190373
  1 S  1.15879000E+00  0.852161

  2 S  3.25840000E-01  1.000000

  3 S  1.02741000E-01  1.000000

  4 S  3.60000000E-02  1.000000

  5 P  3.00000000E+00  1.000000

  6 P  7.50000000E-01  1.000000

  7 P  1.87500000E-01  1.000000

  8 D  1.00000000E+00  1.000000



 Summary of "ao basis" -> "ao basis" (cartesian)
 ------------------------------------------------------------------------------
       Tag                 Description            Shells   Functions and Types
 ---------------- ------------------------------  ------  ---------------------
 O                     6-311++G(3df,3pd)            13       45   5s4p3d1f
 C                     6-311++G(3df,3pd)            13       45   5s4p3d1f
 H                     6-311++G(3df,3pd)             8       19   4s3p1d




 Summary of "ao basis" -> "ao basis" (cartesian)
 ------------------------------------------------------------------------------
       Tag                 Description            Shells   Functions and Types
 ---------------- ------------------------------  ------  ---------------------
 O                     6-311++G(3df,3pd)            13       45   5s4p3d1f
 C                     6-311++G(3df,3pd)            13       45   5s4p3d1f
 H                     6-311++G(3df,3pd)             8       19   4s3p1d


  Caching 1-el integrals 

            General Information
            -------------------
          SCF calculation type: DFT
          Wavefunction type:  closed shell.
          No. of atoms     :    15
          No. of electrons :    42
           Alpha electrons :    21
            Beta electrons :    21
          Charge           :     0
          Spin multiplicity:     1
          Use of symmetry is: off; symmetry adaption is: off
          Maximum number of iterations:  30
          This is a Direct SCF calculation.
          AO basis - number of functions:   415
                     number of shells:   145
          Convergence on energy requested:  1.00D-06
          Convergence on density requested:  1.00D-05
          Convergence on gradient requested:  5.00D-04

              XC Information
              --------------
                     Hartree-Fock (Exact) Exchange  0.540          
                        M06-2X Exchange Functional  1.000          
                      M06-2X Correlation Potential  1.000 non-local

             Grid Information
             ----------------
          Grid used for XC integration:  medium    
          Radial quadrature: Mura-Knowles        
          Angular quadrature: Lebedev. 
          Tag              B.-S. Rad. Rad. Pts. Rad. Cut. Ang. Pts.
          ---              ---------- --------- --------- ---------
          O                   0.60       49          13.0       434
          C                   0.70       49          15.0       434
          H                   0.35       45          16.0       434
          Grid pruning is: on 
          Number of quadrature shells:   695
          Spatial weights used:  Erf1

          Convergence Information
          -----------------------
          Convergence aids based upon iterative change in 
          total energy or number of iterations. 
          Levelshifting, if invoked, occurs when the 
          HOMO/LUMO gap drops below (HL_TOL):  1.00D-02
          DIIS, if invoked, will attempt to extrapolate 
          using up to (NFOCK): 10 stored Fock matrices.

                    Damping( 0%)  Levelshifting(0.5)       DIIS
                  --------------- ------------------- ---------------
          dE  on:    start            ASAP                start   
          dE off:    2 iters         30 iters            30 iters 


      Screening Tolerance Information
      -------------------------------
          Density screening/tol_rho:  1.00D-10
          AO Gaussian exp screening on grid/accAOfunc:  14
          CD Gaussian exp screening on grid/accCDfunc:  20
          XC Gaussian exp screening on grid/accXCfunc:  20
          Schwarz screening/accCoul:  1.00D-08


 WARNING : Found     1 linear dependencies 
 S eigenvalue threshold:     1.00000E-05
 Smallest S eigenvalue :     8.19352E-06
 Largest  S eigenvalue :     8.19352E-06


 !! The overlap matrix has   1 vectors deemed linearly dependent with
    eigenvalues:
 8.19D-06


      Superposition of Atomic Density Guess
      -------------------------------------

 Sum of atomic energies:        -230.45243886

      Non-variational initial energy
      ------------------------------

 Total energy =    -233.669187
 1-e energy   =    -697.696506
 2-e energy   =     268.277404
 HOMO         =      -0.344089
 LUMO         =       0.023550

   Time after variat. SCF:     36.8
   Time prior to 1st pass:     36.8

 Grid_pts file          = ./ch3ochch32.gridpts.0
 Record size in doubles =  12289        No. of grid_pts per rec  =   3070
 Max. records in memory =     28        Max. recs in file   = 253312716

 Grid integrated density:      41.990895972210
 Requested integration accuracy:   0.10E-05

           Memory utilization after 1st SCF pass: 
           Heap Space remaining (MW):       51.51            51513916
          Stack Space remaining (MW):       86.24            86244692

   convergence    iter        energy       DeltaE   RMS-Dens  Diis-err    time
 ---------------- ----- ----------------- --------- --------- ---------  ------
 d= 0,ls=0.0,diis     1   -233.4653083129 -4.29D+02  3.96D-02  9.39D-01    83.2
 d= 0,ls=0.0,diis     2   -233.5973260157 -1.32D-01  3.57D-02  4.53D-01   129.6
 d= 0,ls=0.0,diis     3   -233.6263473696 -2.90D-02  4.26D-03  8.07D-02   175.8
 d= 0,ls=0.0,diis     4   -233.6314325812 -5.09D-03  1.26D-03  4.47D-03   222.8
 d= 0,ls=0.0,diis     5   -233.6317505417 -3.18D-04  8.09D-05  7.78D-04   269.8
  Resetting Diis
 d= 0,ls=0.0,diis     6   -233.6318348264 -8.43D-05  2.83D-05  1.05D-05   316.7
 d= 0,ls=0.0,diis     7   -233.6318360984 -1.27D-06  5.10D-06  6.66D-07   363.8
 d= 0,ls=0.0,diis     8   -233.6318361221 -2.37D-08  1.09D-06  5.23D-07   410.7


         Total DFT energy =     -233.631836122074
      One electron energy =     -703.128530726827
           Coulomb energy =      307.677735622314
    Exchange-Corr. energy =      -33.930956308891
 Nuclear repulsion energy =      195.749915291331

 Numeric. integr. density =       41.999998511050

     Total iterative time =    373.9s



                       DFT Final Molecular Orbital Analysis
                       ------------------------------------

 Vector    1  Occ=2.000000D+00  E=-1.962015D+01
              MO Center=  5.5D-01, -7.2D-01, -3.6D-01, r^2= 1.5D-02
   Bfn.  Coefficient  Atom+Function         Bfn.  Coefficient  Atom+Function  
  ----- ------------  ---------------      ----- ------------  ---------------
     1      0.553200   1 O  s                 2      0.467368   1 O  s         

 Vector    2  Occ=2.000000D+00  E=-1.059068D+01
              MO Center=  1.0D-02,  4.2D-01,  3.1D-01, r^2= 2.8D-02
   Bfn.  Coefficient  Atom+Function         Bfn.  Coefficient  Atom+Function  
  ----- ------------  ---------------      ----- ------------  ---------------
   129      0.564873   5 C  s               130      0.460956   5 C  s         

 Vector    3  Occ=2.000000D+00  E=-1.057715D+01
              MO Center=  6.3D-02, -2.0D+00,  1.2D-01, r^2= 2.8D-02
   Bfn.  Coefficient  Atom+Function         Bfn.  Coefficient  Atom+Function  
  ----- ------------  ---------------      ----- ------------  ---------------
    46      0.564699   2 C  s                47      0.461839   2 C  s         

 Vector    4  Occ=2.000000D+00  E=-1.052728D+01
              MO Center= -1.4D+00,  7.1D-01, -1.3D-01, r^2= 2.8D-02
   Bfn.  Coefficient  Atom+Function         Bfn.  Coefficient  Atom+Function  
  ----- ------------  ---------------      ----- ------------  ---------------
   193      0.564663   7 C  s               194      0.461671   7 C  s         

 Vector    5  Occ=2.000000D+00  E=-1.052414D+01
              MO Center=  9.5D-01,  1.6D+00, -9.6D-03, r^2= 2.8D-02
   Bfn.  Coefficient  Atom+Function         Bfn.  Coefficient  Atom+Function  
  ----- ------------  ---------------      ----- ------------  ---------------
   238      0.564658   8 C  s               239      0.461695   8 C  s         

 Vector    6  Occ=2.000000D+00  E=-1.151080D+00
              MO Center=  3.9D-01, -7.2D-01, -1.9D-01, r^2= 7.1D-01
   Bfn.  Coefficient  Atom+Function         Bfn.  Coefficient  Atom+Function  
  ----- ------------  ---------------      ----- ------------  ---------------
    10      0.515203   1 O  s                 6      0.506005   1 O  s         
     2     -0.189709   1 O  s               134      0.152538   5 C  s         
    51      0.147082   2 C  s                 1     -0.104623   1 O  s         
   142     -0.094702   5 C  s                55      0.079324   2 C  s         
    33     -0.066286   1 O  dyy              30     -0.065246   1 O  dxx       

 Vector    7  Occ=2.000000D+00  E=-8.790028D-01
              MO Center= -3.7D-02,  5.0D-01,  6.3D-02, r^2= 2.5D+00
   Bfn.  Coefficient  Atom+Function         Bfn.  Coefficient  Atom+Function  
  ----- ------------  ---------------      ----- ------------  ---------------
   138      0.364225   5 C  s               134      0.292886   5 C  s         
   243      0.227102   8 C  s               198      0.215641   7 C  s         
    51     -0.155413   2 C  s               247      0.131219   8 C  s         
   130     -0.116011   5 C  s                10     -0.111830   1 O  s         
    55     -0.106938   2 C  s                 6     -0.098241   1 O  s         

 Vector    8  Occ=2.000000D+00  E=-7.847341D-01
              MO Center= -6.0D-01,  3.6D-01, -4.5D-02, r^2= 3.4D+00
   Bfn.  Coefficient  Atom+Function         Bfn.  Coefficient  Atom+Function  
  ----- ------------  ---------------      ----- ------------  ---------------
   198      0.319074   7 C  s               202      0.209069   7 C  s         
   243     -0.193317   8 C  s                51      0.174788   2 C  s         
    55      0.153550   2 C  s               139     -0.152305   5 C  px        
   194     -0.133752   7 C  s                10     -0.115219   1 O  s         
   247     -0.114720   8 C  s               135     -0.097295   5 C  px        

 Vector    9  Occ=2.000000D+00  E=-7.624868D-01
              MO Center=  3.9D-01, -5.3D-01,  6.0D-02, r^2= 4.4D+00
   Bfn.  Coefficient  Atom+Function         Bfn.  Coefficient  Atom+Function  
  ----- ------------  ---------------      ----- ------------  ---------------
    51      0.318028   2 C  s                55      0.281166   2 C  s         
   243      0.253385   8 C  s               247      0.196122   8 C  s         
    10     -0.178661   1 O  s                 6     -0.141867   1 O  s         
    47     -0.129259   2 C  s               239     -0.106418   8 C  s         
     8     -0.101493   1 O  py               12     -0.077760   1 O  py        

 Vector   10  Occ=2.000000D+00  E=-6.615135D-01
              MO Center= -5.3D-02,  2.0D-01,  1.8D-01, r^2= 3.4D+00
   Bfn.  Coefficient  Atom+Function         Bfn.  Coefficient  Atom+Function  
  ----- ------------  ---------------      ----- ------------  ---------------
   134      0.261669   5 C  s                10     -0.205394   1 O  s         
     6     -0.148309   1 O  s               198     -0.136686   7 C  s         
   243     -0.131749   8 C  s               141      0.126333   5 C  pz        
   203      0.120316   7 C  px               55      0.111571   2 C  s         
   130     -0.106660   5 C  s               174      0.104061   6 H  s         

 Vector   11  Occ=2.000000D+00  E=-5.681981D-01
              MO Center= -4.0D-03, -3.3D-01,  1.1D-01, r^2= 3.0D+00
   Bfn.  Coefficient  Atom+Function         Bfn.  Coefficient  Atom+Function  
  ----- ------------  ---------------      ----- ------------  ---------------
     8      0.201637   1 O  py               12      0.195734   1 O  py        
   137     -0.159884   5 C  pz                4      0.138597   1 O  py        
    55      0.133606   2 C  s               133     -0.120690   5 C  pz        
   202     -0.119659   7 C  s               141     -0.117677   5 C  pz        
    53     -0.107123   2 C  py               52     -0.106445   2 C  px        

 Vector   12  Occ=2.000000D+00  E=-5.359383D-01
              MO Center=  4.1D-02, -1.9D-01,  1.0D-02, r^2= 3.9D+00
   Bfn.  Coefficient  Atom+Function         Bfn.  Coefficient  Atom+Function  
  ----- ------------  ---------------      ----- ------------  ---------------
     9      0.144158   1 O  pz               13      0.139267   1 O  pz        
   136     -0.134832   5 C  py              244      0.121643   8 C  px        
   203     -0.120336   7 C  px               92     -0.118495   3 H  s         
    54      0.112218   2 C  pz              134     -0.112380   5 C  s         
   199     -0.111673   7 C  px              248      0.100946   8 C  px        

 Vector   13  Occ=2.000000D+00  E=-5.315795D-01
              MO Center=  7.8D-02, -6.6D-01,  6.1D-03, r^2= 3.3D+00
   Bfn.  Coefficient  Atom+Function         Bfn.  Coefficient  Atom+Function  
  ----- ------------  ---------------      ----- ------------  ---------------
     7      0.203088   1 O  px               11      0.198935   1 O  px        
   138     -0.193999   5 C  s               202      0.191927   7 C  s         
   249     -0.140327   8 C  py                3      0.138775   1 O  px        
   135      0.115709   5 C  px               52      0.110726   2 C  px        
    53     -0.107368   2 C  py              398      0.096351  15 H  s         

 Vector   14  Occ=2.000000D+00  E=-4.929890D-01
              MO Center=  4.3D-02, -3.6D-01,  5.1D-02, r^2= 4.4D+00
   Bfn.  Coefficient  Atom+Function         Bfn.  Coefficient  Atom+Function  
  ----- ------------  ---------------      ----- ------------  ---------------
    54      0.143809   2 C  pz              398      0.122679  15 H  s         
    13      0.118667   1 O  pz                9      0.114019   1 O  pz        
    50      0.107889   2 C  pz              303     -0.108219  10 H  s         
    58      0.103870   2 C  pz              142     -0.097677   5 C  s         
   379     -0.097728  14 H  s               397      0.093509  15 H  s         

 Vector   15  Occ=2.000000D+00  E=-4.599934D-01
              MO Center= -6.7D-01,  9.7D-02,  2.2D-03, r^2= 4.4D+00
   Bfn.  Coefficient  Atom+Function         Bfn.  Coefficient  Atom+Function  
  ----- ------------  ---------------      ----- ------------  ---------------
   200      0.189233   7 C  py              204      0.162741   7 C  py        
    52     -0.154723   2 C  px              341      0.154300  12 H  s         
   196      0.139137   7 C  py              142     -0.129616   5 C  s         
   340      0.124327  12 H  s               111      0.117748   4 H  s         
    56     -0.117084   2 C  px               48     -0.114069   2 C  px        

 Vector   16  Occ=2.000000D+00  E=-4.530213D-01
              MO Center= -7.0D-01,  9.1D-01, -3.5D-01, r^2= 2.9D+00
   Bfn.  Coefficient  Atom+Function         Bfn.  Coefficient  Atom+Function  
  ----- ------------  ---------------      ----- ------------  ---------------
   201      0.228634   7 C  pz              205      0.194280   7 C  pz        
   360     -0.182708  13 H  s               197      0.165111   7 C  pz        
   359     -0.150096  13 H  s               246     -0.134237   8 C  pz        
   250     -0.123218   8 C  pz              322      0.106631  11 H  s         
   341      0.106586  12 H  s               251      0.102125   8 C  s         

 Vector   17  Occ=2.000000D+00  E=-4.415666D-01
              MO Center=  5.4D-01,  1.2D+00,  6.3D-02, r^2= 3.5D+00
   Bfn.  Coefficient  Atom+Function         Bfn.  Coefficient  Atom+Function  
  ----- ------------  ---------------      ----- ------------  ---------------
   284      0.204369   9 H  s               245      0.169287   8 C  py        
   283      0.160612   9 H  s               249      0.155670   8 C  py        
   246      0.141353   8 C  pz              241      0.124234   8 C  py        
     8      0.116787   1 O  py               12      0.115499   1 O  py        
   285      0.113042   9 H  s               250      0.110146   8 C  pz        

 Vector   18  Occ=2.000000D+00  E=-4.136415D-01
              MO Center=  8.5D-02,  5.1D-01,  4.3D-02, r^2= 3.9D+00
   Bfn.  Coefficient  Atom+Function         Bfn.  Coefficient  Atom+Function  
  ----- ------------  ---------------      ----- ------------  ---------------
   248      0.188723   8 C  px              244      0.178280   8 C  px        
   303      0.158300  10 H  s               135     -0.131445   5 C  px        
   139     -0.130535   5 C  px              240      0.128407   8 C  px        
    11     -0.122958   1 O  px              199      0.122800   7 C  px        
   379     -0.120125  14 H  s               302      0.117365  10 H  s         

 Vector   19  Occ=2.000000D+00  E=-4.065649D-01
              MO Center=  1.2D-01, -1.8D-01,  2.5D-02, r^2= 4.1D+00
   Bfn.  Coefficient  Atom+Function         Bfn.  Coefficient  Atom+Function  
  ----- ------------  ---------------      ----- ------------  ---------------
   136      0.154442   5 C  py               13     -0.152267   1 O  pz        
   142      0.141544   5 C  s                 9     -0.139645   1 O  pz        
    54      0.135025   2 C  pz              249     -0.130006   8 C  py        
    92     -0.122244   3 H  s                58      0.121371   2 C  pz        
   245     -0.112399   8 C  py              398      0.111595  15 H  s         

 Vector   20  Occ=2.000000D+00  E=-3.764415D-01
              MO Center=  1.8D-01, -1.8D-01, -3.9D-04, r^2= 3.0D+00
   Bfn.  Coefficient  Atom+Function         Bfn.  Coefficient  Atom+Function  
  ----- ------------  ---------------      ----- ------------  ---------------
    13      0.231207   1 O  pz                9      0.208969   1 O  pz        
   140      0.204022   5 C  py               11     -0.185325   1 O  px        
     7     -0.162242   1 O  px              141     -0.160204   5 C  pz        
    10     -0.159402   1 O  s               203     -0.159337   7 C  px        
   202     -0.148924   7 C  s               137     -0.143876   5 C  pz        

 Vector   21  Occ=2.000000D+00  E=-3.276810D-01
              MO Center=  1.3D-01, -6.4D-01, -6.4D-02, r^2= 2.3D+00
   Bfn.  Coefficient  Atom+Function         Bfn.  Coefficient  Atom+Function  
  ----- ------------  ---------------      ----- ------------  ---------------
    11      0.305516   1 O  px                7      0.280047   1 O  px        
    13      0.255063   1 O  pz                9      0.235757   1 O  pz        
     3      0.186453   1 O  px                5      0.156581   1 O  pz        
   139     -0.152742   5 C  px              206      0.131603   7 C  s         
   199      0.127887   7 C  px              111      0.111682   4 H  s         

 Vector   22  Occ=0.000000D+00  E=-1.625923D-03
              MO Center= -8.0D-01, -8.6D-02,  8.8D-01, r^2= 1.9D+01
   Bfn.  Coefficient  Atom+Function         Bfn.  Coefficient  Atom+Function  
  ----- ------------  ---------------      ----- ------------  ---------------
   206      5.199631   7 C  s                59      3.272578   2 C  s         
   251      3.208108   8 C  s               142     -2.859205   5 C  s         
   381     -1.112514  14 H  s               400     -1.115676  15 H  s         
   343     -1.011534  12 H  s               305     -0.932543  10 H  s         
   113     -0.862329   4 H  s               177     -0.834743   6 H  s         

 Vector   23  Occ=0.000000D+00  E= 1.198190D-02
              MO Center= -1.2D-01, -3.5D-02,  3.8D-01, r^2= 2.4D+01
   Bfn.  Coefficient  Atom+Function         Bfn.  Coefficient  Atom+Function  
  ----- ------------  ---------------      ----- ------------  ---------------
   251     -5.316063   8 C  s                59      5.016821   2 C  s         
   113     -1.676773   4 H  s               286      1.609455   9 H  s         
   400     -1.497218  15 H  s               324      1.163961  11 H  s         
    94     -1.108699   3 H  s               206     -0.996002   7 C  s         
   343      0.999642  12 H  s                55      0.778414   2 C  s         

 Vector   24  Occ=0.000000D+00  E= 1.638409D-02
              MO Center= -7.3D-01,  3.0D-01,  4.1D-01, r^2= 2.1D+01
   Bfn.  Coefficient  Atom+Function         Bfn.  Coefficient  Atom+Function  
  ----- ------------  ---------------      ----- ------------  ---------------
   206      9.651029   7 C  s               142     -6.533175   5 C  s         
   251     -4.754231   8 C  s               177      2.774663   6 H  s         
   143      2.061181   5 C  px              362     -1.806791  13 H  s         
   144      1.723451   5 C  py              381     -1.720169  14 H  s         
   343     -1.305518  12 H  s               145     -1.196951   5 C  pz        

 Vector   25  Occ=0.000000D+00  E= 1.986938D-02
              MO Center=  2.8D-01,  1.7D-01, -2.6D-01, r^2= 2.2D+01
   Bfn.  Coefficient  Atom+Function         Bfn.  Coefficient  Atom+Function  
  ----- ------------  ---------------      ----- ------------  ---------------
   251      6.735995   8 C  s               142     -3.543606   5 C  s         
   206     -2.796535   7 C  s               177      2.523628   6 H  s         
    94     -2.059377   3 H  s               324     -1.921013  11 H  s         
   381      1.538003  14 H  s               305     -1.441971  10 H  s         
   343      1.402253  12 H  s                59      1.259678   2 C  s         

 Vector   26  Occ=0.000000D+00  E= 3.906391D-02
              MO Center=  3.0D-02, -1.0D-01,  1.3D-01, r^2= 2.5D+01
   Bfn.  Coefficient  Atom+Function         Bfn.  Coefficient  Atom+Function  
  ----- ------------  ---------------      ----- ------------  ---------------
   142      5.037557   5 C  s               206     -4.733513   7 C  s         
   251     -3.250562   8 C  s                94     -3.151678   3 H  s         
   381      2.794743  14 H  s               343     -2.627457  12 H  s         
   305      2.420446  10 H  s               286     -1.845025   9 H  s         
    59      1.743113   2 C  s               208      1.392584   7 C  py        

 Vector   27  Occ=0.000000D+00  E= 4.133404D-02
              MO Center= -2.7D-01,  4.6D-01, -8.6D-02, r^2= 2.4D+01
   Bfn.  Coefficient  Atom+Function         Bfn.  Coefficient  Atom+Function  
  ----- ------------  ---------------      ----- ------------  ---------------
   142     12.067922   5 C  s               251     -8.665650   8 C  s         
    59     -4.462707   2 C  s               286      3.498257   9 H  s         
   362     -3.063074  13 H  s               113      2.692302   4 H  s         
   177     -2.453204   6 H  s               206      1.964096   7 C  s         
   252      1.805858   8 C  px               61     -1.568972   2 C  py        

 Vector   28  Occ=0.000000D+00  E= 4.601855D-02
              MO Center=  6.2D-01, -2.9D-01,  8.8D-03, r^2= 2.3D+01
   Bfn.  Coefficient  Atom+Function         Bfn.  Coefficient  Atom+Function  
  ----- ------------  ---------------      ----- ------------  ---------------
   206      5.879325   7 C  s               142     -5.252640   5 C  s         
   400      3.416028  15 H  s               305     -3.111972  10 H  s         
   324      2.625915  11 H  s                94     -1.901096   3 H  s         
    59     -1.793028   2 C  s               207      1.284677   7 C  px        
   343     -1.150504  12 H  s               381     -1.131666  14 H  s         

 Vector   29  Occ=0.000000D+00  E= 4.914408D-02
              MO Center= -5.2D-01, -1.7D-01,  6.2D-01, r^2= 2.2D+01
   Bfn.  Coefficient  Atom+Function         Bfn.  Coefficient  Atom+Function  
  ----- ------------  ---------------      ----- ------------  ---------------
   142     13.117293   5 C  s               206     -8.187232   7 C  s         
   177     -5.947730   6 H  s               400      3.517500  15 H  s         
   343      3.111415  12 H  s                59     -2.882102   2 C  s         
   305      2.462554  10 H  s               381      2.320686  14 H  s         
   113     -2.242148   4 H  s               144     -2.139782   5 C  py        

 Vector   30  Occ=0.000000D+00  E= 5.525068D-02
              MO Center= -3.0D-01,  7.8D-01, -8.8D-01, r^2= 2.1D+01
   Bfn.  Coefficient  Atom+Function         Bfn.  Coefficient  Atom+Function  
  ----- ------------  ---------------      ----- ------------  ---------------
   251      8.252520   8 C  s               206     -7.388734   7 C  s         
   324     -4.823662  11 H  s               142      3.993189   5 C  s         
    59     -3.915020   2 C  s               362      3.880067  13 H  s         
   381     -3.191406  14 H  s               144     -2.573807   5 C  py        
   143     -2.552565   5 C  px              113      2.351052   4 H  s         

 Vector   31  Occ=0.000000D+00  E= 7.364731D-02
              MO Center= -8.5D-01,  8.2D-02,  2.2D-01, r^2= 2.6D+01
   Bfn.  Coefficient  Atom+Function         Bfn.  Coefficient  Atom+Function  
  ----- ------------  ---------------      ----- ------------  ---------------
   251      8.031078   8 C  s               381     -6.359561  14 H  s         
   113      5.621015   4 H  s               343      5.222208  12 H  s         
   286     -4.366665   9 H  s                59     -3.139391   2 C  s         
   142     -2.832518   5 C  s               305      2.770212  10 H  s         
    94     -2.688476   3 H  s               252     -2.670039   8 C  px        

 Vector   32  Occ=0.000000D+00  E= 7.776217D-02
              MO Center=  7.2D-02, -7.2D-01,  1.1D-01, r^2= 1.8D+01
   Bfn.  Coefficient  Atom+Function         Bfn.  Coefficient  Atom+Function  
  ----- ------------  ---------------      ----- ------------  ---------------
   142     14.814070   5 C  s               206     -9.882395   7 C  s         
   251     -6.380053   8 C  s               145     -3.746009   5 C  pz        
   177      3.524199   6 H  s               207     -2.754852   7 C  px        
   113     -2.728152   4 H  s                94      2.598376   3 H  s         
    14      2.581750   1 O  s               362      2.408758  13 H  s         

 Vector   33  Occ=0.000000D+00  E= 9.253774D-02
              MO Center= -2.2D-01,  9.8D-02, -1.8D-01, r^2= 1.7D+01
   Bfn.  Coefficient  Atom+Function         Bfn.  Coefficient  Atom+Function  
  ----- ------------  ---------------      ----- ------------  ---------------
   142     24.539020   5 C  s               251    -12.913254   8 C  s         
   206    -12.506968   7 C  s               400      4.986384  15 H  s         
   144      4.957629   5 C  py              252      3.442537   8 C  px        
   207     -3.339654   7 C  px              145     -2.769022   5 C  pz        
    62     -2.726635   2 C  pz              343      2.677069  12 H  s         

 Vector   34  Occ=0.000000D+00  E= 9.992343D-02
              MO Center=  2.1D-01,  1.3D-01,  1.2D-01, r^2= 1.7D+01
   Bfn.  Coefficient  Atom+Function         Bfn.  Coefficient  Atom+Function  
  ----- ------------  ---------------      ----- ------------  ---------------
   142      9.296858   5 C  s               251     -4.279483   8 C  s         
   253      4.125556   8 C  py              208      2.646247   7 C  py        
   286     -2.641836   9 H  s               144     -2.187255   5 C  py        
    60     -1.964092   2 C  px               94      1.941930   3 H  s         
   305      1.855152  10 H  s                14     -1.827076   1 O  s         

 Vector   35  Occ=0.000000D+00  E= 1.006924D-01
              MO Center= -1.5D-01,  1.7D-01,  5.6D-01, r^2= 1.7D+01
   Bfn.  Coefficient  Atom+Function         Bfn.  Coefficient  Atom+Function  
  ----- ------------  ---------------      ----- ------------  ---------------
   142     11.055261   5 C  s                59     -6.855355   2 C  s         
   362     -4.465891  13 H  s               206     -4.032404   7 C  s         
   209     -3.884877   7 C  pz              144     -3.522421   5 C  py        
    61     -3.238886   2 C  py              324      3.090517  11 H  s         
   176     -2.653008   6 H  s                60      2.459657   2 C  px        

 Vector   36  Occ=0.000000D+00  E= 1.156154D-01
              MO Center= -1.5D-01,  6.2D-01,  3.7D-02, r^2= 1.7D+01
   Bfn.  Coefficient  Atom+Function         Bfn.  Coefficient  Atom+Function  
  ----- ------------  ---------------      ----- ------------  ---------------
   206     20.442658   7 C  s               251    -11.781534   8 C  s         
   143      7.426591   5 C  px              144      5.413277   5 C  py        
    59      5.334967   2 C  s               145      5.011011   5 C  pz        
   207      4.982096   7 C  px              208     -4.511481   7 C  py        
   253      4.289179   8 C  py              142     -3.931522   5 C  s         

 Vector   37  Occ=0.000000D+00  E= 1.206583D-01
              MO Center= -5.9D-02,  5.2D-01,  2.8D-01, r^2= 1.8D+01
   Bfn.  Coefficient  Atom+Function         Bfn.  Coefficient  Atom+Function  
  ----- ------------  ---------------      ----- ------------  ---------------
   206     13.476014   7 C  s               142     -7.854099   5 C  s         
   143      6.813414   5 C  px              144     -5.104029   5 C  py        
   207      4.864264   7 C  px              286     -4.653084   9 H  s         
   254      4.384285   8 C  pz              113     -3.994345   4 H  s         
   253      3.671364   8 C  py               59     -3.173174   2 C  s         

 Vector   38  Occ=0.000000D+00  E= 1.258224D-01
              MO Center= -7.1D-01, -9.7D-03,  1.7D-01, r^2= 2.0D+01
   Bfn.  Coefficient  Atom+Function         Bfn.  Coefficient  Atom+Function  
  ----- ------------  ---------------      ----- ------------  ---------------
   251     11.236982   8 C  s                59      7.929393   2 C  s         
   142      6.991104   5 C  s               143     -4.271980   5 C  px        
   362     -3.705020  13 H  s               305     -3.481510  10 H  s         
    14     -3.436516   1 O  s               113     -3.279349   4 H  s         
   207     -2.934664   7 C  px              304     -2.547457  10 H  s         

 Vector   39  Occ=0.000000D+00  E= 1.340542D-01
              MO Center= -1.4D-01,  2.9D-01, -1.0D-02, r^2= 1.8D+01
   Bfn.  Coefficient  Atom+Function         Bfn.  Coefficient  Atom+Function  
  ----- ------------  ---------------      ----- ------------  ---------------
   142     20.523054   5 C  s               251    -14.070313   8 C  s         
   206     -9.800527   7 C  s               362      4.371402  13 H  s         
   113      4.173116   4 H  s                59      4.120344   2 C  s         
   400     -4.110082  15 H  s               252      3.351413   8 C  px        
   253      3.240924   8 C  py              381     -3.146941  14 H  s         

 Vector   40  Occ=0.000000D+00  E= 1.384997D-01
              MO Center=  1.4D-01, -5.0D-01,  4.6D-01, r^2= 2.3D+01
   Bfn.  Coefficient  Atom+Function         Bfn.  Coefficient  Atom+Function  
  ----- ------------  ---------------      ----- ------------  ---------------
    59     15.802062   2 C  s               251    -11.074348   8 C  s         
   142     -8.217479   5 C  s               113     -6.500844   4 H  s         
   305      3.652006  10 H  s               138     -3.369421   5 C  s         
   286      3.249760   9 H  s               400     -3.183856  15 H  s         
   304      2.791091  10 H  s               112     -2.555182   4 H  s         

 Vector   41  Occ=0.000000D+00  E= 1.414146D-01
              MO Center= -3.4D-01, -4.0D-01, -9.0D-02, r^2= 1.9D+01
   Bfn.  Coefficient  Atom+Function         Bfn.  Coefficient  Atom+Function  
  ----- ------------  ---------------      ----- ------------  ---------------
   206    -21.646043   7 C  s               142     20.045246   5 C  s         
   251     17.024789   8 C  s               144    -10.506871   5 C  py        
    59     -9.413850   2 C  s                61     -7.224410   2 C  py        
   143     -5.962611   5 C  px              324     -5.367366  11 H  s         
    94     -5.287031   3 H  s               177     -5.124560   6 H  s         

 Vector   42  Occ=0.000000D+00  E= 1.469107D-01
              MO Center= -4.5D-01,  4.0D-01,  6.7D-01, r^2= 1.9D+01
   Bfn.  Coefficient  Atom+Function         Bfn.  Coefficient  Atom+Function  
  ----- ------------  ---------------      ----- ------------  ---------------
   206     15.040164   7 C  s               142    -13.420260   5 C  s         
   177     10.882849   6 H  s               145     -7.924779   5 C  pz        
   381     -5.706537  14 H  s               251      4.980856   8 C  s         
   343     -4.571018  12 H  s               209      4.356087   7 C  pz        
   113      4.299513   4 H  s               400     -3.633825  15 H  s         

 Vector   43  Occ=0.000000D+00  E= 1.497865D-01
              MO Center= -4.9D-01,  9.9D-01,  5.1D-01, r^2= 2.1D+01
   Bfn.  Coefficient  Atom+Function         Bfn.  Coefficient  Atom+Function  
  ----- ------------  ---------------      ----- ------------  ---------------
   251    -14.178704   8 C  s               142     14.069238   5 C  s         
    59    -10.982035   2 C  s               206     10.426554   7 C  s         
   381     -5.611909  14 H  s               177     -5.188332   6 H  s         
   343     -4.257735  12 H  s               305      4.177911  10 H  s         
   207     -3.791983   7 C  px              380     -3.558857  14 H  s         

 Vector   44  Occ=0.000000D+00  E= 1.591020D-01
              MO Center=  1.8D-01, -6.5D-01,  7.6D-02, r^2= 2.0D+01
   Bfn.  Coefficient  Atom+Function         Bfn.  Coefficient  Atom+Function  
  ----- ------------  ---------------      ----- ------------  ---------------
   206     15.697718   7 C  s               143     14.761036   5 C  px        
   142    -13.196446   5 C  s               144     10.007412   5 C  py        
    94      7.900314   3 H  s                59      7.561937   2 C  s         
   251     -7.026087   8 C  s               381     -6.860383  14 H  s         
   208     -6.452009   7 C  py               60     -5.674476   2 C  px        

 Vector   45  Occ=0.000000D+00  E= 1.628681D-01
              MO Center= -3.1D-01, -4.2D-01, -5.1D-01, r^2= 1.7D+01
   Bfn.  Coefficient  Atom+Function         Bfn.  Coefficient  Atom+Function  
  ----- ------------  ---------------      ----- ------------  ---------------
   142     21.110739   5 C  s               251    -18.693371   8 C  s         
    59    -15.428326   2 C  s               206      6.795596   7 C  s         
   362     -5.551573  13 H  s               252      4.233586   8 C  px        
   209     -4.172748   7 C  pz              144     -4.006514   5 C  py        
   207      3.949526   7 C  px               61     -3.811390   2 C  py        

 Vector   46  Occ=0.000000D+00  E= 1.747233D-01
              MO Center=  1.1D-01,  1.5D+00, -1.6D-01, r^2= 1.8D+01
   Bfn.  Coefficient  Atom+Function         Bfn.  Coefficient  Atom+Function  
  ----- ------------  ---------------      ----- ------------  ---------------
   206     49.670823   7 C  s               142    -30.167552   5 C  s         
   251    -20.905309   8 C  s               207     14.706566   7 C  px        
   143     14.566081   5 C  px              252     10.732626   8 C  px        
   305     -9.634418  10 H  s               381      7.819335  14 H  s         
   286      6.954091   9 H  s               145      5.420771   5 C  pz        

 Vector   47  Occ=0.000000D+00  E= 1.799567D-01
              MO Center= -3.2D-01,  7.9D-01,  3.7D-01, r^2= 1.8D+01
   Bfn.  Coefficient  Atom+Function         Bfn.  Coefficient  Atom+Function  
  ----- ------------  ---------------      ----- ------------  ---------------
   251     62.435023   8 C  s               142    -51.323160   5 C  s         
   144    -20.318728   5 C  py               59    -13.679417   2 C  s         
   143    -13.252893   5 C  px              253    -10.992213   8 C  py        
   252     -9.999706   8 C  px              381     -7.648487  14 H  s         
   145      6.964370   5 C  pz              113      5.058080   4 H  s         

 Vector   48  Occ=0.000000D+00  E= 1.918869D-01
              MO Center= -3.0D-01,  9.9D-01, -2.7D-01, r^2= 1.3D+01
   Bfn.  Coefficient  Atom+Function         Bfn.  Coefficient  Atom+Function  
  ----- ------------  ---------------      ----- ------------  ---------------
   142     40.029816   5 C  s               206    -18.709899   7 C  s         
   251    -13.989503   8 C  s                14     -7.537621   1 O  s         
   207     -5.899864   7 C  px              177     -4.195917   6 H  s         
   253      3.855147   8 C  py              285     -3.243986   9 H  s         
   144      3.220371   5 C  py              113      2.712387   4 H  s         

 Vector   49  Occ=0.000000D+00  E= 2.026924D-01
              MO Center= -1.1D+00, -4.5D-01,  1.7D-02, r^2= 1.3D+01
   Bfn.  Coefficient  Atom+Function         Bfn.  Coefficient  Atom+Function  
  ----- ------------  ---------------      ----- ------------  ---------------
   142     42.064784   5 C  s               251    -23.473290   8 C  s         
   206    -23.330422   7 C  s               144      6.764055   5 C  py        
   380      6.552207  14 H  s               145     -6.417446   5 C  pz        
   362      4.960839  13 H  s               207     -4.849495   7 C  px        
    59     -4.756611   2 C  s               253      4.578721   8 C  py        

 Vector   50  Occ=0.000000D+00  E= 2.128021D-01
              MO Center=  4.3D-01, -1.3D+00,  3.6D-01, r^2= 1.1D+01
   Bfn.  Coefficient  Atom+Function         Bfn.  Coefficient  Atom+Function  
  ----- ------------  ---------------      ----- ------------  ---------------
   206     12.193276   7 C  s               143      8.512878   5 C  px        
   251     -6.873925   8 C  s               142     -6.010493   5 C  s         
   145      4.876974   5 C  pz               93      4.733849   3 H  s         
   399     -4.276004  15 H  s               177     -3.867328   6 H  s         
    59      3.778038   2 C  s                60     -2.943841   2 C  px        

 Vector   51  Occ=0.000000D+00  E= 2.182462D-01
              MO Center=  5.4D-01,  6.1D-01, -6.0D-01, r^2= 1.2D+01
   Bfn.  Coefficient  Atom+Function         Bfn.  Coefficient  Atom+Function  
  ----- ------------  ---------------      ----- ------------  ---------------
   142     17.899758   5 C  s               251    -10.307935   8 C  s         
    14     -6.447855   1 O  s               206     -6.357433   7 C  s         
   304      4.433148  10 H  s               253      4.334210   8 C  py        
   145     -4.261272   5 C  pz               55      4.172845   2 C  s         
    59      4.182312   2 C  s               286     -3.969425   9 H  s         

 Vector   52  Occ=0.000000D+00  E= 2.234437D-01
              MO Center= -1.9D-01,  5.8D-02,  2.2D-01, r^2= 1.5D+01
   Bfn.  Coefficient  Atom+Function         Bfn.  Coefficient  Atom+Function  
  ----- ------------  ---------------      ----- ------------  ---------------
   251     -9.121782   8 C  s               142      8.830925   5 C  s         
   144      8.022701   5 C  py              206     -6.792288   7 C  s         
   381     -4.551824  14 H  s               113      4.119952   4 H  s         
   207     -4.124070   7 C  px              145     -4.091659   5 C  pz        
   304      3.717929  10 H  s               285     -3.617202   9 H  s         

 Vector   53  Occ=0.000000D+00  E= 2.333879D-01
              MO Center= -6.7D-01,  3.6D-01,  4.2D-01, r^2= 1.2D+01
   Bfn.  Coefficient  Atom+Function         Bfn.  Coefficient  Atom+Function  
  ----- ------------  ---------------      ----- ------------  ---------------
   251     25.938184   8 C  s               144    -14.170725   5 C  py        
   142    -12.352006   5 C  s                59     -9.048004   2 C  s         
   143     -7.909723   5 C  px              342      5.289038  12 H  s         
   206     -4.368617   7 C  s               253     -4.249476   8 C  py        
    14     -4.030923   1 O  s               252     -3.605524   8 C  px        

 Vector   54  Occ=0.000000D+00  E= 2.397271D-01
              MO Center= -1.1D-01, -3.4D-01,  4.1D-01, r^2= 1.4D+01
   Bfn.  Coefficient  Atom+Function         Bfn.  Coefficient  Atom+Function  
  ----- ------------  ---------------      ----- ------------  ---------------
   251     13.879336   8 C  s                59      9.351492   2 C  s         
   143     -5.700583   5 C  px              285     -5.422191   9 H  s         
   399     -5.228303  15 H  s                93     -4.839122   3 H  s         
    55      4.515817   2 C  s               113     -4.069390   4 H  s         
   380     -4.037403  14 H  s               142     -3.102368   5 C  s         

 Vector   55  Occ=0.000000D+00  E= 2.504877D-01
              MO Center=  7.1D-02,  2.0D-01,  1.4D-01, r^2= 1.3D+01
   Bfn.  Coefficient  Atom+Function         Bfn.  Coefficient  Atom+Function  
  ----- ------------  ---------------      ----- ------------  ---------------
   142     26.540607   5 C  s               206    -23.527678   7 C  s         
    59     -8.281999   2 C  s               207     -7.777737   7 C  px        
   143     -7.682760   5 C  px              251     -7.501321   8 C  s         
   304      5.847273  10 H  s               112      4.631840   4 H  s         
    55     -4.245403   2 C  s               176     -3.589378   6 H  s         

 Vector   56  Occ=0.000000D+00  E= 2.651320D-01
              MO Center= -5.7D-01, -2.8D-01,  2.9D-01, r^2= 1.1D+01
   Bfn.  Coefficient  Atom+Function         Bfn.  Coefficient  Atom+Function  
  ----- ------------  ---------------      ----- ------------  ---------------
   142     24.811612   5 C  s               176     -8.934429   6 H  s         
   144     -5.343629   5 C  py              361     -4.783814  13 H  s         
   143     -4.572763   5 C  px              251     -4.385010   8 C  s         
   112     -4.042826   4 H  s               202      3.467187   7 C  s         
    55      3.354181   2 C  s               206     -3.264338   7 C  s         

 Vector   57  Occ=0.000000D+00  E= 2.741451D-01
              MO Center=  2.6D-02, -2.9D-02,  1.8D-01, r^2= 1.0D+01
   Bfn.  Coefficient  Atom+Function         Bfn.  Coefficient  Atom+Function  
  ----- ------------  ---------------      ----- ------------  ---------------
   251     17.858613   8 C  s               206     -9.143950   7 C  s         
    59     -8.642661   2 C  s               142      5.778778   5 C  s         
   138      5.122151   5 C  s               285     -4.453525   9 H  s         
   399      4.266722  15 H  s               304     -3.791584  10 H  s         
   144     -3.623697   5 C  py              112      3.269642   4 H  s         

 Vector   58  Occ=0.000000D+00  E= 2.820381D-01
              MO Center=  1.4D-01,  2.4D-01, -3.6D-01, r^2= 1.2D+01
   Bfn.  Coefficient  Atom+Function         Bfn.  Coefficient  Atom+Function  
  ----- ------------  ---------------      ----- ------------  ---------------
   251     31.531494   8 C  s               206    -22.363631   7 C  s         
    59    -18.483596   2 C  s               142     12.104248   5 C  s         
   144     -9.391206   5 C  py              323     -7.554165  11 H  s         
   252     -6.815476   8 C  px              143     -6.441663   5 C  px        
   285     -6.305865   9 H  s               207     -5.837427   7 C  px        

 Vector   59  Occ=0.000000D+00  E= 2.962105D-01
              MO Center=  4.8D-02,  3.5D-01,  3.7D-02, r^2= 1.2D+01
   Bfn.  Coefficient  Atom+Function         Bfn.  Coefficient  Atom+Function  
  ----- ------------  ---------------      ----- ------------  ---------------
   142     31.823981   5 C  s               251    -20.168560   8 C  s         
   206    -14.050320   7 C  s               381      6.549056  14 H  s         
   176     -6.477606   6 H  s               323      5.723366  11 H  s         
    14     -5.388881   1 O  s               304      5.261912  10 H  s         
   177     -4.803611   6 H  s               380      4.723244  14 H  s         

 Vector   60  Occ=0.000000D+00  E= 2.971432D-01
              MO Center= -6.2D-01,  4.7D-01, -2.6D-01, r^2= 1.3D+01
   Bfn.  Coefficient  Atom+Function         Bfn.  Coefficient  Atom+Function  
  ----- ------------  ---------------      ----- ------------  ---------------
   206     45.546142   7 C  s               251    -21.360986   8 C  s         
   143     12.289378   5 C  px               59    -11.973968   2 C  s         
   342     -9.049145  12 H  s               361     -8.420515  13 H  s         
   207      7.720807   7 C  px              142     -6.361169   5 C  s         
   138      6.170420   5 C  s               203     -5.821629   7 C  px        

 Vector   61  Occ=0.000000D+00  E= 3.102681D-01
              MO Center=  1.3D-01, -1.0D-01,  2.8D-01, r^2= 1.0D+01
   Bfn.  Coefficient  Atom+Function         Bfn.  Coefficient  Atom+Function  
  ----- ------------  ---------------      ----- ------------  ---------------
   142     33.520068   5 C  s                59    -16.209838   2 C  s         
   251    -12.799367   8 C  s               206     -7.581665   7 C  s         
   176     -6.514700   6 H  s               177     -5.642480   6 H  s         
   143     -4.247761   5 C  px              113      3.973044   4 H  s         
   138      3.942042   5 C  s               285      3.931713   9 H  s         

 Vector   62  Occ=0.000000D+00  E= 3.224662D-01
              MO Center= -2.1D-02,  1.1D-01, -3.4D-01, r^2= 1.2D+01
   Bfn.  Coefficient  Atom+Function         Bfn.  Coefficient  Atom+Function  
  ----- ------------  ---------------      ----- ------------  ---------------
   206     12.351275   7 C  s               142     -8.298866   5 C  s         
    59      6.962148   2 C  s               144      6.367968   5 C  py        
   361     -5.416294  13 H  s               143      4.198801   5 C  px        
[...]

 Vector  257  Occ=0.000000D+00  E= 9.992600D+00  Symmetry=a"
              MO Center=  2.8D-01, -5.6D-02,  3.1D-12, r^2= 2.9D+00
   Bfn.  Coefficient  Atom+Function         Bfn.  Coefficient  Atom+Function  
  ----- ------------  ---------------      ----- ------------  ---------------
    72      7.113489   3 C  py              117     -7.113489   4 C  py        
    71      5.084338   3 C  px              116     -5.084338   4 C  px        
   101     -4.894733   3 C  fxxy            146      4.894733   4 C  fxxy      
   106     -3.882491   3 C  fyyy            151      3.882491   4 C  fyyy      
    28     -3.415584   2 C  pz              100     -3.005603   3 C  fxxx      

 Vector  258  Occ=0.000000D+00  E= 1.003731D+01  Symmetry=a'
              MO Center=  2.9D-01,  1.6D-01,  2.9D-12, r^2= 2.7D+00
   Bfn.  Coefficient  Atom+Function         Bfn.  Coefficient  Atom+Function  
  ----- ------------  ---------------      ----- ------------  ---------------
    29      9.973303   2 C  s                72      7.522468   3 C  py        
   117      7.522468   4 C  py               74     -4.567061   3 C  s         
   119     -4.567061   4 C  s                73     -4.393800   3 C  pz        
   118      4.393800   4 C  pz              106     -4.092841   3 C  fyyy      
   151     -4.092841   4 C  fyyy             25      3.472874   2 C  s         

 Vector  259  Occ=0.000000D+00  E= 1.005833D+01  Symmetry=a'
              MO Center=  8.9D-02, -1.7D-01, -7.4D-12, r^2= 2.8D+00
   Bfn.  Coefficient  Atom+Function         Bfn.  Coefficient  Atom+Function  
  ----- ------------  ---------------      ----- ------------  ---------------
    29     12.454383   2 C  s                26     -5.438729   2 C  px        
    74     -5.012091   3 C  s               119     -5.012091   4 C  s         
    77      4.639257   3 C  pz              122     -4.639257   4 C  pz        
    72     -4.407871   3 C  py              117     -4.407871   4 C  py        
    30      4.177263   2 C  px               73     -4.068696   3 C  pz        

 Vector  260  Occ=0.000000D+00  E= 1.011448D+01  Symmetry=a"
              MO Center=  1.9D-01, -9.0D-02,  4.1D-12, r^2= 2.8D+00
   Bfn.  Coefficient  Atom+Function         Bfn.  Coefficient  Atom+Function  
  ----- ------------  ---------------      ----- ------------  ---------------
    32      9.670922   2 C  pz               28     -8.178914   2 C  pz        
    74     -8.200128   3 C  s               119      8.200128   4 C  s         
    71      4.737755   3 C  px              116     -4.737755   4 C  px        
    64      4.659481   2 C  fzzz             51      4.588974   2 C  dxz       
    57      4.235567   2 C  fxxz             62      4.160518   2 C  fyyz      

 Vector  261  Occ=0.000000D+00  E= 1.013019D+01  Symmetry=a'
              MO Center=  7.9D-02,  3.5D-02, -3.3D-13, r^2= 3.3D+00
   Bfn.  Coefficient  Atom+Function         Bfn.  Coefficient  Atom+Function  
  ----- ------------  ---------------      ----- ------------  ---------------
    71      8.467832   3 C  px              116      8.467832   4 C  px        
    29     -5.497881   2 C  s               103     -4.756861   3 C  fxyy      
   148     -4.756861   4 C  fxyy            105     -4.583565   3 C  fxzz      
   150     -4.583565   4 C  fxzz             30     -4.369206   2 C  px        
   100     -4.167575   3 C  fxxx            145     -4.167575   4 C  fxxx      

 Vector  262  Occ=0.000000D+00  E= 1.031411D+01  Symmetry=a'
              MO Center= -1.7D-01,  3.9D-02, -2.4D-13, r^2= 2.4D+00
   Bfn.  Coefficient  Atom+Function         Bfn.  Coefficient  Atom+Function  
  ----- ------------  ---------------      ----- ------------  ---------------
    26     12.004492   2 C  px               71     -5.534034   3 C  px        
   116     -5.534034   4 C  px               58     -5.332877   2 C  fxyy      
    60     -4.983503   2 C  fxzz             73     -4.969140   3 C  pz        
   118      4.969140   4 C  pz               55     -4.132324   2 C  fxxx      
     2      2.880551   1 H  s                 8      2.698383   1 H  px        

 Vector  263  Occ=0.000000D+00  E= 1.038499D+01  Symmetry=a'
              MO Center= -7.2D-02, -2.0D-02,  7.7D-12, r^2= 2.6D+00
   Bfn.  Coefficient  Atom+Function         Bfn.  Coefficient  Atom+Function  
  ----- ------------  ---------------      ----- ------------  ---------------
    26     10.408753   2 C  px               60     -6.784228   2 C  fxzz      
    73      6.615248   3 C  pz              118     -6.615248   4 C  pz        
    33      6.222934   2 C  s                29     -5.441330   2 C  s         
    58     -5.023765   2 C  fxyy             55     -4.897447   2 C  fxxx      
    78     -4.336122   3 C  s               123     -4.336122   4 C  s         

 Vector  264  Occ=0.000000D+00  E= 1.041956D+01  Symmetry=a"
              MO Center= -2.4D-01,  3.2D-02, -2.3D-12, r^2= 1.6D+00
   Bfn.  Coefficient  Atom+Function         Bfn.  Coefficient  Atom+Function  
  ----- ------------  ---------------      ----- ------------  ---------------
    28     14.010961   2 C  pz               32    -11.888204   2 C  pz        
    74      8.041122   3 C  s               119     -8.041122   4 C  s         
    64     -7.675789   2 C  fzzz             57     -7.400558   2 C  fxxz      
    62     -7.050677   2 C  fyyz             71      5.315996   3 C  px        
   116     -5.315996   4 C  px               51     -4.831535   2 C  dxz       

 Vector  265  Occ=0.000000D+00  E= 1.057377D+01  Symmetry=a"
              MO Center=  1.7D-01,  6.5D-03, -5.3D-12, r^2= 2.8D+00
   Bfn.  Coefficient  Atom+Function         Bfn.  Coefficient  Atom+Function  
  ----- ------------  ---------------      ----- ------------  ---------------
    32     11.327623   2 C  pz               73    -11.237235   3 C  pz        
   118    -11.237235   4 C  pz               77      8.541799   3 C  pz        
   122      8.541799   4 C  pz              109      5.614089   3 C  fzzz      
   154      5.614089   4 C  fzzz            102      5.275516   3 C  fxxz      
   147      5.275516   4 C  fxxz             75      4.892338   3 C  px        

 Vector  266  Occ=0.000000D+00  E= 2.902037D+01  Symmetry=a'
              MO Center= -3.3D-02,  1.3D-02, -1.1D-12, r^2= 1.4D+00
   Bfn.  Coefficient  Atom+Function         Bfn.  Coefficient  Atom+Function  
  ----- ------------  ---------------      ----- ------------  ---------------
    70      2.473934   3 C  s               115      2.473934   4 C  s         
    25      2.284277   2 C  s                65     -1.176374   3 C  s         
   110     -1.176374   4 C  s                20     -1.130942   2 C  s         
    66      0.924589   3 C  s               111      0.924589   4 C  s         
    21      0.899353   2 C  s                93     -0.688787   3 C  dzz       

 Vector  267  Occ=0.000000D+00  E= 2.910497D+01  Symmetry=a"
              MO Center=  2.0D-01,  8.7D-04,  1.0D-12, r^2= 1.8D+00
   Bfn.  Coefficient  Atom+Function         Bfn.  Coefficient  Atom+Function  
  ----- ------------  ---------------      ----- ------------  ---------------
    70      2.888691   3 C  s               115     -2.888691   4 C  s         
    65     -1.427610   3 C  s               110      1.427610   4 C  s         
    74      1.294333   3 C  s               119     -1.294333   4 C  s         
    66      1.147449   3 C  s               111     -1.147449   4 C  s         
    32     -1.003583   2 C  pz               87     -0.773849   3 C  dzz       

 Vector  268  Occ=0.000000D+00  E= 2.929604D+01  Symmetry=a'
              MO Center= -3.0D-01,  2.8D-02,  9.6D-14, r^2= 7.5D-01
   Bfn.  Coefficient  Atom+Function         Bfn.  Coefficient  Atom+Function  
  ----- ------------  ---------------      ----- ------------  ---------------
    25      3.249499   2 C  s                20     -1.676243   2 C  s         
    70     -1.563773   3 C  s               115     -1.563773   4 C  s         
    21      1.383613   2 C  s                46     -0.931088   2 C  dyy       
    42     -0.921187   2 C  dzz              37     -0.878292   2 C  dxx       
    40     -0.842215   2 C  dyy              65      0.804786   3 C  s         


   alpha - beta orbital overlaps 
   ----------------------------- 


   alpha      1      2      3      4      5      6      7      8      9     10
    beta      1      2      3      4      5      6      7      8      9     10
 overlap   0.999  1.000  0.999  0.996  1.000  0.995  0.994  0.983  0.992  0.995


   alpha     11     12     13     14     15     16     17     18     19     20
    beta     11     12     13     14     15     16     17     18     19     20
 overlap   0.996  0.999  0.827  0.909  0.997  0.994  0.988  0.989  0.958  0.959


   alpha     21     22     23     24     25     26     27     28     29     30
    beta     21     22     24     23     25     26     27     28     29     30
 overlap   0.974  0.961  0.903  0.992  0.977  0.833  0.989  0.902  0.966  0.932


   alpha     31     32     33     34     35     36     37     38     39     40
    beta     32     31     33     34     35     36     37     38     39     40
 overlap   0.991  0.937  0.992  0.933  0.991  0.992  0.917  0.972  0.997  0.990


   alpha     41     42     43     44     45     46     47     48     49     50
    beta     41     42     44     43     45     46     47     48     49     50
 overlap   0.998  0.976  0.974  0.998  0.997  0.990  0.998  0.847  0.845  0.999


   alpha     51     52     53     54     55     56     57     58     59     60
    beta     51     52     53     54     55     56     57     58     59     60
 overlap   0.941  0.936  0.981  0.996  0.893  0.990  0.982  0.993  0.955  0.851


   alpha     61     62     63     64     65     66     67     68     69     70
    beta     63     62     61     64     65     67     66     69     68     70
 overlap   0.904  0.910  0.824  0.992  0.983  0.990  0.911  0.989  0.951  0.961


   alpha     71     72     73     74     75     76     77     78     79     80
    beta     71     72     74     73     75     77     76     78     80     79
 overlap   0.994  0.966  0.906  0.996  0.928  0.962  0.987  0.959  0.956  0.973


   alpha     81     82     83     84     85     86     87     88     89     90
    beta     81     82     83     84     85     86     87     88     90     91
 overlap   0.959  0.986  0.973  0.875  0.936  0.824  0.964  0.966  0.767  0.999


   alpha     91     92     93     94     95     96     97     98     99    100
    beta     89     92     93     94     95     96     97     98     99    100
 overlap   0.699  0.990  0.997  0.997  0.927  0.930  0.993  0.999  0.999  0.988


   alpha    101    102    103    104    105    106    107    108    109    110
    beta    101    102    103    104    105    106    107    108    109    110
 overlap   0.989  0.997  0.998  0.976  0.974  0.994  0.997  0.985  0.951  0.976


   alpha    111    112    113    114    115    116    117    118    119    120
    beta    111    114    112    113    115    116    117    118    119    120
 overlap   0.999  0.975  0.998  0.999  0.995  0.999  0.989  1.000  0.996  0.999


   alpha    121    122    123    124    125    126    127    128    129    130
    beta    121    122    123    124    126    125    127    128    129    130
 overlap   0.998  0.985  0.997  0.985  0.991  0.999  0.991  0.998  0.999  0.998


   alpha    131    132    133    134    135    136    137    138    139    140
    beta    131    132    133    134    135    136    137    138    139    140
 overlap   0.994  0.994  0.996  0.999  0.996  0.917  0.918  0.999  0.987  0.998


   alpha    141    142    143    144    145    146    147    148    149    150
    beta    141    142    143    144    145    146    147    148    149    150
 overlap   0.977  0.989  0.990  0.972  0.965  0.999  0.990  0.999  0.998  0.820


   alpha    151    152    153    154    155    156    157    158    159    160
    beta    151    152    153    154    155    156    157    158    159    160
 overlap   0.834  0.999  0.964  0.998  0.953  0.990  0.955  0.987  0.988  0.997


   alpha    161    162    163    164    165    166    167    168    169    170
    beta    161    162    163    164    165    166    167    168    169    170
 overlap   0.992  0.973  0.984  0.994  0.972  0.999  0.990  1.000  0.991  0.999


   alpha    171    172    173    174    175    176    177    178    179    180
    beta    171    172    173    174    175    176    177    178    179    180
 overlap   0.999  0.999  0.999  0.999  0.998  1.000  0.997  0.998  0.986  0.999


   alpha    181    182    183    184    185    186    187    188    189    190
    beta    181    182    183    184    185    187    186    188    189    190
 overlap   0.954  0.967  0.997  0.998  0.997  0.969  0.999  0.999  0.966  0.934


   alpha    191    192    193    194    195    196    197    198    199    200
    beta    191    192    193    194    195    196    197    198    199    200
 overlap   0.997  0.990  0.998  0.978  0.975  0.999  0.999  0.998  0.998  0.999


   alpha    201    202    203    204    205    206    207    208    209    210
    beta    201    202    203    204    205    206    207    208    209    210
 overlap   1.000  0.999  0.999  0.979  0.985  0.999  0.991  0.999  0.999  0.999


   alpha    211    212    213    214    215    216    217    218    219    220
    beta    211    212    213    215    213    216    217    218    219    220
 overlap   0.973  0.986  0.700  0.939  0.713  0.908  0.959  0.999  0.981  0.963


   alpha    221    222    223    224    225    226    227    228    229    230
    beta    221    222    223    224    225    226    227    228    229    230
 overlap   0.997  0.973  0.987  0.974  0.999  0.998  0.991  0.998  0.980  0.988


   alpha    231    232    233    234    235    236    237    238    239    240
    beta    232    231    233    234    235    236    237    238    239    240
 overlap   0.985  0.991  0.928  0.925  0.999  0.987  0.999  0.998  0.987  0.998


   alpha    241    242    243    244    245    246    247    248    249    250
    beta    241    242    243    245    244    247    246    248    249    250
 overlap   0.999  0.999  0.994  0.991  1.000  0.950  0.995  0.994  0.903  0.877


   alpha    251    252    253    254    255    256    257    258    259    260
    beta    251    252    253    254    255    256    257    258    259    260
 overlap   0.999  0.995  0.989  1.000  0.989  0.996  0.996  0.985  0.987  0.996


   alpha    261    262    263    264    265    266    267    268
    beta    261    262    263    264    265    266    267    268
 overlap   0.999  0.942  0.943  0.995  0.998  0.986  1.000  0.986

     --------------------------
     Expectation value of S2:  
     --------------------------
      <S2> =      0.7555 (Exact =     0.7500)


 center of mass
 --------------
 x =  -0.03590193 y =   0.01106351 z =   0.00000000

 moments of inertia (a.u.)
 ------------------
         218.332727190370          -0.000000000000           0.000000000000
          -0.000000000000         243.883291852522           0.000000000000
           0.000000000000           0.000000000000          48.164844196580

     Multipole analysis of the density
     ---------------------------------

     L   x y z        total         alpha         beta         nuclear
     -   - - -        -----         -----         ----         -------
     0   0 0 0     -0.000000    -13.000000    -12.000000     25.000000

     1   1 0 0      0.052435      0.417226     -0.364791      0.000000
     1   0 1 0     -0.077690     -0.099346      0.021656      0.000000
     1   0 0 1      0.000000     -0.000000      0.000000      0.000000

     2   2 0 0    -15.534821    -23.313664    -21.208058     28.986901
     2   1 1 0      0.248025      0.241800     -0.421478      0.427703
     2   1 0 1     -0.000000     -0.000000     -0.000000      0.000000
     2   0 2 0    -16.299915    -15.051220    -12.438950     11.190255
     2   0 1 1     -0.000000     -0.000000     -0.000000      0.000000
     2   0 0 2    -15.472511    -75.727870    -73.741201    133.996561


 Task  times  cpu:       52.7s     wall:       52.7s


                                NWChem Input Module
                                -------------------


 Summary of allocated global arrays
-----------------------------------
  No active global arrays



                         GA Statistics for process    0
                         ------------------------------

       create   destroy   get      put      acc     scatter   gather  read&inc
calls: 1121     1121     1.93e+05 2.31e+04 1.06e+05    0        0     4716     
number of processes/call 1.05e+00 1.17e+00 1.02e+00 0.00e+00 0.00e+00
bytes total:             1.70e+09 1.91e+08 8.73e+08 0.00e+00 0.00e+00 3.77e+04
bytes remote:            3.65e+08 5.82e+07 1.40e+08 0.00e+00 0.00e+00 0.00e+00
Max memory consumed for GA by this process: 17584216 bytes

MA_summarize_allocated_blocks: starting scan ...
heap block 'gridpts', handle 31, address 0x5600a409a898:
	type of elements:		double precision
	number of elements:		34380292
	address of client space:	0x5600a409a900
	index for client space:		13290291
	total number of bytes:		275042448
MA_summarize_allocated_blocks: scan completed: 1 heap block, 0 stack blocks
MA usage statistics:

	allocation statistics:
					      heap	     stack
					      ----	     -----
	current number of blocks	         1	         0
	maximum number of blocks	        22	        57
	current total bytes		 275042448	         0
	maximum total bytes		 277864464	  37458664
	maximum total K-bytes		    277865	     37459
	maximum total M-bytes		       278	        38


                                     CITATION
                                     --------
                Please cite the following reference when publishing
                           results obtained with NWChem:

                 M. Valiev, E.J. Bylaska, N. Govind, K. Kowalski,
              T.P. Straatsma, H.J.J. van Dam, D. Wang, J. Nieplocha,
                        E. Apra, T.L. Windus, W.A. de Jong
                 "NWChem: a comprehensive and scalable open-source
                  solution for large scale molecular simulations"
                      Comput. Phys. Commun. 181, 1477 (2010)
                           doi:10.1016/j.cpc.2010.04.018

                                      AUTHORS
                                      -------
          E. Apra, E. J. Bylaska, W. A. de Jong, N. Govind, K. Kowalski,
       T. P. Straatsma, M. Valiev, H. J. J. van Dam, D. Wang, T. L. Windus,
        J. Hammond, J. Autschbach, K. Bhaskaran-Nair, J. Brabec, K. Lopata,
    S. A. Fischer, S. Krishnamoorthy, M. Jacquelin, W. Ma, M. Klemm, O. Villa,
      Y. Chen, V. Anisimov, F. Aquino, S. Hirata, M. T. Hackler, V. Konjkov,
            D. Mejia-Rodriguez, T. Risthaus, M. Malagoli, A. Marenich,
   A. Otero-de-la-Roza, J. Mullin, P. Nichols, R. Peverati, J. Pittner, Y. Zhao,
        P.-D. Fan, A. Fonari, M. J. Williamson, R. J. Harrison, J. R. Rehr,
      M. Dupuis, D. Silverstein, D. M. A. Smith, J. Nieplocha, V. Tipparaju,
    M. Krishnan, B. E. Van Kuiken, A. Vazquez-Mayagoitia, L. Jensen, M. Swart,
      Q. Wu, T. Van Voorhis, A. A. Auer, M. Nooijen, L. D. Crosby, E. Brown,
      G. Cisneros, G. I. Fann, H. Fruchtl, J. Garza, K. Hirao, R. A. Kendall,
      J. A. Nichols, K. Tsemekhman, K. Wolinski, J. Anchell, D. E. Bernholdt,
      P. Borowski, T. Clark, D. Clerc, H. Dachsel, M. J. O. Deegan, K. Dyall,
    D. Elwood, E. Glendening, M. Gutowski, A. C. Hess, J. Jaffe, B. G. Johnson,
     J. Ju, R. Kobayashi, R. Kutteh, Z. Lin, R. Littlefield, X. Long, B. Meng,
      T. Nakajima, S. Niu, L. Pollack, M. Rosing, K. Glaesemann, G. Sandrone,
      M. Stave, H. Taylor, G. Thomas, J. H. van Lenthe, A. T. Wong, Z. Zhang.

 Total times  cpu:      473.4s     wall:      473.5s
