 argument  1 = /home/list1234/source/nwchem-6.8.1-release/QA/tests/dft_cr2/dft_cr2.nw



============================== echo of input deck ==============================
# $Id$

echo

title "Cr2 dimer - Antiferromagnetic solution"

start dft_cr2
geometry cra
cr 0 0 0
symmetry c2v
end
geometry crb
cr 0 0 0
symmetry c2v
end
geometry cr2
cr 0 0 0
cr 0 0 1.7
symmetry c2v
end

basis spherical
* library "Wachters+f"
end
driver
clear
end
dft
convergence energy 1d-9
mult 7
xc pbeop
end
set quickguess t

set geometry cra
dft
mult 7
vectors input atomic output cra.mos
end
task dft
set geometry crb
dft
mult -7
vectors input atomic output crb.mos
end
task dft

set geometry cr2
dft
odft
mult 1
smear
vectors input fragment cra.mos crb.mos output cr2.mos
end
task dft

task dft optimize

unset dft:converged

title "Cr2 dimer - Closed Shell solution"

dft
mult 1
vectors input atomic output cr2cs.mos
end

task dft optimize
================================================================================


                                         
                                         


              Northwest Computational Chemistry Package (NWChem) 6.8
              ------------------------------------------------------


                    Environmental Molecular Sciences Laboratory
                       Pacific Northwest National Laboratory
                                Richland, WA 99352

                              Copyright (c) 1994-2018
                       Pacific Northwest National Laboratory
                            Battelle Memorial Institute

             NWChem is an open-source computational chemistry package
                        distributed under the terms of the
                      Educational Community License (ECL) 2.0
             A copy of the license is included with this distribution
                              in the LICENSE.TXT file

                                  ACKNOWLEDGMENT
                                  --------------

            This software and its documentation were developed at the
            EMSL at Pacific Northwest National Laboratory, a multiprogram
            national laboratory, operated for the U.S. Department of Energy
            by Battelle under Contract Number DE-AC05-76RL01830. Support
            for this work was provided by the Department of Energy Office
            of Biological and Environmental Research, Office of Basic
            Energy Sciences, and the Office of Advanced Scientific Computing.


           Job information
           ---------------

    hostname        = list1234-B360M-H
    program         = /home/list1234/source/nwchem-6.8.1-release/bin/LINUX64/nwchem
    date            = Sun Jun 30 05:51:33 2019

    compiled        = Sun_Jun_30_05:21:11_2019
    source          = /home/list1234/source/nwchem-6.8.1-release
    nwchem branch   = Development
    nwchem revision = N/A
    ga revision     = 5.6.5
    use scalapack   = T
    input           = /home/list1234/source/nwchem-6.8.1-release/QA/tests/dft_cr2/dft_cr2.nw
    prefix          = dft_cr2.
    data base       = ./dft_cr2.db
    status          = startup
    nproc           =        4
    time left       =     -1s



           Memory information
           ------------------

    heap     =   86247168 doubles =    658.0 Mbytes
    stack    =   86247165 doubles =    658.0 Mbytes
    global   =  172494336 doubles =   1316.0 Mbytes (distinct from heap & stack)
    total    =  344988669 doubles =   2632.1 Mbytes
    verify   = yes
    hardfail = no 


           Directory information
           ---------------------

  0 permanent = .
  0 scratch   = .




                                NWChem Input Module
                                -------------------


                      Cr2 dimer - Antiferromagnetic solution
                      --------------------------------------

 Scaling coordinates for geometry "cra" by  1.889725989
 (inverse scale =  0.529177249)



                               Geometry "cra" -> ""
                               --------------------

 Output coordinates in angstroms (scale by  1.889725989 to convert to a.u.)

  No.       Tag          Charge          X              Y              Z
 ---- ---------------- ---------- -------------- -------------- --------------
    1 cr                  24.0000     0.00000000     0.00000000     0.00000000

      Atomic Mass 
      ----------- 

      cr                51.940500


 Effective nuclear repulsion energy (a.u.)       0.0000000000

            Nuclear Dipole moment (a.u.) 
            ----------------------------
        X                 Y               Z
 ---------------- ---------------- ----------------
     0.0000000000     0.0000000000     0.0000000000

      Symmetry information
      --------------------

 Group name             C2v       
 Group number             16
 Group order               4
 No. of unique centers     1

      Symmetry unique atoms

     1


            XYZ format geometry
            -------------------
     1
 cra
 cr                    0.00000000     0.00000000     0.00000000


 Scaling coordinates for geometry "crb" by  1.889725989
 (inverse scale =  0.529177249)



                              Geometry "crb" -> "   "
                              -----------------------

 Output coordinates in angstroms (scale by  1.889725989 to convert to a.u.)

  No.       Tag          Charge          X              Y              Z
 ---- ---------------- ---------- -------------- -------------- --------------
    1 cr                  24.0000     0.00000000     0.00000000     0.00000000

      Atomic Mass 
      ----------- 

      cr                51.940500


 Effective nuclear repulsion energy (a.u.)       0.0000000000

            Nuclear Dipole moment (a.u.) 
            ----------------------------
        X                 Y               Z
 ---------------- ---------------- ----------------
     0.0000000000     0.0000000000     0.0000000000

      Symmetry information
      --------------------

 Group name             C2v       
 Group number             16
 Group order               4
 No. of unique centers     1

      Symmetry unique atoms

     1


            XYZ format geometry
            -------------------
     1
 crb
 cr                    0.00000000     0.00000000     0.00000000


 Scaling coordinates for geometry "cr2" by  1.889725989
 (inverse scale =  0.529177249)

 Turning off AUTOSYM since
 SYMMETRY directive was detected!


          ------
          auto-z
          ------
  no constraints, skipping    0.0000000000000000     
  no constraints, skipping    0.0000000000000000     


                              Geometry "cr2" -> "   "
                              -----------------------

 Output coordinates in angstroms (scale by  1.889725989 to convert to a.u.)

  No.       Tag          Charge          X              Y              Z
 ---- ---------------- ---------- -------------- -------------- --------------
    1 cr                  24.0000     0.00000000     0.00000000    -0.85000000
    2 cr                  24.0000     0.00000000     0.00000000     0.85000000

      Atomic Mass 
      ----------- 

      cr                51.940500


 Effective nuclear repulsion energy (a.u.)     179.2977031905

            Nuclear Dipole moment (a.u.) 
            ----------------------------
        X                 Y               Z
 ---------------- ---------------- ----------------
     0.0000000000     0.0000000000     0.0000000000

      Symmetry information
      --------------------

 Group name             C2v       
 Group number             16
 Group order               4
 No. of unique centers     2

      Symmetry unique atoms

     1    2



                                Z-matrix (autoz)
                                -------- 

 Units are Angstrom for bonds and degrees for angles

      Type          Name      I     J     K     L     M      Value
      ----------- --------  ----- ----- ----- ----- ----- ----------
    1 Stretch                  1     2                       1.70000


            XYZ format geometry
            -------------------
     2
 cr2
 cr                    0.00000000     0.00000000    -0.85000000
 cr                    0.00000000     0.00000000     0.85000000

 ==============================================================================
                                internuclear distances
 ------------------------------------------------------------------------------
       center one      |      center two      | atomic units |  angstroms
 ------------------------------------------------------------------------------
    2 cr               |   1 cr               |     3.21253  |     1.70000
 ------------------------------------------------------------------------------
                         number of included internuclear distances:          1
 ==============================================================================





 Summary of "ao basis" -> "" (spherical)
 ------------------------------------------------------------------------------
       Tag                 Description            Shells   Functions and Types
 ---------------- ------------------------------  ------  ---------------------
 *                         Wachters+f                 on all atoms 



  Deleted DRIVER restart files 


                                 NWChem DFT Module
                                 -----------------


                      Cr2 dimer - Antiferromagnetic solution


                      Basis "ao basis" -> "ao basis" (spherical)
                      -----
  cr (Chromium)
  -------------
            Exponent  Coefficients 
       -------------- ---------------------------------------------------------
  1 S  2.36658000E+05  0.000270
  1 S  3.53640000E+04  0.002080
  1 S  8.05831000E+03  0.010710
  1 S  2.29423000E+03  0.042840
  1 S  7.56118000E+02  0.134200
  1 S  2.77000000E+02  0.307980

  2 S  1.10179000E+02  0.413610
  2 S  4.63710000E+01  0.222410

  3 S  1.48215000E+01  1.000000

  4 S  6.13262000E+00  1.000000

  5 S  1.62959000E+00  1.000000

  6 S  6.41177000E-01  1.000000

  7 S  9.95110000E-02  1.000000

  8 S  3.75880000E-02  1.000000

  9 P  1.47877000E+03  0.002280
  9 P  3.51490000E+02  0.018360
  9 P  1.13826000E+02  0.085030

 10 P  4.31567000E+01  0.247610
 10 P  1.77775000E+01  0.427180
 10 P  7.66128000E+00  0.345790

 11 P  3.07765000E+00  1.000000

 12 P  1.26619000E+00  0.574900
 12 P  4.93534000E-01  0.284730

 13 P  1.81010000E-01  1.000000

 14 P  5.79200000E-02  1.000000

 15 D  3.40221000E+01  0.023280
 15 D  9.43161000E+00  0.125640
 15 D  3.15918000E+00  0.338970

 16 D  1.07995000E+00  1.000000

 17 D  3.46582000E-01  1.000000

 18 D  9.12000000E-02  1.000000

 19 F  2.73132030E+00  0.173786
 19 F  9.79514300E-01  0.597338
 19 F  4.19439700E-01  0.392940



 Summary of "ao basis" -> "ao basis" (spherical)
 ------------------------------------------------------------------------------
       Tag                 Description            Shells   Functions and Types
 ---------------- ------------------------------  ------  ---------------------
 cr                        Wachters+f               19       53   8s6p4d1f




 Summary of "ao basis" -> "ao basis" (spherical)
 ------------------------------------------------------------------------------
       Tag                 Description            Shells   Functions and Types
 ---------------- ------------------------------  ------  ---------------------
 cr                        Wachters+f               19       53   8s6p4d1f


      Symmetry analysis of basis
      --------------------------

        a1         24
        a2          5
        b1         12
        b2         12

  Caching 1-el integrals 
  itol2e modified to match energy
  convergence criterion.
  tol_rho modified to match energy
  convergence criterion.

            General Information
            -------------------
          SCF calculation type: DFT
          Wavefunction type:  spin polarized.
          No. of atoms     :     1
          No. of electrons :    24
           Alpha electrons :    15
            Beta electrons :     9
          Charge           :     0
          Spin multiplicity:     7
          Use of symmetry is: on ; symmetry adaption is: on 
          Maximum number of iterations:  30
          AO basis - number of functions:    53
                     number of shells:    19
          Convergence on energy requested:  1.00D-09
          Convergence on density requested:  1.00D-05
          Convergence on gradient requested:  5.00D-04

              XC Information
              --------------
                        PBEOP Method XC Functional
          PerdewBurkeErnzerhof Exchange Functional  1.000          
                    OP_PBE96 Correlation Potential  1.000          

             Grid Information
             ----------------
          Grid used for XC integration:  medium    
          Radial quadrature: Mura-Knowles        
          Angular quadrature: Lebedev. 
          Tag              B.-S. Rad. Rad. Pts. Rad. Cut. Ang. Pts.
          ---              ---------- --------- --------- ---------
          cr                  1.40      112           8.0       590
          Grid pruning is: on 
          Number of quadrature shells:   112
          Spatial weights used:  Erf1

          Convergence Information
          -----------------------
          Convergence aids based upon iterative change in 
          total energy or number of iterations. 
          Levelshifting, if invoked, occurs when the 
          HOMO/LUMO gap drops below (HL_TOL):  1.00D-02
          DIIS, if invoked, will attempt to extrapolate 
          using up to (NFOCK): 10 stored Fock matrices.

                    Damping( 0%)  Levelshifting(0.5)       DIIS
                  --------------- ------------------- ---------------
          dE  on:    start            ASAP                start   
          dE off:    2 iters         30 iters            30 iters 


      Screening Tolerance Information
      -------------------------------
          Density screening/tol_rho:  1.00D-12
          AO Gaussian exp screening on grid/accAOfunc:  21
          CD Gaussian exp screening on grid/accCDfunc:  20
          XC Gaussian exp screening on grid/accXCfunc:  20
          Schwarz screening/accCoul:  1.00D-10


      Superposition of Atomic Density Guess
      -------------------------------------

 Sum of atomic energies:       -1043.14453372
   Time after variat. SCF:      0.1
   Time prior to 1st pass:      0.1

 Grid_pts file          = ./dft_cr2.gridpts.0
 Record size in doubles =  12289        No. of grid_pts per rec  =   3070
 Max. records in memory =      7        Max. recs in file   = 253312716


 !! scf_movecs_sym_adapt:   45 vectors were symmetry contaminated

  Symmetry fudging

 !! scf_movecs_sym_adapt:   43 vectors were symmetry contaminated


 !! scf_movecs_sym_adapt:   40 vectors were symmetry contaminated

  Symmetry fudging

 !! scf_movecs_sym_adapt:   39 vectors were symmetry contaminated


           Memory utilization after 1st SCF pass: 
           Heap Space remaining (MW):       51.77            51767344
          Stack Space remaining (MW):       86.25            86246620

   convergence    iter        energy       DeltaE   RMS-Dens  Diis-err    time
 ---------------- ----- ----------------- --------- --------- ---------  ------
 d= 0,ls=0.0,diis     1  -1044.5197039058 -1.04D+03  1.90D-02  1.45D+00     0.3
                                                     1.80D-02  4.24D-01

 !! scf_movecs_sym_adapt:   44 vectors were symmetry contaminated

  Symmetry fudging

 !! scf_movecs_sym_adapt:   41 vectors were symmetry contaminated


 !! scf_movecs_sym_adapt:   41 vectors were symmetry contaminated

  Symmetry fudging

 !! scf_movecs_sym_adapt:   30 vectors were symmetry contaminated

 d= 0,ls=0.0,diis     2  -1044.0476810276  4.72D-01  1.31D-02  8.60D-01     0.5
                                                     2.14D-03  3.68D-01

 !! scf_movecs_sym_adapt:   40 vectors were symmetry contaminated

  Symmetry fudging

 !! scf_movecs_sym_adapt:   32 vectors were symmetry contaminated


 !! scf_movecs_sym_adapt:   40 vectors were symmetry contaminated

  Symmetry fudging

 !! scf_movecs_sym_adapt:   33 vectors were symmetry contaminated

 d= 0,ls=0.0,diis     3  -1044.0489524615 -1.27D-03  7.87D-03  5.96D-01     0.6
                                                     1.98D-03  3.93D-01

 !! scf_movecs_sym_adapt:   40 vectors were symmetry contaminated

  Symmetry fudging

 !! scf_movecs_sym_adapt:   35 vectors were symmetry contaminated


 !! scf_movecs_sym_adapt:   38 vectors were symmetry contaminated

  Symmetry fudging

 !! scf_movecs_sym_adapt:   33 vectors were symmetry contaminated

 d= 0,ls=0.0,diis     4  -1044.1502997772 -1.01D-01  2.36D-03  6.80D-02     0.8
                                                     2.14D-04  1.81D-02

 !! scf_movecs_sym_adapt:   40 vectors were symmetry contaminated

  Symmetry fudging

 !! scf_movecs_sym_adapt:   38 vectors were symmetry contaminated


 !! scf_movecs_sym_adapt:   40 vectors were symmetry contaminated

  Symmetry fudging

 !! scf_movecs_sym_adapt:   31 vectors were symmetry contaminated

 d= 0,ls=0.0,diis     5  -1044.1599213208 -9.62D-03  3.07D-04  8.28D-05     1.0
                                                     3.55D-05  5.41D-05

 !! scf_movecs_sym_adapt:   40 vectors were symmetry contaminated

  Symmetry fudging

 !! scf_movecs_sym_adapt:   39 vectors were symmetry contaminated


 !! scf_movecs_sym_adapt:   39 vectors were symmetry contaminated

  Symmetry fudging

 !! scf_movecs_sym_adapt:   31 vectors were symmetry contaminated

  Resetting Diis
 d= 0,ls=0.0,diis     6  -1044.1599363422 -1.50D-05  8.98D-05  5.45D-05     1.2
                                                     1.29D-05  1.45D-05

 !! scf_movecs_sym_adapt:   40 vectors were symmetry contaminated

  Symmetry fudging

 !! scf_movecs_sym_adapt:   38 vectors were symmetry contaminated


 !! scf_movecs_sym_adapt:   40 vectors were symmetry contaminated

  Symmetry fudging

 !! scf_movecs_sym_adapt:   33 vectors were symmetry contaminated

 d= 0,ls=0.0,diis     7  -1044.1599480612 -1.17D-05  4.12D-06  1.29D-08     1.4
                                                     2.66D-06  2.02D-08

 !! scf_movecs_sym_adapt:   39 vectors were symmetry contaminated

  Symmetry fudging

 !! scf_movecs_sym_adapt:   36 vectors were symmetry contaminated


 !! scf_movecs_sym_adapt:   39 vectors were symmetry contaminated

  Symmetry fudging

 !! scf_movecs_sym_adapt:   36 vectors were symmetry contaminated

 d= 0,ls=0.0,diis     8  -1044.1599480510  1.02D-08  2.77D-06  7.91D-08     1.5
                                                     6.74D-07  3.34D-08

 !! scf_movecs_sym_adapt:   38 vectors were symmetry contaminated

  Symmetry fudging

 !! scf_movecs_sym_adapt:   38 vectors were symmetry contaminated


 !! scf_movecs_sym_adapt:   38 vectors were symmetry contaminated

  Symmetry fudging

 !! scf_movecs_sym_adapt:   37 vectors were symmetry contaminated

 d= 0,ls=0.0,diis     9  -1044.1599480658 -1.48D-08  3.07D-07  2.47D-09     1.7
                                                     7.00D-07  1.93D-09

 !! scf_movecs_sym_adapt:   38 vectors were symmetry contaminated

  Symmetry fudging

 !! scf_movecs_sym_adapt:   38 vectors were symmetry contaminated


 !! scf_movecs_sym_adapt:   38 vectors were symmetry contaminated

  Symmetry fudging

 !! scf_movecs_sym_adapt:   36 vectors were symmetry contaminated

 d= 0,ls=0.0,diis    10  -1044.1599480664 -6.28D-10  3.47D-08  4.92D-12     1.9
                                                     1.38D-07  7.28D-11


         Total DFT energy =    -1044.159948066425
      One electron energy =    -1438.396426195516
           Coulomb energy =      442.731908802613
    Exchange-Corr. energy =      -48.495430673522
 Nuclear repulsion energy =        0.000000000000

 Numeric. integr. density =       24.000000022990

     Total iterative time =      1.8s



                  Occupations of the irreducible representations
                  ----------------------------------------------

                     irrep           alpha         beta
                     --------     --------     --------
                     a1                8.0          5.0
                     a2                1.0          0.0
                     b1                3.0          2.0
                     b2                3.0          2.0


                    DFT Final Alpha Molecular Orbital Analysis
                    ------------------------------------------

 Vector    1  Occ=1.000000D+00  E=-2.144090D+02  Symmetry=a1
              MO Center=  1.1D-30, -3.0D-30, -6.2D-19, r^2= 1.5D-03
   Bfn.  Coefficient  Atom+Function         Bfn.  Coefficient  Atom+Function  
  ----- ------------  ---------------      ----- ------------  ---------------
     2      0.616893  1 Cr s                  1      0.457608  1 Cr s          

 Vector    2  Occ=1.000000D+00  E=-2.414530D+01  Symmetry=a1
              MO Center=  5.5D-17,  2.4D-17, -1.9D-15, r^2= 2.9D-02
   Bfn.  Coefficient  Atom+Function         Bfn.  Coefficient  Atom+Function  
  ----- ------------  ---------------      ----- ------------  ---------------
     4      0.618030  1 Cr s                  3      0.492274  1 Cr s          
     2     -0.338598  1 Cr s                  1     -0.152180  1 Cr s          
     5      0.065508  1 Cr s          

 Vector    3  Occ=1.000000D+00  E=-2.052575D+01  Symmetry=b1
              MO Center= -5.5D-17,  2.3D-33, -5.0D-17, r^2= 2.3D-02
   Bfn.  Coefficient  Atom+Function         Bfn.  Coefficient  Atom+Function  
  ----- ------------  ---------------      ----- ------------  ---------------
    12      0.913416  1 Cr px                 9      0.100014  1 Cr px         
    15      0.076923  1 Cr px         

 Vector    4  Occ=1.000000D+00  E=-2.052575D+01  Symmetry=a1
              MO Center= -7.4D-20, -7.4D-20,  1.8D-15, r^2= 2.3D-02
   Bfn.  Coefficient  Atom+Function         Bfn.  Coefficient  Atom+Function  
  ----- ------------  ---------------      ----- ------------  ---------------
    14      0.913416  1 Cr pz                11      0.100014  1 Cr pz         
    17      0.076923  1 Cr pz         

 Vector    5  Occ=1.000000D+00  E=-2.052575D+01  Symmetry=b2
              MO Center= -5.6D-31, -2.4D-17, -5.1D-17, r^2= 2.3D-02
   Bfn.  Coefficient  Atom+Function         Bfn.  Coefficient  Atom+Function  
  ----- ------------  ---------------      ----- ------------  ---------------
    13      0.913416  1 Cr py                10      0.100014  1 Cr py         
    16      0.076923  1 Cr py         

 Vector    6  Occ=1.000000D+00  E=-2.681762D+00  Symmetry=a1
              MO Center=  2.8D-17,  9.6D-19,  1.8D-15, r^2= 2.7D-01
   Bfn.  Coefficient  Atom+Function         Bfn.  Coefficient  Atom+Function  
  ----- ------------  ---------------      ----- ------------  ---------------
     5      0.657559  1 Cr s                  6      0.590640  1 Cr s          
     4     -0.493604  1 Cr s                  3     -0.287939  1 Cr s          
     2      0.138411  1 Cr s                  1      0.057548  1 Cr s          

 Vector    7  Occ=1.000000D+00  E=-1.677230D+00  Symmetry=b2
              MO Center=  3.8D-33, -4.9D-19, -1.0D-15, r^2= 3.1D-01
   Bfn.  Coefficient  Atom+Function         Bfn.  Coefficient  Atom+Function  
  ----- ------------  ---------------      ----- ------------  ---------------
    19      0.789780  1 Cr py                13     -0.362810  1 Cr py         
    16      0.324496  1 Cr py                10     -0.036974  1 Cr py         

 Vector    8  Occ=1.000000D+00  E=-1.677230D+00  Symmetry=b1
              MO Center= -3.2D-17,  1.8D-32, -8.2D-16, r^2= 3.1D-01
   Bfn.  Coefficient  Atom+Function         Bfn.  Coefficient  Atom+Function  
  ----- ------------  ---------------      ----- ------------  ---------------
    18      0.789780  1 Cr px                12     -0.362810  1 Cr px         
    15      0.324496  1 Cr px                 9     -0.036974  1 Cr px         

 Vector    9  Occ=1.000000D+00  E=-1.677230D+00  Symmetry=a1
              MO Center=  3.0D-33,  2.7D-33,  7.1D-16, r^2= 3.1D-01
   Bfn.  Coefficient  Atom+Function         Bfn.  Coefficient  Atom+Function  
  ----- ------------  ---------------      ----- ------------  ---------------
    20      0.789780  1 Cr pz                14     -0.362810  1 Cr pz         
    17      0.324496  1 Cr pz                11     -0.036974  1 Cr pz         

 Vector   10  Occ=1.000000D+00  E=-1.519870D-01  Symmetry=a1
              MO Center=  7.0D-23,  7.4D-23,  2.6D-13, r^2= 3.7D+00
   Bfn.  Coefficient  Atom+Function         Bfn.  Coefficient  Atom+Function  
  ----- ------------  ---------------      ----- ------------  ---------------
     7      0.666146  1 Cr s                  8      0.482662  1 Cr s          
     6     -0.313283  1 Cr s                  5     -0.243318  1 Cr s          
     4      0.138440  1 Cr s                  3      0.074239  1 Cr s          
     2     -0.034507  1 Cr s          

 Vector   11  Occ=1.000000D+00  E=-1.286269D-01  Symmetry=a1
              MO Center= -1.7D-31,  7.9D-31, -3.6D-13, r^2= 8.6D-01
   Bfn.  Coefficient  Atom+Function         Bfn.  Coefficient  Atom+Function  
  ----- ------------  ---------------      ----- ------------  ---------------
    36      0.377827  1 Cr d  2              31      0.369613  1 Cr d  2       
    41      0.346479  1 Cr d  2              46      0.183229  1 Cr d  2       
    34      0.158788  1 Cr d  0              29      0.155336  1 Cr d  0       
    39      0.145614  1 Cr d  0              44      0.077005  1 Cr d  0       

 Vector   12  Occ=1.000000D+00  E=-1.286269D-01  Symmetry=b1
              MO Center=  1.8D-20, -1.1D-31,  4.7D-14, r^2= 8.6D-01
   Bfn.  Coefficient  Atom+Function         Bfn.  Coefficient  Atom+Function  
  ----- ------------  ---------------      ----- ------------  ---------------
    35      0.409838  1 Cr d  1              30      0.400927  1 Cr d  1       
    40      0.375834  1 Cr d  1              45      0.198753  1 Cr d  1       

 Vector   13  Occ=1.000000D+00  E=-1.286269D-01  Symmetry=b2
              MO Center=  2.6D-31,  1.8D-20,  7.4D-14, r^2= 8.6D-01
   Bfn.  Coefficient  Atom+Function         Bfn.  Coefficient  Atom+Function  
  ----- ------------  ---------------      ----- ------------  ---------------
    33      0.409838  1 Cr d -1              28      0.400927  1 Cr d -1       
    38      0.375834  1 Cr d -1              43      0.198753  1 Cr d -1       

 Vector   14  Occ=1.000000D+00  E=-1.286269D-01  Symmetry=a2
              MO Center= -3.5D-32, -3.0D-32,  1.4D-15, r^2= 8.6D-01
   Bfn.  Coefficient  Atom+Function         Bfn.  Coefficient  Atom+Function  
  ----- ------------  ---------------      ----- ------------  ---------------
    32      0.409838  1 Cr d -2              27      0.400927  1 Cr d -2       
    37      0.375834  1 Cr d -2              42      0.198753  1 Cr d -2       

 Vector   15  Occ=1.000000D+00  E=-1.286269D-01  Symmetry=a1
              MO Center=  2.0D-33, -2.7D-34, -2.3D-15, r^2= 8.6D-01
   Bfn.  Coefficient  Atom+Function         Bfn.  Coefficient  Atom+Function  
  ----- ------------  ---------------      ----- ------------  ---------------
    34      0.377827  1 Cr d  0              29      0.369613  1 Cr d  0       
    39      0.346479  1 Cr d  0              44      0.183229  1 Cr d  0       
    36     -0.158788  1 Cr d  2              31     -0.155336  1 Cr d  2       
    41     -0.145614  1 Cr d  2              46     -0.077005  1 Cr d  2       

 Vector   16  Occ=0.000000D+00  E=-3.104451D-02  Symmetry=b2
              MO Center= -2.2D-31, -7.1D-23,  4.6D-14, r^2= 5.5D+00
   Bfn.  Coefficient  Atom+Function         Bfn.  Coefficient  Atom+Function  
  ----- ------------  ---------------      ----- ------------  ---------------
    25      0.897828  1 Cr py                19     -0.180246  1 Cr py         
    22      0.171581  1 Cr py                16     -0.076145  1 Cr py         
    13      0.069931  1 Cr py         

 Vector   17  Occ=0.000000D+00  E=-3.104451D-02  Symmetry=b1
              MO Center= -7.5D-23,  1.6D-32,  5.8D-14, r^2= 5.5D+00
   Bfn.  Coefficient  Atom+Function         Bfn.  Coefficient  Atom+Function  
  ----- ------------  ---------------      ----- ------------  ---------------
    24      0.897828  1 Cr px                18     -0.180246  1 Cr px         
    21      0.171581  1 Cr px                15     -0.076145  1 Cr px         
    12      0.069931  1 Cr px         

 Vector   18  Occ=0.000000D+00  E=-3.104451D-02  Symmetry=a1
              MO Center= -1.4D-15, -1.4D-15,  1.2D-13, r^2= 5.5D+00
   Bfn.  Coefficient  Atom+Function         Bfn.  Coefficient  Atom+Function  
  ----- ------------  ---------------      ----- ------------  ---------------
    26      0.897828  1 Cr pz                20     -0.180246  1 Cr pz         
    23      0.171581  1 Cr pz                17     -0.076145  1 Cr pz         
    14      0.069931  1 Cr pz         

 Vector   19  Occ=0.000000D+00  E= 7.947133D-02  Symmetry=a1
              MO Center=  2.4D-24,  1.5D-22,  1.3D-13, r^2= 8.9D+00
   Bfn.  Coefficient  Atom+Function         Bfn.  Coefficient  Atom+Function  
  ----- ------------  ---------------      ----- ------------  ---------------
     7      2.127379  1 Cr s                  8     -1.925825  1 Cr s          
     6     -0.444931  1 Cr s                  5     -0.173722  1 Cr s          
     4      0.114047  1 Cr s                  3      0.070885  1 Cr s          
     2     -0.031421  1 Cr s          

 Vector   20  Occ=0.000000D+00  E= 1.747766D-01  Symmetry=b2
              MO Center= -1.8D-31,  1.4D-15, -6.5D-14, r^2= 5.3D+00
   Bfn.  Coefficient  Atom+Function         Bfn.  Coefficient  Atom+Function  
  ----- ------------  ---------------      ----- ------------  ---------------
    43      1.029344  1 Cr d -1              38     -0.219191  1 Cr d -1       
    28     -0.192017  1 Cr d -1              33     -0.171229  1 Cr d -1       

 Vector   21  Occ=0.000000D+00  E= 1.747766D-01  Symmetry=a1
              MO Center=  1.8D-31,  5.1D-31, -7.6D-14, r^2= 5.3D+00
   Bfn.  Coefficient  Atom+Function         Bfn.  Coefficient  Atom+Function  
  ----- ------------  ---------------      ----- ------------  ---------------
    46      0.970394  1 Cr d  2              44      0.343344  1 Cr d  0       
    41     -0.206638  1 Cr d  2              31     -0.181021  1 Cr d  2       
    36     -0.161423  1 Cr d  2              39     -0.073113  1 Cr d  0       
    29     -0.064048  1 Cr d  0              34     -0.057115  1 Cr d  0       

 Vector   22  Occ=0.000000D+00  E= 1.747766D-01  Symmetry=a1
              MO Center=  7.3D-32, -3.0D-32,  7.8D-15, r^2= 5.3D+00
   Bfn.  Coefficient  Atom+Function         Bfn.  Coefficient  Atom+Function  
  ----- ------------  ---------------      ----- ------------  ---------------
    44      0.970394  1 Cr d  0              46     -0.343344  1 Cr d  2       
    39     -0.206638  1 Cr d  0              29     -0.181021  1 Cr d  0       
    34     -0.161423  1 Cr d  0              41      0.073113  1 Cr d  2       
    31      0.064048  1 Cr d  2              36      0.057115  1 Cr d  2       

 Vector   23  Occ=0.000000D+00  E= 1.747766D-01  Symmetry=a2
              MO Center=  5.8D-31, -4.4D-31,  5.7D-17, r^2= 5.3D+00
   Bfn.  Coefficient  Atom+Function         Bfn.  Coefficient  Atom+Function  
  ----- ------------  ---------------      ----- ------------  ---------------
    42      1.029344  1 Cr d -2              37     -0.219191  1 Cr d -2       
    27     -0.192017  1 Cr d -2              32     -0.171229  1 Cr d -2       

 Vector   24  Occ=0.000000D+00  E= 1.747766D-01  Symmetry=b1
              MO Center=  1.4D-15,  8.5D-33, -1.2D-13, r^2= 5.3D+00
   Bfn.  Coefficient  Atom+Function         Bfn.  Coefficient  Atom+Function  
  ----- ------------  ---------------      ----- ------------  ---------------
    45      1.029344  1 Cr d  1              40     -0.219191  1 Cr d  1       
    30     -0.192017  1 Cr d  1              35     -0.171229  1 Cr d  1       

 Vector   25  Occ=0.000000D+00  E= 3.016939D-01  Symmetry=b1
              MO Center=  1.3D-24, -1.4D-31,  3.1D-14, r^2= 4.8D+00
   Bfn.  Coefficient  Atom+Function         Bfn.  Coefficient  Atom+Function  
  ----- ------------  ---------------      ----- ------------  ---------------
    21      1.560374  1 Cr px                24     -1.085184  1 Cr px         
    18     -0.472191  1 Cr px                12      0.133370  1 Cr px         
    15     -0.124054  1 Cr px         

 Vector   26  Occ=0.000000D+00  E= 3.016939D-01  Symmetry=b2
              MO Center= -9.0D-32, -1.6D-22, -3.9D-14, r^2= 4.8D+00
   Bfn.  Coefficient  Atom+Function         Bfn.  Coefficient  Atom+Function  
  ----- ------------  ---------------      ----- ------------  ---------------
    22      1.560374  1 Cr py                25     -1.085184  1 Cr py         
    19     -0.472191  1 Cr py                13      0.133370  1 Cr py         
    16     -0.124054  1 Cr py         

 Vector   27  Occ=0.000000D+00  E= 3.016939D-01  Symmetry=a1
              MO Center= -5.1D-16, -5.1D-16, -1.5D-13, r^2= 4.8D+00
   Bfn.  Coefficient  Atom+Function         Bfn.  Coefficient  Atom+Function  
  ----- ------------  ---------------      ----- ------------  ---------------
    23      1.560374  1 Cr pz                26     -1.085184  1 Cr pz         
    20     -0.472191  1 Cr pz                14      0.133370  1 Cr pz         
    17     -0.124054  1 Cr pz         

 Vector   28  Occ=0.000000D+00  E= 1.075080D+00  Symmetry=b2
              MO Center= -1.3D-32,  4.9D-16, -7.7D-15, r^2= 1.9D+00
   Bfn.  Coefficient  Atom+Function         Bfn.  Coefficient  Atom+Function  
  ----- ------------  ---------------      ----- ------------  ---------------
    38      1.248750  1 Cr d -1              33     -0.564445  1 Cr d -1       
    43     -0.509467  1 Cr d -1              28     -0.366387  1 Cr d -1       

 Vector   29  Occ=0.000000D+00  E= 1.075080D+00  Symmetry=a1
              MO Center= -9.2D-34, -2.6D-33,  4.8D-14, r^2= 1.9D+00
   Bfn.  Coefficient  Atom+Function         Bfn.  Coefficient  Atom+Function  
  ----- ------------  ---------------      ----- ------------  ---------------
    41      1.138531  1 Cr d  2              36     -0.514626  1 Cr d  2       
    39      0.512956  1 Cr d  0              46     -0.464500  1 Cr d  2       
    31     -0.334048  1 Cr d  2              34     -0.231860  1 Cr d  0       
    44     -0.209276  1 Cr d  0              29     -0.150503  1 Cr d  0       

 Vector   30  Occ=0.000000D+00  E= 1.075080D+00  Symmetry=a2
              MO Center= -5.2D-32, -2.3D-32,  4.1D-15, r^2= 1.9D+00
   Bfn.  Coefficient  Atom+Function         Bfn.  Coefficient  Atom+Function  
  ----- ------------  ---------------      ----- ------------  ---------------
    37      1.248750  1 Cr d -2              32     -0.564445  1 Cr d -2       
    42     -0.509467  1 Cr d -2              27     -0.366387  1 Cr d -2       

 Vector   31  Occ=0.000000D+00  E= 1.075080D+00  Symmetry=a1
              MO Center= -3.7D-33, -7.5D-34, -2.2D-15, r^2= 1.9D+00
   Bfn.  Coefficient  Atom+Function         Bfn.  Coefficient  Atom+Function  
  ----- ------------  ---------------      ----- ------------  ---------------
    39      1.138531  1 Cr d  0              34     -0.514626  1 Cr d  0       
    41     -0.512956  1 Cr d  2              44     -0.464500  1 Cr d  0       
    29     -0.334048  1 Cr d  0              36      0.231860  1 Cr d  2       
    46      0.209276  1 Cr d  2              31      0.150503  1 Cr d  2       

 Vector   32  Occ=0.000000D+00  E= 1.075080D+00  Symmetry=b1
              MO Center=  4.9D-16, -1.5D-32, -1.2D-14, r^2= 1.9D+00
   Bfn.  Coefficient  Atom+Function         Bfn.  Coefficient  Atom+Function  
  ----- ------------  ---------------      ----- ------------  ---------------
    40      1.248750  1 Cr d  1              35     -0.564445  1 Cr d  1       
    45     -0.509467  1 Cr d  1              30     -0.366387  1 Cr d  1       

 Vector   33  Occ=0.000000D+00  E= 2.000845D+00  Symmetry=a2
              MO Center= -4.5D-33, -1.1D-33, -5.5D-15, r^2= 8.0D-01
   Bfn.  Coefficient  Atom+Function         Bfn.  Coefficient  Atom+Function  
  ----- ------------  ---------------      ----- ------------  ---------------
    48      1.000000  1 Cr f -2       

 Vector   34  Occ=0.000000D+00  E= 2.000845D+00  Symmetry=b1
              MO Center= -3.0D-33, -2.8D-33, -1.1D-15, r^2= 8.0D-01
   Bfn.  Coefficient  Atom+Function         Bfn.  Coefficient  Atom+Function  
  ----- ------------  ---------------      ----- ------------  ---------------
    51      0.928334  1 Cr f  1              53      0.371748  1 Cr f  3       

 Vector   35  Occ=0.000000D+00  E= 2.000845D+00  Symmetry=b2
              MO Center= -6.8D-34, -6.9D-33, -3.1D-15, r^2= 8.0D-01
   Bfn.  Coefficient  Atom+Function         Bfn.  Coefficient  Atom+Function  
  ----- ------------  ---------------      ----- ------------  ---------------
    49     -0.727691  1 Cr f -1              47      0.685905  1 Cr f -3       

 Vector   36  Occ=0.000000D+00  E= 2.000845D+00  Symmetry=b1
              MO Center=  3.9D-31, -4.3D-33, -1.0D-15, r^2= 8.0D-01
   Bfn.  Coefficient  Atom+Function         Bfn.  Coefficient  Atom+Function  
  ----- ------------  ---------------      ----- ------------  ---------------
    53      0.928334  1 Cr f  3              51     -0.371748  1 Cr f  1       

 Vector   37  Occ=0.000000D+00  E= 2.000845D+00  Symmetry=b2
              MO Center= -9.3D-34,  9.0D-32, -2.5D-15, r^2= 8.0D-01
   Bfn.  Coefficient  Atom+Function         Bfn.  Coefficient  Atom+Function  
  ----- ------------  ---------------      ----- ------------  ---------------
    47      0.727691  1 Cr f -3              49      0.685905  1 Cr f -1       

 Vector   38  Occ=0.000000D+00  E= 2.000845D+00  Symmetry=a1
              MO Center= -7.7D-34, -1.1D-34, -5.4D-15, r^2= 8.0D-01
   Bfn.  Coefficient  Atom+Function         Bfn.  Coefficient  Atom+Function  
  ----- ------------  ---------------      ----- ------------  ---------------
    50      0.932443  1 Cr f  0              52     -0.361317  1 Cr f  2       

 Vector   39  Occ=0.000000D+00  E= 2.000845D+00  Symmetry=a1
              MO Center=  2.0D-32,  5.4D-32,  2.7D-14, r^2= 8.0D-01
   Bfn.  Coefficient  Atom+Function         Bfn.  Coefficient  Atom+Function  
  ----- ------------  ---------------      ----- ------------  ---------------
    52      0.932443  1 Cr f  2              50      0.361317  1 Cr f  0       

 Vector   40  Occ=0.000000D+00  E= 2.149946D+00  Symmetry=a1
              MO Center= -4.8D-24,  6.9D-25,  3.0D-16, r^2= 1.3D+00
   Bfn.  Coefficient  Atom+Function         Bfn.  Coefficient  Atom+Function  
  ----- ------------  ---------------      ----- ------------  ---------------
     5      3.070418  1 Cr s                  6     -2.893308  1 Cr s          
     7      1.259097  1 Cr s                  4     -0.909698  1 Cr s          
     8     -0.603875  1 Cr s                  3     -0.177206  1 Cr s          
     2      0.117649  1 Cr s                  1      0.052077  1 Cr s          

 Vector   41  Occ=0.000000D+00  E= 4.335717D+00  Symmetry=a1
              MO Center= -1.2D-15, -1.2D-15, -7.6D-16, r^2= 6.9D-01
   Bfn.  Coefficient  Atom+Function         Bfn.  Coefficient  Atom+Function  
  ----- ------------  ---------------      ----- ------------  ---------------
    17      1.756311  1 Cr pz                20     -1.614557  1 Cr pz         
    23      0.778128  1 Cr pz                14     -0.611399  1 Cr pz         
    26     -0.298728  1 Cr pz                11     -0.053201  1 Cr pz         

 Vector   42  Occ=0.000000D+00  E= 4.335717D+00  Symmetry=b2
              MO Center=  1.4D-33, -4.8D-25, -8.4D-15, r^2= 6.9D-01
   Bfn.  Coefficient  Atom+Function         Bfn.  Coefficient  Atom+Function  
  ----- ------------  ---------------      ----- ------------  ---------------
    16      1.756311  1 Cr py                19     -1.614557  1 Cr py         
    22      0.778128  1 Cr py                13     -0.611399  1 Cr py         
    25     -0.298728  1 Cr py                10     -0.053201  1 Cr py         

 Vector   43  Occ=0.000000D+00  E= 4.335717D+00  Symmetry=b1
              MO Center=  5.3D-24,  8.1D-33, -4.3D-15, r^2= 6.9D-01
   Bfn.  Coefficient  Atom+Function         Bfn.  Coefficient  Atom+Function  
  ----- ------------  ---------------      ----- ------------  ---------------
    15      1.756311  1 Cr px                18     -1.614557  1 Cr px         
    21      0.778128  1 Cr px                12     -0.611399  1 Cr px         
    24     -0.298728  1 Cr px                 9     -0.053201  1 Cr px         

 Vector   44  Occ=0.000000D+00  E= 4.648336D+00  Symmetry=a1
              MO Center=  3.8D-33, -1.4D-32, -2.2D-16, r^2= 5.8D-01
   Bfn.  Coefficient  Atom+Function         Bfn.  Coefficient  Atom+Function  
  ----- ------------  ---------------      ----- ------------  ---------------
    36      1.222517  1 Cr d  2              31     -0.972425  1 Cr d  2       
    41     -0.622979  1 Cr d  2              34      0.609914  1 Cr d  0       
    29     -0.485143  1 Cr d  0              39     -0.310804  1 Cr d  0       
    46      0.173210  1 Cr d  2              44      0.086415  1 Cr d  0       

 Vector   45  Occ=0.000000D+00  E= 4.648336D+00  Symmetry=a1
              MO Center=  3.3D-33,  1.6D-34, -1.2D-15, r^2= 5.8D-01
   Bfn.  Coefficient  Atom+Function         Bfn.  Coefficient  Atom+Function  
  ----- ------------  ---------------      ----- ------------  ---------------
    34      1.222517  1 Cr d  0              29     -0.972425  1 Cr d  0       
    39     -0.622979  1 Cr d  0              36     -0.609914  1 Cr d  2       
    31      0.485143  1 Cr d  2              41      0.310804  1 Cr d  2       
    44      0.173210  1 Cr d  0              46     -0.086415  1 Cr d  2       

 Vector   46  Occ=0.000000D+00  E= 4.648336D+00  Symmetry=a2
              MO Center= -1.4D-33,  1.5D-31, -5.0D-17, r^2= 5.8D-01
   Bfn.  Coefficient  Atom+Function         Bfn.  Coefficient  Atom+Function  
  ----- ------------  ---------------      ----- ------------  ---------------
    32      1.366214  1 Cr d -2              27     -1.086726  1 Cr d -2       
    37     -0.696206  1 Cr d -2              42      0.193570  1 Cr d -2       

 Vector   47  Occ=0.000000D+00  E= 4.648336D+00  Symmetry=b1
              MO Center=  1.2D-15,  9.0D-33,  3.3D-15, r^2= 5.8D-01
   Bfn.  Coefficient  Atom+Function         Bfn.  Coefficient  Atom+Function  
  ----- ------------  ---------------      ----- ------------  ---------------
    35      1.366214  1 Cr d  1              30     -1.086726  1 Cr d  1       
    40     -0.696206  1 Cr d  1              45      0.193570  1 Cr d  1       

 Vector   48  Occ=0.000000D+00  E= 4.648336D+00  Symmetry=b2
              MO Center= -9.3D-33,  1.2D-15,  7.1D-15, r^2= 5.8D-01
   Bfn.  Coefficient  Atom+Function         Bfn.  Coefficient  Atom+Function  
  ----- ------------  ---------------      ----- ------------  ---------------
    33      1.366214  1 Cr d -1              28     -1.086726  1 Cr d -1       
    38     -0.696206  1 Cr d -1              43      0.193570  1 Cr d -1       

 Vector   49  Occ=0.000000D+00  E= 2.246827D+01  Symmetry=a1
              MO Center=  3.8D-26, -5.7D-27, -6.6D-18, r^2= 1.9D-01
   Bfn.  Coefficient  Atom+Function         Bfn.  Coefficient  Atom+Function  
  ----- ------------  ---------------      ----- ------------  ---------------
     4      3.881699  1 Cr s                  3     -3.091320  1 Cr s          
     5     -2.475572  1 Cr s                  6      1.252521  1 Cr s          
     2      0.528235  1 Cr s                  7     -0.353985  1 Cr s          
     8      0.165677  1 Cr s                  1      0.151689  1 Cr s          

 Vector   50  Occ=0.000000D+00  E= 1.568452D+02  Symmetry=b2
              MO Center= -4.6D-37, -4.6D-19, -3.1D-19, r^2= 2.3D-02
   Bfn.  Coefficient  Atom+Function         Bfn.  Coefficient  Atom+Function  
  ----- ------------  ---------------      ----- ------------  ---------------
    10      1.126314  1 Cr py                13     -0.783262  1 Cr py         
    16      0.526677  1 Cr py                19     -0.266467  1 Cr py         
    22      0.110178  1 Cr py                25     -0.042045  1 Cr py         

 Vector   51  Occ=0.000000D+00  E= 1.568452D+02  Symmetry=a1
              MO Center=  4.0D-33, -1.5D-33, -2.3D-18, r^2= 2.3D-02
   Bfn.  Coefficient  Atom+Function         Bfn.  Coefficient  Atom+Function  
  ----- ------------  ---------------      ----- ------------  ---------------
    11      1.126314  1 Cr pz                14     -0.783262  1 Cr pz         
    17      0.526677  1 Cr pz                20     -0.266467  1 Cr pz         
    23      0.110178  1 Cr pz                26     -0.042045  1 Cr pz         

 Vector   52  Occ=0.000000D+00  E= 1.568452D+02  Symmetry=b1
              MO Center=  3.3D-18, -7.7D-37, -6.0D-19, r^2= 2.3D-02
   Bfn.  Coefficient  Atom+Function         Bfn.  Coefficient  Atom+Function  
  ----- ------------  ---------------      ----- ------------  ---------------
     9      1.126314  1 Cr px                12     -0.783262  1 Cr px         
    15      0.526677  1 Cr px                18     -0.266467  1 Cr px         
    21      0.110178  1 Cr px                24     -0.042045  1 Cr px         

 Vector   53  Occ=0.000000D+00  E= 3.874814D+02  Symmetry=a1
              MO Center= -1.5D-35,  4.4D-36,  5.0D-18, r^2= 1.4D-02
   Bfn.  Coefficient  Atom+Function         Bfn.  Coefficient  Atom+Function  
  ----- ------------  ---------------      ----- ------------  ---------------
     2      1.965984  1 Cr s                  3     -1.777276  1 Cr s          
     1     -1.445690  1 Cr s                  4      1.317637  1 Cr s          
     5     -0.610515  1 Cr s                  6      0.296472  1 Cr s          
     7     -0.084798  1 Cr s                  8      0.039942  1 Cr s          


                     DFT Final Beta Molecular Orbital Analysis
                     -----------------------------------------

 Vector    1  Occ=1.000000D+00  E=-2.144083D+02  Symmetry=a1
              MO Center=  6.3D-29,  7.6D-30, -4.4D-19, r^2= 1.5D-03
   Bfn.  Coefficient  Atom+Function         Bfn.  Coefficient  Atom+Function  
  ----- ------------  ---------------      ----- ------------  ---------------
     2      0.616901  1 Cr s                  1      0.457606  1 Cr s          

 Vector    2  Occ=1.000000D+00  E=-2.408655D+01  Symmetry=a1
              MO Center=  5.2D-17, -1.1D-16,  2.6D-16, r^2= 2.9D-02
   Bfn.  Coefficient  Atom+Function         Bfn.  Coefficient  Atom+Function  
  ----- ------------  ---------------      ----- ------------  ---------------
     4      0.616508  1 Cr s                  3      0.495591  1 Cr s          
     2     -0.339421  1 Cr s                  1     -0.152439  1 Cr s          
     5      0.063247  1 Cr s          

 Vector    3  Occ=1.000000D+00  E=-2.048108D+01  Symmetry=a1
              MO Center= -6.9D-20, -6.9D-20, -2.4D-16, r^2= 2.3D-02
   Bfn.  Coefficient  Atom+Function         Bfn.  Coefficient  Atom+Function  
  ----- ------------  ---------------      ----- ------------  ---------------
    14      0.914974  1 Cr pz                11      0.100211  1 Cr pz         
    17      0.073692  1 Cr pz         

 Vector    4  Occ=1.000000D+00  E=-2.048108D+01  Symmetry=b2
              MO Center=  4.3D-29,  1.1D-16, -6.3D-17, r^2= 2.3D-02
   Bfn.  Coefficient  Atom+Function         Bfn.  Coefficient  Atom+Function  
  ----- ------------  ---------------      ----- ------------  ---------------
    13      0.914974  1 Cr py                10      0.100211  1 Cr py         
    16      0.073692  1 Cr py         

 Vector    5  Occ=1.000000D+00  E=-2.048108D+01  Symmetry=b1
              MO Center= -5.2D-17, -1.7D-29, -5.5D-17, r^2= 2.3D-02
   Bfn.  Coefficient  Atom+Function         Bfn.  Coefficient  Atom+Function  
  ----- ------------  ---------------      ----- ------------  ---------------
    12      0.914974  1 Cr px                 9      0.100211  1 Cr px         
    15      0.073692  1 Cr px         

 Vector    6  Occ=1.000000D+00  E=-2.525537D+00  Symmetry=a1
              MO Center=  4.1D-16,  9.9D-16, -5.0D-15, r^2= 2.7D-01
   Bfn.  Coefficient  Atom+Function         Bfn.  Coefficient  Atom+Function  
  ----- ------------  ---------------      ----- ------------  ---------------
     5      0.646722  1 Cr s                  6      0.596713  1 Cr s          
     4     -0.487131  1 Cr s                  3     -0.288103  1 Cr s          
     2      0.137664  1 Cr s                  1      0.057205  1 Cr s          
     7      0.029039  1 Cr s          

 Vector    7  Occ=1.000000D+00  E=-1.524038D+00  Symmetry=a1
              MO Center= -2.2D-18, -2.2D-18,  8.5D-15, r^2= 3.2D-01
   Bfn.  Coefficient  Atom+Function         Bfn.  Coefficient  Atom+Function  
  ----- ------------  ---------------      ----- ------------  ---------------
    20      0.788036  1 Cr pz                14     -0.358941  1 Cr pz         
    17      0.320438  1 Cr pz                11     -0.036697  1 Cr pz         
    23      0.033537  1 Cr pz         

 Vector    8  Occ=1.000000D+00  E=-1.524038D+00  Symmetry=b1
              MO Center= -4.1D-16,  4.7D-29, -8.8D-16, r^2= 3.2D-01
   Bfn.  Coefficient  Atom+Function         Bfn.  Coefficient  Atom+Function  
  ----- ------------  ---------------      ----- ------------  ---------------
    18      0.788036  1 Cr px                12     -0.358941  1 Cr px         
    15      0.320438  1 Cr px                 9     -0.036697  1 Cr px         
    21      0.033537  1 Cr px         

 Vector    9  Occ=1.000000D+00  E=-1.524038D+00  Symmetry=b2
              MO Center=  1.3D-28, -9.9D-16, -1.0D-15, r^2= 3.2D-01
   Bfn.  Coefficient  Atom+Function         Bfn.  Coefficient  Atom+Function  
  ----- ------------  ---------------      ----- ------------  ---------------
    19      0.788036  1 Cr py                13     -0.358941  1 Cr py         
    16      0.320438  1 Cr py                10     -0.036697  1 Cr py         
    22      0.033537  1 Cr py         

 Vector   10  Occ=0.000000D+00  E=-6.657526D-01  Symmetry=a1
              MO Center=  3.2D-19,  8.4D-19, -4.8D-11, r^2= 9.8D+00
   Bfn.  Coefficient  Atom+Function         Bfn.  Coefficient  Atom+Function  
  ----- ------------  ---------------      ----- ------------  ---------------
     8      1.794913  1 Cr s                  7     -1.221645  1 Cr s          
     6      0.219197  1 Cr s                  5     -0.116880  1 Cr s          
     4      0.033176  1 Cr s          

 Vector   11  Occ=0.000000D+00  E=-6.455310D-01  Symmetry=a1
              MO Center= -5.8D-15,  5.6D-16,  4.4D-11, r^2= 8.1D+00
   Bfn.  Coefficient  Atom+Function         Bfn.  Coefficient  Atom+Function  
  ----- ------------  ---------------      ----- ------------  ---------------
    26      1.343752  1 Cr pz                23     -0.701516  1 Cr pz         
    20      0.135202  1 Cr pz                17     -0.040402  1 Cr pz         

 Vector   12  Occ=0.000000D+00  E=-6.455310D-01  Symmetry=b1
              MO Center= -3.0D-19,  1.0D-24, -2.0D-12, r^2= 8.1D+00
   Bfn.  Coefficient  Atom+Function         Bfn.  Coefficient  Atom+Function  
  ----- ------------  ---------------      ----- ------------  ---------------
    24      1.343752  1 Cr px                21     -0.701516  1 Cr px         
    18      0.135202  1 Cr px                15     -0.040402  1 Cr px         

 Vector   13  Occ=0.000000D+00  E=-6.455310D-01  Symmetry=b2
              MO Center=  2.8D-24, -7.8D-19,  3.8D-13, r^2= 8.1D+00
   Bfn.  Coefficient  Atom+Function         Bfn.  Coefficient  Atom+Function  
  ----- ------------  ---------------      ----- ------------  ---------------
    25      1.343752  1 Cr py                22     -0.701516  1 Cr py         
    19      0.135202  1 Cr py                16     -0.040402  1 Cr py         

 Vector   14  Occ=0.000000D+00  E=-3.559104D-01  Symmetry=a1
              MO Center=  2.3D-32, -3.2D-31,  3.3D-12, r^2= 6.0D+00
   Bfn.  Coefficient  Atom+Function         Bfn.  Coefficient  Atom+Function  
  ----- ------------  ---------------      ----- ------------  ---------------
    44      0.960483  1 Cr d  0              46      0.548945  1 Cr d  2       
    39     -0.253720  1 Cr d  0              41     -0.145009  1 Cr d  2       
    34      0.096785  1 Cr d  0              36      0.055316  1 Cr d  2       

 Vector   15  Occ=0.000000D+00  E=-3.559104D-01  Symmetry=b2
              MO Center= -3.1D-31, -6.7D-16, -3.8D-13, r^2= 6.0D+00
   Bfn.  Coefficient  Atom+Function         Bfn.  Coefficient  Atom+Function  
  ----- ------------  ---------------      ----- ------------  ---------------
    43      1.106286  1 Cr d -1              38     -0.292235  1 Cr d -1       
    33      0.111477  1 Cr d -1       

 Vector   16  Occ=0.000000D+00  E=-3.559104D-01  Symmetry=b1
              MO Center=  5.8D-15, -7.2D-30,  2.0D-12, r^2= 6.0D+00
   Bfn.  Coefficient  Atom+Function         Bfn.  Coefficient  Atom+Function  
  ----- ------------  ---------------      ----- ------------  ---------------
    45      1.106286  1 Cr d  1              40     -0.292235  1 Cr d  1       
    35      0.111477  1 Cr d  1       

 Vector   17  Occ=0.000000D+00  E=-3.559104D-01  Symmetry=a1
              MO Center= -2.7D-32, -8.5D-31,  2.8D-13, r^2= 6.0D+00
   Bfn.  Coefficient  Atom+Function         Bfn.  Coefficient  Atom+Function  
  ----- ------------  ---------------      ----- ------------  ---------------
    46      0.960483  1 Cr d  2              44     -0.548945  1 Cr d  0       
    41     -0.253720  1 Cr d  2              39      0.145009  1 Cr d  0       
    36      0.096785  1 Cr d  2              34     -0.055316  1 Cr d  0       

 Vector   18  Occ=0.000000D+00  E=-3.559104D-01  Symmetry=a2
              MO Center=  1.3D-31,  7.0D-30,  1.5D-16, r^2= 6.0D+00
   Bfn.  Coefficient  Atom+Function         Bfn.  Coefficient  Atom+Function  
  ----- ------------  ---------------      ----- ------------  ---------------
    42      1.106286  1 Cr d -2              37     -0.292235  1 Cr d -2       
    32      0.111477  1 Cr d -2       

 Vector   19  Occ=0.000000D+00  E=-1.163483D-02  Symmetry=a1
              MO Center= -3.1D-21, -1.3D-20,  6.2D-14, r^2= 3.0D+00
   Bfn.  Coefficient  Atom+Function         Bfn.  Coefficient  Atom+Function  
  ----- ------------  ---------------      ----- ------------  ---------------
     7      1.914149  1 Cr s                  8     -0.895120  1 Cr s          
     6     -0.593216  1 Cr s                  5     -0.232390  1 Cr s          
     4      0.159025  1 Cr s                  3      0.101553  1 Cr s          
     2     -0.044861  1 Cr s          

 Vector   20  Occ=0.000000D+00  E= 3.337065D-02  Symmetry=a1
              MO Center=  2.3D-32, -6.6D-33,  1.6D-15, r^2= 6.8D-01
   Bfn.  Coefficient  Atom+Function         Bfn.  Coefficient  Atom+Function  
  ----- ------------  ---------------      ----- ------------  ---------------
    41      0.512842  1 Cr d  2              31      0.417198  1 Cr d  2       
    36      0.396121  1 Cr d  2              46     -0.210739  1 Cr d  2       
    39     -0.062621  1 Cr d  0              29     -0.050942  1 Cr d  0       
    34     -0.048369  1 Cr d  0              44      0.025732  1 Cr d  0       

 Vector   21  Occ=0.000000D+00  E= 3.337065D-02  Symmetry=a1
              MO Center=  8.2D-34, -8.7D-33,  5.1D-14, r^2= 6.8D-01
   Bfn.  Coefficient  Atom+Function         Bfn.  Coefficient  Atom+Function  
  ----- ------------  ---------------      ----- ------------  ---------------
    39      0.512842  1 Cr d  0              29      0.417198  1 Cr d  0       
    34      0.396121  1 Cr d  0              44     -0.210739  1 Cr d  0       
    41      0.062621  1 Cr d  2              31      0.050942  1 Cr d  2       
    36      0.048369  1 Cr d  2              46     -0.025732  1 Cr d  2       

 Vector   22  Occ=0.000000D+00  E= 3.337065D-02  Symmetry=b1
              MO Center=  2.8D-17,  9.2D-33,  4.1D-14, r^2= 6.8D-01
   Bfn.  Coefficient  Atom+Function         Bfn.  Coefficient  Atom+Function  
  ----- ------------  ---------------      ----- ------------  ---------------
    40      0.516651  1 Cr d  1              30      0.420296  1 Cr d  1       
    35      0.399063  1 Cr d  1              45     -0.212304  1 Cr d  1       

 Vector   23  Occ=0.000000D+00  E= 3.337065D-02  Symmetry=b2
              MO Center=  7.9D-33,  6.5D-17,  2.4D-14, r^2= 6.8D-01
   Bfn.  Coefficient  Atom+Function         Bfn.  Coefficient  Atom+Function  
  ----- ------------  ---------------      ----- ------------  ---------------
    38      0.516651  1 Cr d -1              28      0.420296  1 Cr d -1       
    33      0.399063  1 Cr d -1              43     -0.212304  1 Cr d -1       

 Vector   24  Occ=0.000000D+00  E= 3.337065D-02  Symmetry=a2
              MO Center=  6.4D-32,  4.9D-32,  1.2D-15, r^2= 6.8D-01
   Bfn.  Coefficient  Atom+Function         Bfn.  Coefficient  Atom+Function  
  ----- ------------  ---------------      ----- ------------  ---------------
    37      0.516651  1 Cr d -2              27      0.420296  1 Cr d -2       
    32      0.399063  1 Cr d -2              42     -0.212304  1 Cr d -2       

 Vector   25  Occ=0.000000D+00  E= 2.497569D-01  Symmetry=a1
              MO Center= -3.8D-16, -3.8D-16, -7.4D-14, r^2= 2.2D+00
   Bfn.  Coefficient  Atom+Function         Bfn.  Coefficient  Atom+Function  
  ----- ------------  ---------------      ----- ------------  ---------------
    23      1.421819  1 Cr pz                20     -0.521700  1 Cr pz         
    26     -0.445716  1 Cr pz                14      0.145609  1 Cr pz         
    17     -0.127865  1 Cr pz         

 Vector   26  Occ=0.000000D+00  E= 2.497569D-01  Symmetry=b1
              MO Center=  3.1D-21, -4.0D-28, -4.8D-14, r^2= 2.2D+00
   Bfn.  Coefficient  Atom+Function         Bfn.  Coefficient  Atom+Function  
  ----- ------------  ---------------      ----- ------------  ---------------
    21      1.421819  1 Cr px                18     -0.521700  1 Cr px         
    24     -0.445716  1 Cr px                12      0.145609  1 Cr px         
    15     -0.127865  1 Cr px         

 Vector   27  Occ=0.000000D+00  E= 2.497569D-01  Symmetry=b2
              MO Center= -1.7D-27,  1.3D-20, -1.0D-14, r^2= 2.2D+00
   Bfn.  Coefficient  Atom+Function         Bfn.  Coefficient  Atom+Function  
  ----- ------------  ---------------      ----- ------------  ---------------
    22      1.421819  1 Cr py                19     -0.521700  1 Cr py         
    25     -0.445716  1 Cr py                13      0.145609  1 Cr py         
    16     -0.127865  1 Cr py         

 Vector   28  Occ=0.000000D+00  E= 1.110348D+00  Symmetry=a1
              MO Center=  2.6D-35,  1.3D-33,  9.0D-15, r^2= 1.4D+00
   Bfn.  Coefficient  Atom+Function         Bfn.  Coefficient  Atom+Function  
  ----- ------------  ---------------      ----- ------------  ---------------
    39      1.016406  1 Cr d  0              41     -0.628093  1 Cr d  2       
    34     -0.515213  1 Cr d  0              29     -0.325408  1 Cr d  0       
    36      0.318378  1 Cr d  2              44     -0.267534  1 Cr d  0       
    31      0.201088  1 Cr d  2              46      0.165324  1 Cr d  2       

 Vector   29  Occ=0.000000D+00  E= 1.110348D+00  Symmetry=b2
              MO Center= -9.0D-33,  4.2D-16, -9.7D-15, r^2= 1.4D+00
   Bfn.  Coefficient  Atom+Function         Bfn.  Coefficient  Atom+Function  
  ----- ------------  ---------------      ----- ------------  ---------------
    38      1.194815  1 Cr d -1              33     -0.605647  1 Cr d -1       
    28     -0.382527  1 Cr d -1              43     -0.314494  1 Cr d -1       

 Vector   30  Occ=0.000000D+00  E= 1.110348D+00  Symmetry=b1
              MO Center=  4.2D-16, -5.0D-33,  3.3D-14, r^2= 1.4D+00
   Bfn.  Coefficient  Atom+Function         Bfn.  Coefficient  Atom+Function  
  ----- ------------  ---------------      ----- ------------  ---------------
    40      1.194815  1 Cr d  1              35     -0.605647  1 Cr d  1       
    30     -0.382527  1 Cr d  1              45     -0.314494  1 Cr d  1       

 Vector   31  Occ=0.000000D+00  E= 1.110348D+00  Symmetry=a1
              MO Center= -1.3D-33, -2.3D-32,  2.6D-14, r^2= 1.4D+00
   Bfn.  Coefficient  Atom+Function         Bfn.  Coefficient  Atom+Function  
  ----- ------------  ---------------      ----- ------------  ---------------
    41      1.016406  1 Cr d  2              39      0.628093  1 Cr d  0       
    36     -0.515213  1 Cr d  2              31     -0.325408  1 Cr d  2       
    34     -0.318378  1 Cr d  0              46     -0.267534  1 Cr d  2       
    29     -0.201088  1 Cr d  0              44     -0.165324  1 Cr d  0       

 Vector   32  Occ=0.000000D+00  E= 1.110348D+00  Symmetry=a2
              MO Center= -2.2D-33,  2.4D-31,  3.0D-15, r^2= 1.4D+00
   Bfn.  Coefficient  Atom+Function         Bfn.  Coefficient  Atom+Function  
  ----- ------------  ---------------      ----- ------------  ---------------
    37      1.194815  1 Cr d -2              32     -0.605647  1 Cr d -2       
    27     -0.382527  1 Cr d -2              42     -0.314494  1 Cr d -2       

 Vector   33  Occ=0.000000D+00  E= 2.121037D+00  Symmetry=b1
              MO Center=  8.1D-32, -5.2D-33, -9.4D-15, r^2= 8.0D-01
   Bfn.  Coefficient  Atom+Function         Bfn.  Coefficient  Atom+Function  
  ----- ------------  ---------------      ----- ------------  ---------------
    51      0.801838  1 Cr f  1              53      0.597541  1 Cr f  3       

 Vector   34  Occ=0.000000D+00  E= 2.121037D+00  Symmetry=a2
              MO Center= -4.1D-33, -9.6D-34, -4.3D-15, r^2= 8.0D-01
   Bfn.  Coefficient  Atom+Function         Bfn.  Coefficient  Atom+Function  
  ----- ------------  ---------------      ----- ------------  ---------------
    48      1.000000  1 Cr f -2       

 Vector   35  Occ=0.000000D+00  E= 2.121037D+00  Symmetry=b2
              MO Center= -1.1D-34,  1.1D-30, -8.3D-15, r^2= 8.0D-01
   Bfn.  Coefficient  Atom+Function         Bfn.  Coefficient  Atom+Function  
  ----- ------------  ---------------      ----- ------------  ---------------
    49      0.988549  1 Cr f -1              47     -0.150899  1 Cr f -3       

 Vector   36  Occ=0.000000D+00  E= 2.121037D+00  Symmetry=b1
              MO Center=  1.0D-30, -2.3D-33, -2.6D-15, r^2= 8.0D-01
   Bfn.  Coefficient  Atom+Function         Bfn.  Coefficient  Atom+Function  
  ----- ------------  ---------------      ----- ------------  ---------------
    53      0.801838  1 Cr f  3              51     -0.597541  1 Cr f  1       

 Vector   37  Occ=0.000000D+00  E= 2.121037D+00  Symmetry=b2
              MO Center=  4.7D-33,  7.0D-31, -2.7D-16, r^2= 8.0D-01
   Bfn.  Coefficient  Atom+Function         Bfn.  Coefficient  Atom+Function  
  ----- ------------  ---------------      ----- ------------  ---------------
    47      0.988549  1 Cr f -3              49      0.150899  1 Cr f -1       

 Vector   38  Occ=0.000000D+00  E= 2.121037D+00  Symmetry=a1
              MO Center=  1.8D-33,  2.5D-34, -9.6D-15, r^2= 8.0D-01
   Bfn.  Coefficient  Atom+Function         Bfn.  Coefficient  Atom+Function  
  ----- ------------  ---------------      ----- ------------  ---------------
    50      0.977973  1 Cr f  0              52      0.208730  1 Cr f  2       

 Vector   39  Occ=0.000000D+00  E= 2.121037D+00  Symmetry=a1
              MO Center= -6.0D-35, -2.7D-34,  1.0D-14, r^2= 8.0D-01
   Bfn.  Coefficient  Atom+Function         Bfn.  Coefficient  Atom+Function  
  ----- ------------  ---------------      ----- ------------  ---------------
    52      0.977973  1 Cr f  2              50     -0.208730  1 Cr f  0       

 Vector   40  Occ=0.000000D+00  E= 2.265317D+00  Symmetry=a1
              MO Center=  1.4D-23,  9.5D-24,  1.2D-15, r^2= 1.2D+00
   Bfn.  Coefficient  Atom+Function         Bfn.  Coefficient  Atom+Function  
  ----- ------------  ---------------      ----- ------------  ---------------
     5      3.076232  1 Cr s                  6     -2.874583  1 Cr s          
     7      1.183173  1 Cr s                  4     -0.913970  1 Cr s          
     8     -0.533099  1 Cr s                  3     -0.179428  1 Cr s          
     2      0.118551  1 Cr s                  1      0.052490  1 Cr s          

 Vector   41  Occ=0.000000D+00  E= 4.458973D+00  Symmetry=a1
              MO Center= -9.2D-16, -9.2D-16, -2.8D-14, r^2= 6.3D-01
   Bfn.  Coefficient  Atom+Function         Bfn.  Coefficient  Atom+Function  
  ----- ------------  ---------------      ----- ------------  ---------------
    17      1.758031  1 Cr pz                20     -1.604530  1 Cr pz         
    23      0.745263  1 Cr pz                14     -0.612344  1 Cr pz         
    26     -0.261963  1 Cr pz                11     -0.053444  1 Cr pz         

 Vector   42  Occ=0.000000D+00  E= 4.458973D+00  Symmetry=b2
              MO Center= -4.1D-32, -1.7D-23, -4.0D-15, r^2= 6.3D-01
   Bfn.  Coefficient  Atom+Function         Bfn.  Coefficient  Atom+Function  
  ----- ------------  ---------------      ----- ------------  ---------------
    16      1.758031  1 Cr py                19     -1.604530  1 Cr py         
    22      0.745263  1 Cr py                13     -0.612344  1 Cr py         
    25     -0.261963  1 Cr py                10     -0.053444  1 Cr py         

 Vector   43  Occ=0.000000D+00  E= 4.458973D+00  Symmetry=b1
              MO Center= -1.7D-23,  3.1D-32, -1.4D-14, r^2= 6.3D-01
   Bfn.  Coefficient  Atom+Function         Bfn.  Coefficient  Atom+Function  
  ----- ------------  ---------------      ----- ------------  ---------------
    15      1.758031  1 Cr px                18     -1.604530  1 Cr px         
    21      0.745263  1 Cr px                12     -0.612344  1 Cr px         
    24     -0.261963  1 Cr px                 9     -0.053444  1 Cr px         

 Vector   44  Occ=0.000000D+00  E= 4.769249D+00  Symmetry=a1
              MO Center=  1.7D-34, -4.2D-33,  3.0D-14, r^2= 5.5D-01
   Bfn.  Coefficient  Atom+Function         Bfn.  Coefficient  Atom+Function  
  ----- ------------  ---------------      ----- ------------  ---------------
    34      1.251016  1 Cr d  0              29     -1.004891  1 Cr d  0       
    39     -0.620384  1 Cr d  0              36      0.528108  1 Cr d  2       
    31     -0.424208  1 Cr d  2              41     -0.261891  1 Cr d  2       
    44      0.154789  1 Cr d  0              46      0.065343  1 Cr d  2       

 Vector   45  Occ=0.000000D+00  E= 4.769249D+00  Symmetry=a1
              MO Center= -6.4D-32, -1.6D-33,  2.0D-15, r^2= 5.5D-01
   Bfn.  Coefficient  Atom+Function         Bfn.  Coefficient  Atom+Function  
  ----- ------------  ---------------      ----- ------------  ---------------
    36      1.251016  1 Cr d  2              31     -1.004891  1 Cr d  2       
    41     -0.620384  1 Cr d  2              34     -0.528108  1 Cr d  0       
    29      0.424208  1 Cr d  0              39      0.261891  1 Cr d  0       
    46      0.154789  1 Cr d  2              44     -0.065343  1 Cr d  0       

 Vector   46  Occ=0.000000D+00  E= 4.769249D+00  Symmetry=b2
              MO Center=  2.7D-34,  9.2D-16,  2.8D-15, r^2= 5.5D-01
   Bfn.  Coefficient  Atom+Function         Bfn.  Coefficient  Atom+Function  
  ----- ------------  ---------------      ----- ------------  ---------------
    33      1.357918  1 Cr d -1              28     -1.090761  1 Cr d -1       
    38     -0.673396  1 Cr d -1              43      0.168016  1 Cr d -1       

 Vector   47  Occ=0.000000D+00  E= 4.769249D+00  Symmetry=b1
              MO Center=  9.2D-16, -5.8D-34,  1.5D-14, r^2= 5.5D-01
   Bfn.  Coefficient  Atom+Function         Bfn.  Coefficient  Atom+Function  
  ----- ------------  ---------------      ----- ------------  ---------------
    35      1.357918  1 Cr d  1              30     -1.090761  1 Cr d  1       
    40     -0.673396  1 Cr d  1              45      0.168016  1 Cr d  1       

 Vector   48  Occ=0.000000D+00  E= 4.769249D+00  Symmetry=a2
              MO Center= -9.6D-33, -1.4D-32, -7.0D-17, r^2= 5.5D-01
   Bfn.  Coefficient  Atom+Function         Bfn.  Coefficient  Atom+Function  
  ----- ------------  ---------------      ----- ------------  ---------------
    32      1.357918  1 Cr d -2              27     -1.090761  1 Cr d -2       
    37     -0.673396  1 Cr d -2              42      0.168016  1 Cr d -2       

 Vector   49  Occ=0.000000D+00  E= 2.257053D+01  Symmetry=a1
              MO Center=  5.7D-26,  1.4D-25, -1.2D-17, r^2= 1.9D-01
   Bfn.  Coefficient  Atom+Function         Bfn.  Coefficient  Atom+Function  
  ----- ------------  ---------------      ----- ------------  ---------------
     4      3.882417  1 Cr s                  3     -3.090556  1 Cr s          
     5     -2.475633  1 Cr s                  6      1.251308  1 Cr s          
     2      0.527711  1 Cr s                  7     -0.351582  1 Cr s          
     8      0.163417  1 Cr s                  1      0.151619  1 Cr s          

 Vector   50  Occ=0.000000D+00  E= 1.568580D+02  Symmetry=b1
              MO Center=  1.2D-26, -6.1D-37, -3.6D-20, r^2= 2.3D-02
   Bfn.  Coefficient  Atom+Function         Bfn.  Coefficient  Atom+Function  
  ----- ------------  ---------------      ----- ------------  ---------------
     9      1.126299  1 Cr px                12     -0.783422  1 Cr px         
    15      0.526927  1 Cr px                18     -0.266536  1 Cr px         
    21      0.110089  1 Cr px                24     -0.041900  1 Cr px         

 Vector   51  Occ=0.000000D+00  E= 1.568580D+02  Symmetry=b2
              MO Center= -1.7D-37,  1.2D-26, -9.0D-19, r^2= 2.3D-02
   Bfn.  Coefficient  Atom+Function         Bfn.  Coefficient  Atom+Function  
  ----- ------------  ---------------      ----- ------------  ---------------
    10      1.126299  1 Cr py                13     -0.783422  1 Cr py         
    16      0.526927  1 Cr py                19     -0.266536  1 Cr py         
    22      0.110089  1 Cr py                25     -0.041900  1 Cr py         

 Vector   52  Occ=0.000000D+00  E= 1.568580D+02  Symmetry=a1
              MO Center=  6.9D-34, -1.1D-34, -1.6D-17, r^2= 2.3D-02
   Bfn.  Coefficient  Atom+Function         Bfn.  Coefficient  Atom+Function  
  ----- ------------  ---------------      ----- ------------  ---------------
    11      1.126299  1 Cr pz                14     -0.783422  1 Cr pz         
    17      0.526927  1 Cr pz                20     -0.266536  1 Cr pz         
    23      0.110089  1 Cr pz                26     -0.041900  1 Cr pz         

 Vector   53  Occ=0.000000D+00  E= 3.874932D+02  Symmetry=a1
              MO Center= -1.1D-36,  7.4D-35,  2.2D-18, r^2= 1.4D-02
   Bfn.  Coefficient  Atom+Function         Bfn.  Coefficient  Atom+Function  
  ----- ------------  ---------------      ----- ------------  ---------------
     2      1.966020  1 Cr s                  3     -1.777493  1 Cr s          
     1     -1.445680  1 Cr s                  4      1.317883  1 Cr s          
     5     -0.610600  1 Cr s                  6      0.296494  1 Cr s          
     7     -0.084775  1 Cr s                  8      0.039915  1 Cr s          


   alpha - beta orbital overlaps 
   ----------------------------- 


   alpha      1      2      3      4      5      6      7      8      9     10
    beta      1      2      5      3      4      6      9      8      7     19
 overlap   1.000  1.000  1.000  1.000  1.000  1.000  1.000  1.000  1.000  0.761


   alpha     11     12     13     14     15     16     17     18     19     20
    beta     20     22     23     24     21     13     12     11     10     15
 overlap   0.810  0.934  0.934  0.934  0.810  0.847  0.847  0.847  0.760  0.918


   alpha     21     22     23     24     25     26     27     28     29     30
    beta     14     17     18     16     26     27     25     29     31     32
 overlap   0.695  0.695  0.918  0.918  0.847  0.847  0.847  0.983  0.975  0.983


   alpha     31     32     33     34     35     36     37     38     39     40
    beta     28     30     34     33     35     36     37     38     39     40
 overlap   0.975  0.983  1.000  0.967  0.823  0.967  0.823  0.836  0.836  0.999


   alpha     41     42     43     44     45     46     47     48     49     50
    beta     41     42     43     44     45     48     47     46     49     51
 overlap   1.000  1.000  1.000  0.759  0.759  1.000  1.000  1.000  1.000  1.000


   alpha     51     52     53
    beta     52     50     53
 overlap   1.000  1.000  1.000

     --------------------------
     Expectation value of S2:  
     --------------------------
      <S2> =     12.0003 (Exact =    12.0000)


 Task  times  cpu:        1.9s     wall:        1.9s


                                NWChem Input Module
                                -------------------



                                 NWChem DFT Module
                                 -----------------


                      Cr2 dimer - Antiferromagnetic solution




 Summary of "ao basis" -> "ao basis" (spherical)
 ------------------------------------------------------------------------------
       Tag                 Description            Shells   Functions and Types
 ---------------- ------------------------------  ------  ---------------------
 cr                        Wachters+f               19       53   8s6p4d1f


      Symmetry analysis of basis
      --------------------------

        a1         24
        a2          5
        b1         12
        b2         12

  Caching 1-el integrals 
  itol2e modified to match energy
  convergence criterion.

            General Information
            -------------------
          SCF calculation type: DFT
          Wavefunction type:  spin polarized.
          No. of atoms     :     1
          No. of electrons :    24
           Alpha electrons :     9
            Beta electrons :    15
          Charge           :     0
          Spin multiplicity:    -7
          Use of symmetry is: on ; symmetry adaption is: on 
          Maximum number of iterations:  30
          AO basis - number of functions:    53
                     number of shells:    19
          Convergence on energy requested:  1.00D-09
          Convergence on density requested:  1.00D-05
          Convergence on gradient requested:  5.00D-04

              XC Information
              --------------
                        PBEOP Method XC Functional
          PerdewBurkeErnzerhof Exchange Functional  1.000          
                    OP_PBE96 Correlation Potential  1.000          

             Grid Information
             ----------------
          Grid used for XC integration:  medium    
          Radial quadrature: Mura-Knowles        
          Angular quadrature: Lebedev. 
          Tag              B.-S. Rad. Rad. Pts. Rad. Cut. Ang. Pts.
          ---              ---------- --------- --------- ---------
          cr                  1.40      112           8.0       590
          Grid pruning is: on 
          Number of quadrature shells:   112
          Spatial weights used:  Erf1

          Convergence Information
          -----------------------
          Convergence aids based upon iterative change in 
          total energy or number of iterations. 
          Levelshifting, if invoked, occurs when the 
          HOMO/LUMO gap drops below (HL_TOL):  1.00D-02
          DIIS, if invoked, will attempt to extrapolate 
          using up to (NFOCK): 10 stored Fock matrices.

                    Damping( 0%)  Levelshifting(0.5)       DIIS
                  --------------- ------------------- ---------------
          dE  on:    start            ASAP                start   
          dE off:    2 iters         30 iters            30 iters 


      Screening Tolerance Information
      -------------------------------
          Density screening/tol_rho:  1.00D-12
          AO Gaussian exp screening on grid/accAOfunc:  21
          CD Gaussian exp screening on grid/accCDfunc:  20
          XC Gaussian exp screening on grid/accXCfunc:  20
          Schwarz screening/accCoul:  1.00D-10


      Superposition of Atomic Density Guess
      -------------------------------------

 Sum of atomic energies:       -1043.14453372

      Non-variational initial energy
      ------------------------------

 Total energy =   -1042.245875
 1-e energy   =   -1434.453322
 2-e energy   =     392.207447
 HOMO         =      -0.086745
 LUMO         =      -0.086745


 !!!!!!!!!!!!!!!!!!!!!!!!!!!!!!!!!!!!!!!!!!!!!!!!!!!!!!!!!!!!!!!!!!!!!!
 Warning - the HOMO and LUMO are degenerate and you are using symmetry.
 This can lead to non-variational energies and poor convergence.
 Modify the initial guess, or use an open-shell wavefunction, or turn
 off symmetry.
 !!!!!!!!!!!!!!!!!!!!!!!!!!!!!!!!!!!!!!!!!!!!!!!!!!!!!!!!!!!!!!!!!!!!!!


   Symmetry analysis of molecular orbitals - initial alpha
   -------------------------------------------------------


 !! scf_movecs_sym_adapt:   42 vectors were symmetry contaminated

  Symmetry fudging

 !! scf_movecs_sym_adapt:   35 vectors were symmetry contaminated

  Numbering of irreducible representations: 

     1 a1          2 a2          3 b1          4 b2      

  Orbital symmetries:

     1 a1          2 a1          3 b1          4 b2          5 a1      
     6 a1          7 a1          8 b2          9 b1         10 a1      
    11 a1         12 b2         13 b1         14 a2         15 a1      
    16 b2         17 b1         18 a1         19 a1      


   Symmetry analysis of molecular orbitals - initial beta
   ------------------------------------------------------


 !! scf_movecs_sym_adapt:   42 vectors were symmetry contaminated

  Symmetry fudging

 !! scf_movecs_sym_adapt:   35 vectors were symmetry contaminated

  Numbering of irreducible representations: 

     1 a1          2 a2          3 b1          4 b2      

  Orbital symmetries:

     1 a1          2 a1          3 b1          4 b2          5 a1      
     6 a1          7 a1          8 b2          9 b1         10 a1      
    11 a1         12 b2         13 b1         14 a2         15 a1      
    16 b2         17 b1         18 a1         19 a1      

   Time after variat. SCF:      2.2
   Time prior to 1st pass:      2.2

 Grid_pts file          = ./dft_cr2.gridpts.0
 Record size in doubles =  12289        No. of grid_pts per rec  =   3070
 Max. records in memory =      7        Max. recs in file   = 253312716


 !! scf_movecs_sym_adapt:   39 vectors were symmetry contaminated

  Symmetry fudging

 !! scf_movecs_sym_adapt:   35 vectors were symmetry contaminated


 !! scf_movecs_sym_adapt:   40 vectors were symmetry contaminated

  Symmetry fudging

 !! scf_movecs_sym_adapt:   37 vectors were symmetry contaminated


           Memory utilization after 1st SCF pass: 
           Heap Space remaining (MW):       51.77            51767344
          Stack Space remaining (MW):       86.25            86246620

[...]
              MO Center=  1.4D-33, -9.4D-33,  2.0D-05, r^2= 6.7D-01
   Bfn.  Coefficient  Atom+Function         Bfn.  Coefficient  Atom+Function  
  ----- ------------  ---------------      ----- ------------  ---------------
    11      0.796861  1 Cr pz                64     -0.796881  2 Cr pz         
    14     -0.557284  1 Cr pz                67      0.557298  2 Cr pz         
    17      0.389718  1 Cr pz                70     -0.389728  2 Cr pz         
    20     -0.234233  1 Cr pz                73      0.234239  2 Cr pz         
    23      0.119306  1 Cr pz                76     -0.119307  2 Cr pz         

 Vector  104  Occ=0.000000D+00  E= 1.574863D+02  Symmetry=a1
              MO Center= -1.6D-32, -3.6D-34, -2.0D-05, r^2= 6.6D-01
   Bfn.  Coefficient  Atom+Function         Bfn.  Coefficient  Atom+Function  
  ----- ------------  ---------------      ----- ------------  ---------------
    11      0.797626  1 Cr pz                64      0.797606  2 Cr pz         
    14     -0.563245  1 Cr pz                67     -0.563231  2 Cr pz         
    17      0.408551  1 Cr pz                70      0.408542  2 Cr pz         
    20     -0.244213  1 Cr pz                73     -0.244207  2 Cr pz         
     8     -0.091646  1 Cr s                 61      0.091646  2 Cr s          

 Vector  105  Occ=0.000000D+00  E= 3.875508D+02  Symmetry=a1
              MO Center= -2.1D-33, -2.1D-35,  1.4D-05, r^2= 6.6D-01
   Bfn.  Coefficient  Atom+Function         Bfn.  Coefficient  Atom+Function  
  ----- ------------  ---------------      ----- ------------  ---------------
     2      1.390853  1 Cr s                 55      1.390877  2 Cr s          
     3     -1.260652  1 Cr s                 56     -1.260674  2 Cr s          
     1     -1.022356  1 Cr s                 54     -1.022374  2 Cr s          
     4      0.939578  1 Cr s                 57      0.939595  2 Cr s          
     5     -0.450243  1 Cr s                 58     -0.450252  2 Cr s          

 Vector  106  Occ=0.000000D+00  E= 3.882289D+02  Symmetry=a1
              MO Center=  2.9D-33, -2.2D-33, -1.4D-05, r^2= 6.6D-01
   Bfn.  Coefficient  Atom+Function         Bfn.  Coefficient  Atom+Function  
  ----- ------------  ---------------      ----- ------------  ---------------
     2      1.394099  1 Cr s                 55     -1.394074  2 Cr s          
     3     -1.278516  1 Cr s                 56      1.278494  2 Cr s          
     1     -1.022874  1 Cr s                 54      1.022856  2 Cr s          
     4      0.974706  1 Cr s                 57     -0.974689  2 Cr s          
     5     -0.515510  1 Cr s                 58      0.515502  2 Cr s          


   alpha - beta orbital overlaps 
   ----------------------------- 


   alpha      1      2      3      4      5      6      7      8      9     10
    beta      1      2      3      4      5      6      7      8     10      9
 overlap   1.000  1.000  1.000  1.000  1.000  1.000  1.000  1.000  1.000  1.000


   alpha     11     12     13     14     15     16     17     18     19     20
    beta     11     12     13     15     14     16     17     18     19     20
 overlap   1.000  1.000  1.000  1.000  1.000  1.000  1.000  1.000  1.000  1.000


   alpha     21     22     23     24     25     26     27     28     29     30
    beta     21     22     23     24     25     26     27     28     29     31
 overlap   1.000  1.000  1.000  1.000  1.000  1.000  1.000  1.000  1.000  1.000


   alpha     31     32     33     34     35     36     37     38     39     40
    beta     30     32     33     34     35     36     37     38     39     41
 overlap   1.000  1.000  1.000  1.000  1.000  1.000  1.000  1.000  1.000  1.000


   alpha     41     42     43     44     45     46     47     48     49     50
    beta     40     42     43     44     45     46     47     48     49     50
 overlap   1.000  1.000  1.000  1.000  1.000  1.000  1.000  1.000  1.000  1.000


   alpha     51     52     53     54     55     56     57     58     59     60
    beta     51     53     52     54     55     56     57     58     59     60
 overlap   1.000  1.000  1.000  1.000  1.000  1.000  1.000  1.000  1.000  1.000


   alpha     61     62     63     64     65     66     67     68     69     70
    beta     61     62     63     64     65     66     67     68     70     69
 overlap   1.000  1.000  1.000  1.000  1.000  1.000  1.000  1.000  1.000  1.000


   alpha     71     72     73     74     75     76     77     78     79     80
    beta     71     72     73     74     75     76     77     78     79     80
 overlap   1.000  1.000  1.000  1.000  1.000  1.000  1.000  1.000  1.000  1.000


   alpha     81     82     83     84     85     86     87     88     89     90
    beta     81     82     83     84     85     86     87     88     89     90
 overlap   1.000  1.000  1.000  1.000  1.000  1.000  1.000  1.000  1.000  1.000


   alpha     91     92     93     94     95     96     97     98     99    100
    beta     91     92     93     94     95     96     97     98     99    100
 overlap   1.000  1.000  1.000  1.000  1.000  1.000  1.000  1.000  1.000  1.000


   alpha    101    102    103    104    105    106
    beta    102    101    103    104    105    106
 overlap   1.000  1.000  1.000  1.000  1.000  1.000

     --------------------------
     Expectation value of S2:  
     --------------------------
      <S2> =     -0.0000 (Exact =     0.0000)


 center of mass
 --------------
 x =   0.00000000 y =   0.00000000 z =   0.00000000

 moments of inertia (a.u.)
 ------------------
         239.804832533110           0.000000000000           0.000000000000
           0.000000000000         239.804832533110           0.000000000000
           0.000000000000           0.000000000000           0.000000000000

     Multipole analysis of the density
     ---------------------------------

     L   x y z        total         alpha         beta         nuclear
     -   - - -        -----         -----         ----         -------
     0   0 0 0     -0.000000    -24.000000    -24.000000     48.000000

     1   1 0 0     -0.000000      0.000000     -0.000000      0.000000
     1   0 1 0      0.000000      0.000000      0.000000      0.000000
     1   0 0 1     -0.000896     -0.000448     -0.000448      0.000000

     2   2 0 0    -25.293443    -12.646722    -12.646722      0.000000
     2   1 1 0      0.000000      0.000000      0.000000      0.000000
     2   1 0 1      0.000000      0.000000      0.000000      0.000000
     2   0 2 0    -25.293443    -12.646722    -12.646722      0.000000
     2   0 1 1     -0.000000     -0.000000     -0.000000      0.000000
     2   0 0 2    -22.429481    -66.617711    -66.617711    110.805941

 Line search: 
     step= 1.00 grad=-1.5D-09 hess= 9.0D-10 energy=  -2088.382886 mode=accept  
 new step= 1.00                   predicted energy=  -2088.382886
  no constraints, skipping    0.0000000000000000     
  no constraints, skipping    0.0000000000000000     
  no constraints, skipping    0.0000000000000000     

          --------
          Step   3
          --------


                           Geometry "geometry" -> "cr2"
                           ----------------------------

 Output coordinates in angstroms (scale by  1.889725989 to convert to a.u.)

  No.       Tag          Charge          X              Y              Z
 ---- ---------------- ---------- -------------- -------------- --------------
    1 cr                  24.0000     0.00000000     0.00000000    -0.80401114
    2 cr                  24.0000     0.00000000     0.00000000     0.80401114

      Atomic Mass 
      ----------- 

      cr                51.940500


 Effective nuclear repulsion energy (a.u.)     189.5534019648

            Nuclear Dipole moment (a.u.) 
            ----------------------------
        X                 Y               Z
 ---------------- ---------------- ----------------
     0.0000000000     0.0000000000     0.0000000000

      Symmetry information
      --------------------

 Group name             C2v       
 Group number             16
 Group order               4
 No. of unique centers     2

      Symmetry unique atoms

     1    2


                                 NWChem DFT Module
                                 -----------------


                         Cr2 dimer - Closed Shell solution




 Summary of "ao basis" -> "ao basis" (spherical)
 ------------------------------------------------------------------------------
       Tag                 Description            Shells   Functions and Types
 ---------------- ------------------------------  ------  ---------------------
 cr                        Wachters+f               19       53   8s6p4d1f


      Symmetry analysis of basis
      --------------------------

        a1         48
        a2         10
        b1         24
        b2         24


  The DFT is already converged 

         Total DFT energy =  -2088.382885769095

  itol2e modified to match energy
  convergence criterion.

            General Information
            -------------------
          SCF calculation type: DFT
          Wavefunction type:  spin polarized.
          No. of atoms     :     2
          No. of electrons :    48
           Alpha electrons :    24
            Beta electrons :    24
          Charge           :     0
          Spin multiplicity:     1
          Use of symmetry is: on ; symmetry adaption is: on 
          Maximum number of iterations:  30
          AO basis - number of functions:   106
                     number of shells:    38
          Convergence on energy requested:  1.00D-09
          Convergence on density requested:  1.00D-05
          Convergence on gradient requested:  5.00D-04

              XC Information
              --------------
                        PBEOP Method XC Functional
          PerdewBurkeErnzerhof Exchange Functional  1.000          
                    OP_PBE96 Correlation Potential  1.000          

             Grid Information
             ----------------
          Grid used for XC integration:  medium    
          Radial quadrature: Mura-Knowles        
          Angular quadrature: Lebedev. 
          Tag              B.-S. Rad. Rad. Pts. Rad. Cut. Ang. Pts.
          ---              ---------- --------- --------- ---------
          cr                  1.40      112          11.0       590
          Grid pruning is: on 
          Number of quadrature shells:   224
          Spatial weights used:  Erf1

          Convergence Information
          -----------------------
          Convergence aids based upon iterative change in 
          total energy or number of iterations. 
          Levelshifting, if invoked, occurs when the 
          HOMO/LUMO gap drops below (HL_TOL):  1.00D-02
          DIIS, if invoked, will attempt to extrapolate 
          using up to (NFOCK): 10 stored Fock matrices.

                    Damping( 0%)  Levelshifting(0.5)       DIIS
                  --------------- ------------------- ---------------
          dE  on:    start            ASAP                start   
          dE off:    2 iters         30 iters            30 iters 

          Smearing applied:  0.10D-02 (hartree)

      Screening Tolerance Information
      -------------------------------
          Density screening/tol_rho:  1.00D-12
          AO Gaussian exp screening on grid/accAOfunc:  21
          CD Gaussian exp screening on grid/accCDfunc:  20
          XC Gaussian exp screening on grid/accXCfunc:  20
          Schwarz screening/accCoul:  1.00D-10



                            NWChem DFT Gradient Module
                            --------------------------


                         Cr2 dimer - Closed Shell solution



  charge          =   0.00
  wavefunction    = open shell

  Using symmetry


                         DFT ENERGY GRADIENTS

    atom               coordinates                        gradient
                 x          y          z           x          y          z
   1 cr      0.000000   0.000000  -1.519361    0.000000   0.000000   0.000001
   2 cr      0.000000   0.000000   1.519361    0.000000   0.000000  -0.000001

                 ----------------------------------------
                 |  Time  |  1-e(secs)   |  2-e(secs)   |
                 ----------------------------------------
                 |  CPU   |       0.00   |       4.28   |
                 ----------------------------------------
                 |  WALL  |       0.00   |       4.28   |
                 ----------------------------------------
  no constraints, skipping    0.0000000000000000     

  Step       Energy      Delta E   Gmax     Grms     Xrms     Xmax   Walltime
  ---- ---------------- -------- -------- -------- -------- -------- --------
@    3   -2088.38288577 -5.8D-10  0.00000  0.00000  0.00001  0.00003    159.2
                                     ok       ok       ok       ok  



                                Z-matrix (autoz)
                                -------- 

 Units are Angstrom for bonds and degrees for angles

      Type          Name      I     J     K     L     M      Value     Gradient
      ----------- --------  ----- ----- ----- ----- ----- ---------- ----------
    1 Stretch                  1     2                       1.60802   -0.00000


      ----------------------
      Optimization converged
      ----------------------


  Step       Energy      Delta E   Gmax     Grms     Xrms     Xmax   Walltime
  ---- ---------------- -------- -------- -------- -------- -------- --------
@    3   -2088.38288577 -5.8D-10  0.00000  0.00000  0.00001  0.00003    159.2
                                     ok       ok       ok       ok  



                                Z-matrix (autoz)
                                -------- 

 Units are Angstrom for bonds and degrees for angles

      Type          Name      I     J     K     L     M      Value     Gradient
      ----------- --------  ----- ----- ----- ----- ----- ---------- ----------
    1 Stretch                  1     2                       1.60802   -0.00000



                           Geometry "geometry" -> "cr2"
                           ----------------------------

 Output coordinates in angstroms (scale by  1.889725989 to convert to a.u.)

  No.       Tag          Charge          X              Y              Z
 ---- ---------------- ---------- -------------- -------------- --------------
    1 cr                  24.0000     0.00000000     0.00000000    -0.80401114
    2 cr                  24.0000     0.00000000     0.00000000     0.80401114

      Atomic Mass 
      ----------- 

      cr                51.940500


 Effective nuclear repulsion energy (a.u.)     189.5534019648

            Nuclear Dipole moment (a.u.) 
            ----------------------------
        X                 Y               Z
 ---------------- ---------------- ----------------
     0.0000000000     0.0000000000     0.0000000000

      Symmetry information
      --------------------

 Group name             C2v       
 Group number             16
 Group order               4
 No. of unique centers     2

      Symmetry unique atoms

     1    2


                Final and change from initial internal coordinates
                --------------------------------------------------



                                Z-matrix (autoz)
                                -------- 

 Units are Angstrom for bonds and degrees for angles

      Type          Name      I     J     K     L     M      Value       Change
      ----------- --------  ----- ----- ----- ----- ----- ---------- ----------
    1 Stretch                  1     2                       1.60802   -0.08223

 ==============================================================================
                                internuclear distances
 ------------------------------------------------------------------------------
       center one      |      center two      | atomic units |  angstroms
 ------------------------------------------------------------------------------
    2 cr               |   1 cr               |     3.03872  |     1.60802
 ------------------------------------------------------------------------------
                         number of included internuclear distances:          1
 ==============================================================================




 Task  times  cpu:       77.9s     wall:       77.9s


                                NWChem Input Module
                                -------------------


 Summary of allocated global arrays
-----------------------------------
  No active global arrays



                         GA Statistics for process    0
                         ------------------------------

       create   destroy   get      put      acc     scatter   gather  read&inc
calls: 7914     7914     4.91e+05 8.23e+04 2.01e+04    0        0     1.10e+04 
number of processes/call 1.13e+00 1.23e+00 1.65e+00 0.00e+00 0.00e+00
bytes total:             1.37e+09 2.21e+08 7.11e+08 0.00e+00 0.00e+00 8.84e+04
bytes remote:            6.99e+08 8.36e+07 2.64e+08 0.00e+00 0.00e+00 0.00e+00
Max memory consumed for GA by this process: 1730344 bytes

MA_summarize_allocated_blocks: starting scan ...
MA_summarize_allocated_blocks: scan completed: 0 heap blocks, 0 stack blocks
MA usage statistics:

	allocation statistics:
					      heap	     stack
					      ----	     -----
	current number of blocks	         0	         0
	maximum number of blocks	        27	        60
	current total bytes		         0	         0
	maximum total bytes		 276440952	  42320648
	maximum total K-bytes		    276441	     42321
	maximum total M-bytes		       277	        43


                                     CITATION
                                     --------
                Please cite the following reference when publishing
                           results obtained with NWChem:

                 M. Valiev, E.J. Bylaska, N. Govind, K. Kowalski,
              T.P. Straatsma, H.J.J. van Dam, D. Wang, J. Nieplocha,
                        E. Apra, T.L. Windus, W.A. de Jong
                 "NWChem: a comprehensive and scalable open-source
                  solution for large scale molecular simulations"
                      Comput. Phys. Commun. 181, 1477 (2010)
                           doi:10.1016/j.cpc.2010.04.018

                                      AUTHORS
                                      -------
          E. Apra, E. J. Bylaska, W. A. de Jong, N. Govind, K. Kowalski,
       T. P. Straatsma, M. Valiev, H. J. J. van Dam, D. Wang, T. L. Windus,
        J. Hammond, J. Autschbach, K. Bhaskaran-Nair, J. Brabec, K. Lopata,
    S. A. Fischer, S. Krishnamoorthy, M. Jacquelin, W. Ma, M. Klemm, O. Villa,
      Y. Chen, V. Anisimov, F. Aquino, S. Hirata, M. T. Hackler, V. Konjkov,
            D. Mejia-Rodriguez, T. Risthaus, M. Malagoli, A. Marenich,
   A. Otero-de-la-Roza, J. Mullin, P. Nichols, R. Peverati, J. Pittner, Y. Zhao,
        P.-D. Fan, A. Fonari, M. J. Williamson, R. J. Harrison, J. R. Rehr,
      M. Dupuis, D. Silverstein, D. M. A. Smith, J. Nieplocha, V. Tipparaju,
    M. Krishnan, B. E. Van Kuiken, A. Vazquez-Mayagoitia, L. Jensen, M. Swart,
      Q. Wu, T. Van Voorhis, A. A. Auer, M. Nooijen, L. D. Crosby, E. Brown,
      G. Cisneros, G. I. Fann, H. Fruchtl, J. Garza, K. Hirao, R. A. Kendall,
      J. A. Nichols, K. Tsemekhman, K. Wolinski, J. Anchell, D. E. Bernholdt,
      P. Borowski, T. Clark, D. Clerc, H. Dachsel, M. J. O. Deegan, K. Dyall,
    D. Elwood, E. Glendening, M. Gutowski, A. C. Hess, J. Jaffe, B. G. Johnson,
     J. Ju, R. Kobayashi, R. Kutteh, Z. Lin, R. Littlefield, X. Long, B. Meng,
      T. Nakajima, S. Niu, L. Pollack, M. Rosing, K. Glaesemann, G. Sandrone,
      M. Stave, H. Taylor, G. Thomas, J. H. van Lenthe, A. T. Wong, Z. Zhang.

 Total times  cpu:      159.1s     wall:      159.2s
