 argument  1 = /home/list1234/source/nwchem-6.8.1-release/QA/tests/dft_bsse/dft_bsse.nw



============================== echo of input deck ==============================
echo
start dft_bsse

charge 0


geometry  g1 autosym units angstrom
zmatrix
    H
    O    1 r2
    H    2 r3    1 a3
    bqO  3 r4    2 a4    1 d4
    bqH  4 r5    3 a5    2 d5
    bqH  4 r6    3 a6    2 d6
    variables
    r2 0.9637
    r3 0.8728
    a3  95.07
    r4 1.8441
    a4 172.11
    d4 179.97
    r5 0.9654
    a5 110.73
    d5  58.09
    r6 0.9654
    a6 110.73
    d6 301.91
end
end
geometry  g2 autosym units angstrom
zmatrix
    H
    O    1 r2
    H    2 r3    1 a3
    bqO  3 r4    2 a4    1 d4
    XH  4 r5    3 a5    2 d5
    XH  4 r6    3 a6    2 d6
    variables
    r2 0.9637
    r3 0.8728
    a3  95.07
    r4 1.8441
    a4 172.11
    d4 179.97
    r5 0.9654
    a5 110.73
    d5  58.09
    r6 0.9654
    a6 110.73
    d6 301.91
end
end

basis "ao basis" spherical print
  H library "aug-cc-pVDZ"
  O library "aug-cc-pVDZ"
  bqH library H aug-cc-pVDZ
  bqO library O aug-cc-pVDZ
END

title "H2O with bqs"
set geometry g1
task dft


title "H2O with bqs and Xs"
set geometry g2
task dft

================================================================================


                                         
                                         


              Northwest Computational Chemistry Package (NWChem) 6.8
              ------------------------------------------------------


                    Environmental Molecular Sciences Laboratory
                       Pacific Northwest National Laboratory
                                Richland, WA 99352

                              Copyright (c) 1994-2018
                       Pacific Northwest National Laboratory
                            Battelle Memorial Institute

             NWChem is an open-source computational chemistry package
                        distributed under the terms of the
                      Educational Community License (ECL) 2.0
             A copy of the license is included with this distribution
                              in the LICENSE.TXT file

                                  ACKNOWLEDGMENT
                                  --------------

            This software and its documentation were developed at the
            EMSL at Pacific Northwest National Laboratory, a multiprogram
            national laboratory, operated for the U.S. Department of Energy
            by Battelle under Contract Number DE-AC05-76RL01830. Support
            for this work was provided by the Department of Energy Office
            of Biological and Environmental Research, Office of Basic
            Energy Sciences, and the Office of Advanced Scientific Computing.


           Job information
           ---------------

    hostname        = list1234-B360M-H
    program         = /home/list1234/source/nwchem-6.8.1-release/bin/LINUX64/nwchem
    date            = Sun Jun 30 05:45:11 2019

    compiled        = Sun_Jun_30_05:21:11_2019
    source          = /home/list1234/source/nwchem-6.8.1-release
    nwchem branch   = Development
    nwchem revision = N/A
    ga revision     = 5.6.5
    use scalapack   = T
    input           = /home/list1234/source/nwchem-6.8.1-release/QA/tests/dft_bsse/dft_bsse.nw
    prefix          = dft_bsse.
    data base       = ./dft_bsse.db
    status          = startup
    nproc           =        4
    time left       =     -1s



           Memory information
           ------------------

    heap     =   86247166 doubles =    658.0 Mbytes
    stack    =   86247163 doubles =    658.0 Mbytes
    global   =  172494336 doubles =   1316.0 Mbytes (distinct from heap & stack)
    total    =  344988665 doubles =   2632.1 Mbytes
    verify   = yes
    hardfail = no 


           Directory information
           ---------------------

  0 permanent = .
  0 scratch   = .




                                NWChem Input Module
                                -------------------



 Scaling coordinates for geometry "g1" by  1.889725989
 (inverse scale =  0.529177249)

 CS  symmetry detected


                                Geometry "g1" -> ""
                                -------------------

 Output coordinates in angstroms (scale by  1.889725989 to convert to a.u.)

  No.       Tag          Charge          X              Y              Z
 ---- ---------------- ---------- -------------- -------------- --------------
    1 H                    1.0000     0.79551152    -0.37472631     0.00000000
    2 O                    8.0000    -0.11263689    -0.05226149     0.00000000
    3 H                    1.0000     0.10558356     0.79281820     0.00000000
    4 bqO                  0.0000     0.31718423     2.62473794     0.00000000
    5 bqH                  0.0000    -0.11771335     3.01896139    -0.76645225
    6 bqH                  0.0000    -0.11771335     3.01896139     0.76645225

      Atomic Mass 
      ----------- 

      H                  1.007825
      O                 15.994910


 Effective nuclear repulsion energy (a.u.)       9.6334718543

            Nuclear Dipole moment (a.u.) 
            ----------------------------
        X                 Y               Z
 ---------------- ---------------- ----------------
     0.0000000000     0.0000000000     0.0000000000

      Symmetry information
      --------------------

 Group name             Cs        
 Group number              2
 Group order               2
 No. of unique centers     5

      Symmetry unique atoms

     1    2    3    4    5



                                Z-matrix (user)
                                -------- 

 Units are Angstrom for bonds and degrees for angles

      Type          Name      I     J     K     L     M      Value
      ----------- --------  ----- ----- ----- ----- ----- ----------
    1 Stretch      r2          2     1                       0.96370
    2 Stretch      r3          3     2                       0.87280
    3 Bend         a3          3     2     1                95.07001
    4 Stretch      r4          4     3                       1.84410
    5 Bend         a4          4     3     2               172.11000
    6 Torsion      d4          4     3     2     1         180.00000
    7 Stretch      r5          5     4                       0.96540
    8 Bend         a5          5     4     3               110.73000
    9 Torsion      d5          5     4     3     2         -58.09000
   10 Stretch      r6          6     4                       0.96540
   11 Bend         a6          6     4     3               110.73000
   12 Torsion      d6          6     4     3     2          58.09000


            XYZ format geometry
            -------------------
     6
 g1
 H                     0.79551152    -0.37472631     0.00000000
 O                    -0.11263689    -0.05226149     0.00000000
 H                     0.10558356     0.79281820     0.00000000
 bqO                   0.31718423     2.62473794     0.00000000
 bqH                  -0.11771335     3.01896139    -0.76645225
 bqH                  -0.11771335     3.01896139     0.76645225

 ==============================================================================
                                internuclear distances
 ------------------------------------------------------------------------------
       center one      |      center two      | atomic units |  angstroms
 ------------------------------------------------------------------------------
    2 O                |   1 H                |     1.82113  |     0.96370
    3 H                |   2 O                |     1.64935  |     0.87280
    4 bqO              |   2 O                |     5.12359  |     2.71129
    4 bqO              |   3 H                |     3.48484  |     1.84410
    5 bqH              |   3 H                |     4.46912  |     2.36496
    5 bqH              |   4 bqO              |     1.82434  |     0.96540
    6 bqH              |   3 H                |     4.46912  |     2.36496
    6 bqH              |   4 bqO              |     1.82434  |     0.96540
    6 bqH              |   5 bqH              |     2.89677  |     1.53290
 ------------------------------------------------------------------------------
                         number of included internuclear distances:          9
 ==============================================================================



 ==============================================================================
                                 internuclear angles
 ------------------------------------------------------------------------------
        center 1       |       center 2       |       center 3       |  degrees
 ------------------------------------------------------------------------------
    1 H                |   2 O                |   3 H                |    95.07
    1 H                |   2 O                |   4 bqO              |   100.43
    2 O                |   3 H                |   4 bqO              |   172.11
    2 O                |   3 H                |   4 bqO              |   172.11
    2 O                |   3 H                |   5 bqH              |   152.60
    2 O                |   3 H                |   6 bqH              |   152.60
    3 H                |   4 bqO              |   5 bqH              |   110.73
    3 H                |   4 bqO              |   6 bqH              |   110.73
    5 bqH              |   3 H                |   6 bqH              |    37.82
    4 bqO              |   3 H                |   2 O                |   172.11
    2 O                |   4 bqO              |   5 bqH              |   109.38
    2 O                |   4 bqO              |   6 bqH              |   109.38
    3 H                |   4 bqO              |   5 bqH              |   110.73
    3 H                |   4 bqO              |   6 bqH              |   110.73
    5 bqH              |   4 bqO              |   6 bqH              |   105.11
    5 bqH              |   4 bqO              |   3 H                |   110.73
    5 bqH              |   3 H                |   6 bqH              |    37.82
    5 bqH              |   4 bqO              |   6 bqH              |   105.11
    6 bqH              |   4 bqO              |   3 H                |   110.73
    6 bqH              |   3 H                |   5 bqH              |    37.82
    6 bqH              |   4 bqO              |   5 bqH              |   105.11
 ------------------------------------------------------------------------------
                            number of included internuclear angles:         21
 ==============================================================================




 Scaling coordinates for geometry "g2" by  1.889725989
 (inverse scale =  0.529177249)

 CS  symmetry detected


                               Geometry "g2" -> "  "
                               ---------------------

 Output coordinates in angstroms (scale by  1.889725989 to convert to a.u.)

  No.       Tag          Charge          X              Y              Z
 ---- ---------------- ---------- -------------- -------------- --------------
    1 H                    1.0000    -0.83416136    -0.27826910     0.00000000
    2 O                    8.0000     0.10568557    -0.06518357     0.00000000
    3 H                    1.0000    -0.01132321     0.79973769     0.00000000
    4 bqO                  0.0000    -0.00534794     2.64382800     0.00000000
    5 XH                   0.0000     0.47301688     2.98399720    -0.76645218
    6 XH                   0.0000     0.47301688     2.98399720     0.76645218

      Atomic Mass 
      ----------- 

      H                  1.007825
      O                 15.994910


 Effective nuclear repulsion energy (a.u.)       9.6334703631

            Nuclear Dipole moment (a.u.) 
            ----------------------------
        X                 Y               Z
 ---------------- ---------------- ----------------
     0.0000000000     0.0000000000     0.0000000000

      Symmetry information
      --------------------

 Group name             Cs        
 Group number              2
 Group order               2
 No. of unique centers     5

      Symmetry unique atoms

     1    2    3    4    5



                                Z-matrix (user)
                                -------- 

 Units are Angstrom for bonds and degrees for angles

      Type          Name      I     J     K     L     M      Value
      ----------- --------  ----- ----- ----- ----- ----- ----------
    1 Stretch      r2          2     1                       0.96370
    2 Stretch      r3          3     2                       0.87280
    3 Bend         a3          3     2     1                95.07000
    4 Stretch      r4          4     3                       1.84410
    5 Bend         a4          4     3     2               172.11000
    6 Torsion      d4          4     3     2     1         180.00000
    7 Stretch      r5          5     4                       0.96540
    8 Bend         a5          5     4     3               110.73000
    9 Torsion      d5          5     4     3     2          58.09000
   10 Stretch      r6          6     4                       0.96540
   11 Bend         a6          6     4     3               110.73000
   12 Torsion      d6          6     4     3     2         -58.09000


            XYZ format geometry
            -------------------
     6
 g2
 H                    -0.83416136    -0.27826910     0.00000000
 O                     0.10568557    -0.06518357     0.00000000
 H                    -0.01132321     0.79973769     0.00000000
 bqO                  -0.00534794     2.64382800     0.00000000
 XH                    0.47301688     2.98399720    -0.76645218
 XH                    0.47301688     2.98399720     0.76645218

 ==============================================================================
                                internuclear distances
 ------------------------------------------------------------------------------
       center one      |      center two      | atomic units |  angstroms
 ------------------------------------------------------------------------------
    2 O                |   1 H                |     1.82113  |     0.96370
    3 H                |   2 O                |     1.64935  |     0.87280
    4 bqO              |   2 O                |     5.12359  |     2.71129
    4 bqO              |   3 H                |     3.48484  |     1.84410
    5 XH               |   3 H                |     4.46912  |     2.36496
    5 XH               |   4 bqO              |     1.82434  |     0.96540
    6 XH               |   3 H                |     4.46912  |     2.36496
    6 XH               |   4 bqO              |     1.82434  |     0.96540
    6 XH               |   5 XH               |     2.89677  |     1.53290
 ------------------------------------------------------------------------------
                         number of included internuclear distances:          9
 ==============================================================================



 ==============================================================================
                                 internuclear angles
 ------------------------------------------------------------------------------
        center 1       |       center 2       |       center 3       |  degrees
 ------------------------------------------------------------------------------
    1 H                |   2 O                |   3 H                |    95.07
    1 H                |   2 O                |   4 bqO              |   100.43
    2 O                |   3 H                |   4 bqO              |   172.11
    2 O                |   3 H                |   4 bqO              |   172.11
    2 O                |   3 H                |   5 XH               |   152.60
    2 O                |   3 H                |   6 XH               |   152.60
    3 H                |   4 bqO              |   5 XH               |   110.73
    3 H                |   4 bqO              |   6 XH               |   110.73
    5 XH               |   3 H                |   6 XH               |    37.82
    4 bqO              |   3 H                |   2 O                |   172.11
    2 O                |   4 bqO              |   5 XH               |   109.38
    2 O                |   4 bqO              |   6 XH               |   109.38
    3 H                |   4 bqO              |   5 XH               |   110.73
    3 H                |   4 bqO              |   6 XH               |   110.73
    5 XH               |   4 bqO              |   6 XH               |   105.11
    5 XH               |   4 bqO              |   3 H                |   110.73
    5 XH               |   3 H                |   6 XH               |    37.82
    5 XH               |   4 bqO              |   6 XH               |   105.11
    6 XH               |   4 bqO              |   3 H                |   110.73
    6 XH               |   3 H                |   5 XH               |    37.82
    6 XH               |   4 bqO              |   5 XH               |   105.11
 ------------------------------------------------------------------------------
                            number of included internuclear angles:         21
 ==============================================================================



                      Basis "ao basis" -> "" (spherical)
                      -----
  H (Hydrogen)
  ------------
            Exponent  Coefficients 
       -------------- ---------------------------------------------------------
  1 S  1.30100000E+01  0.019685
  1 S  1.96200000E+00  0.137977
  1 S  4.44600000E-01  0.478148

  2 S  1.22000000E-01  1.000000

  3 S  2.97400000E-02  1.000000

  4 P  7.27000000E-01  1.000000

  5 P  1.41000000E-01  1.000000

  O (Oxygen)
  ----------
            Exponent  Coefficients 
       -------------- ---------------------------------------------------------
  1 S  1.17200000E+04  0.000710
  1 S  1.75900000E+03  0.005470
  1 S  4.00800000E+02  0.027837
  1 S  1.13700000E+02  0.104800
  1 S  3.70300000E+01  0.283062
  1 S  1.32700000E+01  0.448719
  1 S  5.02500000E+00  0.270952
  1 S  1.01300000E+00  0.015458

  2 S  1.17200000E+04 -0.000160
  2 S  1.75900000E+03 -0.001263
  2 S  4.00800000E+02 -0.006267
  2 S  1.13700000E+02 -0.025716
  2 S  3.70300000E+01 -0.070924
  2 S  1.32700000E+01 -0.165411
  2 S  5.02500000E+00 -0.116955
  2 S  1.01300000E+00  0.557368

  3 S  3.02300000E-01  1.000000

  4 S  7.89600000E-02  1.000000

  5 P  1.77000000E+01  0.043018
  5 P  3.85400000E+00  0.228913
  5 P  1.04600000E+00  0.508728

  6 P  2.75300000E-01  1.000000

  7 P  6.85600000E-02  1.000000

  8 D  1.18500000E+00  1.000000

  9 D  3.32000000E-01  1.000000

  bqH
  ---
            Exponent  Coefficients 
       -------------- ---------------------------------------------------------
  1 S  1.30100000E+01  0.019685
  1 S  1.96200000E+00  0.137977
  1 S  4.44600000E-01  0.478148

  2 S  1.22000000E-01  1.000000

  3 S  2.97400000E-02  1.000000

  4 P  7.27000000E-01  1.000000

  5 P  1.41000000E-01  1.000000

  bqO
  ---
            Exponent  Coefficients 
       -------------- ---------------------------------------------------------
  1 S  1.17200000E+04  0.000710
  1 S  1.75900000E+03  0.005470
  1 S  4.00800000E+02  0.027837
  1 S  1.13700000E+02  0.104800
  1 S  3.70300000E+01  0.283062
  1 S  1.32700000E+01  0.448719
  1 S  5.02500000E+00  0.270952
  1 S  1.01300000E+00  0.015458

  2 S  1.17200000E+04 -0.000160
  2 S  1.75900000E+03 -0.001263
  2 S  4.00800000E+02 -0.006267
  2 S  1.13700000E+02 -0.025716
  2 S  3.70300000E+01 -0.070924
  2 S  1.32700000E+01 -0.165411
  2 S  5.02500000E+00 -0.116955
  2 S  1.01300000E+00  0.557368

  3 S  3.02300000E-01  1.000000

  4 S  7.89600000E-02  1.000000

  5 P  1.77000000E+01  0.043018
  5 P  3.85400000E+00  0.228913
  5 P  1.04600000E+00  0.508728

  6 P  2.75300000E-01  1.000000

  7 P  6.85600000E-02  1.000000

  8 D  1.18500000E+00  1.000000

  9 D  3.32000000E-01  1.000000



 Summary of "ao basis" -> "" (spherical)
 ------------------------------------------------------------------------------
       Tag                 Description            Shells   Functions and Types
 ---------------- ------------------------------  ------  ---------------------
 H                        aug-cc-pVDZ                5        9   3s2p
 O                        aug-cc-pVDZ                9       23   4s3p2d
 bqH                      aug-cc-pVDZ                5        9   3s2p
 bqO                      aug-cc-pVDZ                9       23   4s3p2d


                                   H2O with bqs
                                   ------------

                                 NWChem DFT Module
                                 -----------------


                                   H2O with bqs




 Summary of "ao basis" -> "ao basis" (spherical)
 ------------------------------------------------------------------------------
       Tag                 Description            Shells   Functions and Types
 ---------------- ------------------------------  ------  ---------------------
 H                        aug-cc-pVDZ                5        9   3s2p
 O                        aug-cc-pVDZ                9       23   4s3p2d
 bqH                      aug-cc-pVDZ                5        9   3s2p
 bqO                      aug-cc-pVDZ                9       23   4s3p2d


      Symmetry analysis of basis
      --------------------------

        a'         55
        a"         27

  Caching 1-el integrals 

            General Information
            -------------------
          SCF calculation type: DFT
          Wavefunction type:  closed shell.
          No. of atoms     :     6
          No. of electrons :    10
           Alpha electrons :     5
            Beta electrons :     5
          Charge           :     0
          Spin multiplicity:     1
          Use of symmetry is: on ; symmetry adaption is: on 
          Maximum number of iterations:  30
          AO basis - number of functions:    82
                     number of shells:    38
          Convergence on energy requested:  1.00D-06
          Convergence on density requested:  1.00D-05
          Convergence on gradient requested:  5.00D-04

              XC Information
              --------------
                        Slater Exchange Functional  1.000 local    
                      VWN V Correlation Functional  1.000 local    

             Grid Information
             ----------------
          Grid used for XC integration:  medium    
          Radial quadrature: Mura-Knowles        
          Angular quadrature: Lebedev. 
          Tag              B.-S. Rad. Rad. Pts. Rad. Cut. Ang. Pts.
          ---              ---------- --------- --------- ---------
          H                   0.35       45          14.0       434
          O                   0.60       49          13.0       434
          bqO                 0.60       49          13.0       434
          bqH                 0.35       45          14.0       434
          Grid pruning is: on 
          Number of quadrature shells:   233
          Spatial weights used:  Erf1

          Convergence Information
          -----------------------
          Convergence aids based upon iterative change in 
          total energy or number of iterations. 
          Levelshifting, if invoked, occurs when the 
          HOMO/LUMO gap drops below (HL_TOL):  1.00D-02
          DIIS, if invoked, will attempt to extrapolate 
          using up to (NFOCK): 10 stored Fock matrices.

                    Damping( 0%)  Levelshifting(0.5)       DIIS
                  --------------- ------------------- ---------------
          dE  on:    start            ASAP                start   
          dE off:    2 iters         30 iters            30 iters 


      Screening Tolerance Information
      -------------------------------
          Density screening/tol_rho:  1.00D-10
          AO Gaussian exp screening on grid/accAOfunc:  14
          CD Gaussian exp screening on grid/accCDfunc:  20
          XC Gaussian exp screening on grid/accXCfunc:  20
          Schwarz screening/accCoul:  1.00D-08


      Superposition of Atomic Density Guess
      -------------------------------------

 Sum of atomic energies:         -75.76548395

      Non-variational initial energy
      ------------------------------

 Total energy =     -76.016474
 1-e energy   =    -122.334869
 2-e energy   =      36.684923
 HOMO         =      -0.497768
 LUMO         =       0.012003


      Symmetry analysis of molecular orbitals - initial
      -------------------------------------------------

  Numbering of irreducible representations: 

     1 a'          2 a"      

  Orbital symmetries:

     1 a'          2 a'          3 a'          4 a'          5 a"      
     6 a'          7 a'          8 a"          9 a'         10 a'      
    11 a'         12 a'         13 a"         14 a'         15 a"      

   Time after variat. SCF:      0.1
   Time prior to 1st pass:      0.1

 Grid_pts file          = ./dft_bsse.gridpts.0
 Record size in doubles =  12289        No. of grid_pts per rec  =   3070
 Max. records in memory =     11        Max. recs in file   = 253312716


           Memory utilization after 1st SCF pass: 
           Heap Space remaining (MW):       51.68            51677590
          Stack Space remaining (MW):       86.25            86246564

   convergence    iter        energy       DeltaE   RMS-Dens  Diis-err    time
 ---------------- ----- ----------------- --------- --------- ---------  ------
 d= 0,ls=0.0,diis     1    -75.8230717244 -8.55D+01  1.08D-02  4.92D-01     0.3
 d= 0,ls=0.0,diis     2    -75.7434583113  7.96D-02  6.06D-03  1.30D+00     0.5
 d= 0,ls=0.0,diis     3    -75.8631883905 -1.20D-01  8.85D-04  3.37D-02     0.7
 d= 0,ls=0.0,diis     4    -75.8661300333 -2.94D-03  1.52D-04  6.89D-04     0.9
 d= 0,ls=0.0,diis     5    -75.8662004164 -7.04D-05  1.11D-05  8.22D-07     1.1
 d= 0,ls=0.0,diis     6    -75.8662004974 -8.10D-08  2.37D-06  1.57D-07     1.3


         Total DFT energy =      -75.866200497363
      One electron energy =     -123.601204048967
           Coulomb energy =       46.885991005486
    Exchange-Corr. energy =       -8.784459308216
 Nuclear repulsion energy =        9.633471854335

 Numeric. integr. density =        9.999999864634

     Total iterative time =      1.1s



                  Occupations of the irreducible representations
                  ----------------------------------------------

                     irrep           alpha         beta
                     --------     --------     --------
                     a'                4.0          4.0
                     a"                1.0          1.0


                       DFT Final Molecular Orbital Analysis
                       ------------------------------------

 Vector    1  Occ=2.000000D+00  E=-1.861789D+01  Symmetry=a'
              MO Center= -1.1D-01, -5.2D-02,  4.3D-19, r^2= 1.5D-02
   Bfn.  Coefficient  Atom+Function         Bfn.  Coefficient  Atom+Function  
  ----- ------------  ---------------      ----- ------------  ---------------
    10      1.006984  2 O  s          

 Vector    2  Occ=2.000000D+00  E=-9.567359D-01  Symmetry=a'
              MO Center=  8.7D-02,  8.9D-02, -5.1D-16, r^2= 4.8D-01
   Bfn.  Coefficient  Atom+Function         Bfn.  Coefficient  Atom+Function  
  ----- ------------  ---------------      ----- ------------  ---------------
    11      0.430634  2 O  s                 12      0.316995  2 O  s          
    33      0.277671  3 H  s                  1      0.210807  1 H  s          
    14      0.118137  2 O  px                15      0.085893  2 O  py         
    13      0.052762  2 O  s                 37     -0.044003  3 H  py         
     4     -0.034011  1 H  px                40      0.031591  3 H  py         

 Vector    3  Occ=2.000000D+00  E=-4.835093D-01  Symmetry=a'
              MO Center=  9.7D-02,  1.5D-04,  6.0D-18, r^2= 7.3D-01
   Bfn.  Coefficient  Atom+Function         Bfn.  Coefficient  Atom+Function  
  ----- ------------  ---------------      ----- ------------  ---------------
    15      0.479062  2 O  py                33      0.356963  3 H  s          
     1     -0.348513  1 H  s                 14     -0.235415  2 O  px         
    34      0.174566  3 H  s                  2     -0.163398  1 H  s          
    18      0.135692  2 O  py                17     -0.073356  2 O  px         
    12     -0.052630  2 O  s                 32      0.034830  2 O  d  2       

 Vector    4  Occ=2.000000D+00  E=-3.654625D-01  Symmetry=a'
              MO Center= -1.9D-01, -1.0D-01, -1.6D-14, r^2= 7.2D-01
   Bfn.  Coefficient  Atom+Function         Bfn.  Coefficient  Atom+Function  
  ----- ------------  ---------------      ----- ------------  ---------------
    14      0.484321  2 O  px                12     -0.359531  2 O  s          
    15      0.247140  2 O  py                17      0.238405  2 O  px         
     1      0.215112  1 H  s                 33      0.201420  3 H  s          
    11     -0.186602  2 O  s                 13     -0.124161  2 O  s          
    18      0.117753  2 O  py                 2      0.077389  1 H  s          

 Vector    5  Occ=2.000000D+00  E=-2.759391D-01  Symmetry=a"
              MO Center= -6.6D-02, -2.6D-02,  1.6D-14, r^2= 7.3D-01
   Bfn.  Coefficient  Atom+Function         Bfn.  Coefficient  Atom+Function  
  ----- ------------  ---------------      ----- ------------  ---------------
    16      0.630954  2 O  pz                19      0.407598  2 O  pz         
    22      0.089093  2 O  pz                41      0.037538  3 H  pz         
     9      0.031700  1 H  pz                38      0.031747  3 H  pz         
     6      0.028448  1 H  pz         

 Vector    6  Occ=0.000000D+00  E=-3.211749D-02  Symmetry=a'
              MO Center=  8.9D-01,  3.3D-01, -9.6D-15, r^2= 6.6D+00
   Bfn.  Coefficient  Atom+Function         Bfn.  Coefficient  Atom+Function  
  ----- ------------  ---------------      ----- ------------  ---------------
     3      0.756653  1 H  s                  2      0.363731  1 H  s          
    12     -0.260571  2 O  s                 13     -0.198518  2 O  s          
    45     -0.172341  4 bq s                 14     -0.165203  2 O  px         
    11     -0.135930  2 O  s                 17     -0.129358  2 O  px         
    67      0.128246  5 bq s                 76      0.128246  6 bq s          

 Vector    7  Occ=0.000000D+00  E= 2.239029D-02  Symmetry=a'
              MO Center=  4.0D-01,  1.4D+00, -1.8D-14, r^2= 1.4D+01
   Bfn.  Coefficient  Atom+Function         Bfn.  Coefficient  Atom+Function  
  ----- ------------  ---------------      ----- ------------  ---------------
     3      1.712324  1 H  s                 35     -1.200298  3 H  s          
    45      0.700956  4 bq s                 67     -0.473183  5 bq s          
    76     -0.473183  6 bq s                  2      0.352083  1 H  s          
    66     -0.252130  5 bq s                 75     -0.252130  6 bq s          
    34     -0.241182  3 H  s                 21      0.213173  2 O  py         

 Vector    8  Occ=0.000000D+00  E= 4.690469D-02  Symmetry=a"
              MO Center= -2.5D-01,  2.8D+00,  2.1D-14, r^2= 1.4D+01
   Bfn.  Coefficient  Atom+Function         Bfn.  Coefficient  Atom+Function  
  ----- ------------  ---------------      ----- ------------  ---------------
    67      2.482558  5 bq s                 76     -2.482558  6 bq s          
    54      0.466671  4 bq pz                66      0.336834  5 bq s          
    75     -0.336834  6 bq s                 22     -0.130565  2 O  pz         
    73      0.099842  5 bq pz                82      0.099842  6 bq pz         
    16      0.098460  2 O  pz                19      0.097952  2 O  pz         

 Vector    9  Occ=0.000000D+00  E= 5.672623D-02  Symmetry=a'
              MO Center=  8.1D-02,  2.2D+00,  2.7D-15, r^2= 1.9D+01
   Bfn.  Coefficient  Atom+Function         Bfn.  Coefficient  Atom+Function  
  ----- ------------  ---------------      ----- ------------  ---------------
    35      5.468983  3 H  s                  3     -3.361145  1 H  s          
    67     -1.430180  5 bq s                 76     -1.430180  6 bq s          
    45      0.979712  4 bq s                 34      0.805277  3 H  s          
    13     -0.535307  2 O  s                 21     -0.525399  2 O  py         
     2     -0.419681  1 H  s                 53      0.412758  4 bq py         

 Vector   10  Occ=0.000000D+00  E= 7.974332D-02  Symmetry=a'
              MO Center= -5.0D-01,  6.1D-01, -3.0D-15, r^2= 9.9D+00
   Bfn.  Coefficient  Atom+Function         Bfn.  Coefficient  Atom+Function  
  ----- ------------  ---------------      ----- ------------  ---------------
    13      2.239548  2 O  s                 35     -1.484544  3 H  s          
    34     -1.174017  3 H  s                 45      0.919383  4 bq s          
    20      0.711415  2 O  px                21      0.590172  2 O  py         
    52      0.505062  4 bq px                 2     -0.317570  1 H  s          
    40      0.301890  3 H  py                12      0.202218  2 O  s          

 Vector   11  Occ=0.000000D+00  E= 1.075110D-01  Symmetry=a'
              MO Center=  5.8D-01,  1.5D+00,  5.9D-15, r^2= 9.9D+00
   Bfn.  Coefficient  Atom+Function         Bfn.  Coefficient  Atom+Function  
  ----- ------------  ---------------      ----- ------------  ---------------
    45     -2.929227  4 bq s                 35      2.896438  3 H  s          
    13     -1.463372  2 O  s                 52      1.366459  4 bq px         
    66      1.066167  5 bq s                 75      1.066167  6 bq s          
     3     -0.765880  1 H  s                 34      0.413581  3 H  s          
     7     -0.372228  1 H  px                67     -0.296456  5 bq s          

 Vector   12  Occ=0.000000D+00  E= 1.160057D-01  Symmetry=a'
              MO Center=  6.5D-01,  2.5D-01, -1.3D-16, r^2= 1.1D+01
   Bfn.  Coefficient  Atom+Function         Bfn.  Coefficient  Atom+Function  
  ----- ------------  ---------------      ----- ------------  ---------------
    45      2.839475  4 bq s                  3      2.448272  1 H  s          
    35     -2.171614  3 H  s                 13     -1.158370  2 O  s          
    66     -0.762274  5 bq s                 75     -0.762274  6 bq s          
    20     -0.679193  2 O  px                 7     -0.478763  1 H  px         
    52     -0.362236  4 bq px                67     -0.341454  5 bq s          

 Vector   13  Occ=0.000000D+00  E= 1.290555D-01  Symmetry=a"
              MO Center= -1.3D-01,  7.7D-01,  1.6D-14, r^2= 1.1D+01
   Bfn.  Coefficient  Atom+Function         Bfn.  Coefficient  Atom+Function  
  ----- ------------  ---------------      ----- ------------  ---------------
    67      1.974239  5 bq s                 76     -1.974239  6 bq s          
    22      1.209250  2 O  pz                54      1.018642  4 bq pz         
    66      0.610666  5 bq s                 75     -0.610666  6 bq s          
    41     -0.327914  3 H  pz                16     -0.246666  2 O  pz         
    19     -0.220712  2 O  pz                71      0.103311  5 bq px         

 Vector   14  Occ=0.000000D+00  E= 1.526742D-01  Symmetry=a'
              MO Center=  1.5D-01, -7.6D-02, -1.9D-15, r^2= 9.9D+00
   Bfn.  Coefficient  Atom+Function         Bfn.  Coefficient  Atom+Function  
  ----- ------------  ---------------      ----- ------------  ---------------
     3      1.783544  1 H  s                 21      1.790766  2 O  py         
    34     -1.600683  3 H  s                 35     -1.128760  3 H  s          
    52     -0.661124  4 bq px                 2      0.648930  1 H  s          
     7     -0.436722  1 H  px                13     -0.248524  2 O  s          
    53     -0.213856  4 bq py                20      0.180103  2 O  px         

 Vector   15  Occ=0.000000D+00  E= 1.660513D-01  Symmetry=a"
              MO Center=  2.7D-01,  1.8D+00,  3.8D-14, r^2= 1.1D+01
   Bfn.  Coefficient  Atom+Function         Bfn.  Coefficient  Atom+Function  
  ----- ------------  ---------------      ----- ------------  ---------------
    54      2.677226  4 bq pz                67      2.121008  5 bq s          
    76     -2.121008  6 bq s                 66      1.779418  5 bq s          
    75     -1.779418  6 bq s                 22     -0.786393  2 O  pz         
    41      0.269761  3 H  pz                71      0.259914  5 bq px         
    80     -0.259914  6 bq px                51      0.255440  4 bq pz         

 Vector   16  Occ=0.000000D+00  E= 1.814924D-01  Symmetry=a'
              MO Center=  1.7D-01,  2.6D+00, -4.2D-14, r^2= 1.0D+01
   Bfn.  Coefficient  Atom+Function         Bfn.  Coefficient  Atom+Function  
  ----- ------------  ---------------      ----- ------------  ---------------
    53      2.252911  4 bq py                35      2.088999  3 H  s          
    45      1.423141  4 bq s                  2      1.282367  1 H  s          
    67     -1.188905  5 bq s                 76     -1.188905  6 bq s          
    21      1.166467  2 O  py                66     -0.696146  5 bq s          
    75     -0.696146  6 bq s                 34     -0.496204  3 H  s          

 Vector   17  Occ=0.000000D+00  E= 1.953055D-01  Symmetry=a'
              MO Center= -2.3D-01,  4.0D-01, -9.3D-15, r^2= 1.1D+01
   Bfn.  Coefficient  Atom+Function         Bfn.  Coefficient  Atom+Function  
  ----- ------------  ---------------      ----- ------------  ---------------
    35      5.324198  3 H  s                  3     -3.368416  1 H  s          
     2     -3.344135  1 H  s                 20      2.518568  2 O  px         
    34      1.580850  3 H  s                 21     -1.282615  2 O  py         
    53      1.000281  4 bq py                67     -0.989638  5 bq s          
    76     -0.989638  6 bq s                 52     -0.818208  4 bq px         

 Vector   18  Occ=0.000000D+00  E= 2.387989D-01  Symmetry=a'
              MO Center= -4.1D-02,  1.0D+00, -1.5D-15, r^2= 9.3D+00
   Bfn.  Coefficient  Atom+Function         Bfn.  Coefficient  Atom+Function  
  ----- ------------  ---------------      ----- ------------  ---------------
    13      7.320608  2 O  s                 34     -2.860905  3 H  s          
    45     -2.871528  4 bq s                 21      2.189214  2 O  py         
    53      2.128685  4 bq py                 2     -2.116904  1 H  s          
    35     -1.660640  3 H  s                 40      1.178941  3 H  py         
    20      1.129181  2 O  px                 3      0.739459  1 H  s          

 Vector   19  Occ=0.000000D+00  E= 2.688106D-01  Symmetry=a"
              MO Center=  5.5D-01,  1.3D-01,  1.4D-16, r^2= 5.1D+00
   Bfn.  Coefficient  Atom+Function         Bfn.  Coefficient  Atom+Function  
  ----- ------------  ---------------      ----- ------------  ---------------
     9      1.482163  1 H  pz                22     -0.834973  2 O  pz         
    54      0.696338  4 bq pz                66      0.550498  5 bq s          
    75     -0.550498  6 bq s                 41     -0.373629  3 H  pz         
    19     -0.230384  2 O  pz                73     -0.165000  5 bq pz         
    82     -0.165000  6 bq pz                67     -0.163493  5 bq s          

 Vector   20  Occ=0.000000D+00  E= 2.722534D-01  Symmetry=a'
              MO Center=  3.4D-01,  9.7D-01, -3.8D-14, r^2= 6.9D+00
   Bfn.  Coefficient  Atom+Function         Bfn.  Coefficient  Atom+Function  
  ----- ------------  ---------------      ----- ------------  ---------------
    45      3.517973  4 bq s                 34     -1.677926  3 H  s          
    66     -1.329064  5 bq s                 75     -1.329064  6 bq s          
     8      1.190071  1 H  py                52     -1.112266  4 bq px         
    21     -0.728588  2 O  py                35     -0.671552  3 H  s          
    39      0.477141  3 H  px                13      0.470176  2 O  s          

 Vector   21  Occ=0.000000D+00  E= 3.113278D-01  Symmetry=a'
              MO Center=  5.2D-02,  1.3D+00, -8.4D-15, r^2= 7.6D+00
   Bfn.  Coefficient  Atom+Function         Bfn.  Coefficient  Atom+Function  
  ----- ------------  ---------------      ----- ------------  ---------------
    45     -4.311194  4 bq s                 35      3.991480  3 H  s          
    34      3.682430  3 H  s                 13     -3.359099  2 O  s          
    53      2.251523  4 bq py                 3     -1.300088  1 H  s          
     2      1.090663  1 H  s                 66      0.962932  5 bq s          
    75      0.962932  6 bq s                 40      0.786008  3 H  py         

 Vector   22  Occ=0.000000D+00  E= 3.396161D-01  Symmetry=a"
              MO Center=  1.6D-01,  1.7D+00,  3.5D-15, r^2= 6.6D+00
   Bfn.  Coefficient  Atom+Function         Bfn.  Coefficient  Atom+Function  
  ----- ------------  ---------------      ----- ------------  ---------------
    41      1.474681  3 H  pz                54     -1.368391  4 bq pz         
    67     -1.327092  5 bq s                 76      1.327092  6 bq s          
    22     -0.874618  2 O  pz                66     -0.682996  5 bq s          
    75      0.682996  6 bq s                 72      0.483122  5 bq py         
    81     -0.483122  6 bq py                19     -0.458999  2 O  pz         

 Vector   23  Occ=0.000000D+00  E= 3.549040D-01  Symmetry=a"
              MO Center=  3.3D-02,  2.7D+00,  3.7D-14, r^2= 5.9D+00
   Bfn.  Coefficient  Atom+Function         Bfn.  Coefficient  Atom+Function  
  ----- ------------  ---------------      ----- ------------  ---------------
    54      1.689815  4 bq pz                66      1.657843  5 bq s          
    75     -1.657843  6 bq s                  9     -0.473528  1 H  pz         
    73     -0.471282  5 bq pz                82     -0.471282  6 bq pz         
    71     -0.337397  5 bq px                80      0.337397  6 bq px         
    41     -0.211588  3 H  pz                19      0.171683  2 O  pz         

 Vector   24  Occ=0.000000D+00  E= 3.698195D-01  Symmetry=a'
              MO Center=  5.5D-02,  2.8D+00,  7.4D-16, r^2= 5.4D+00
   Bfn.  Coefficient  Atom+Function         Bfn.  Coefficient  Atom+Function  
  ----- ------------  ---------------      ----- ------------  ---------------
    45      5.810742  4 bq s                 66     -3.103555  5 bq s          
    75     -3.103555  6 bq s                 34     -1.521459  3 H  s          
     2      1.429993  1 H  s                 35      0.810705  3 H  s          
    13     -0.661139  2 O  s                 71     -0.635668  5 bq px         
    80     -0.635668  6 bq px                39     -0.600554  3 H  px         

 Vector   25  Occ=0.000000D+00  E= 4.041775D-01  Symmetry=a'
              MO Center=  1.1D-01,  2.0D+00,  3.2D-15, r^2= 7.0D+00
   Bfn.  Coefficient  Atom+Function         Bfn.  Coefficient  Atom+Function  
  ----- ------------  ---------------      ----- ------------  ---------------
    45      6.490852  4 bq s                 66     -3.145082  5 bq s          
    75     -3.145082  6 bq s                 52     -2.268957  4 bq px         
    40     -1.748714  3 H  py                34      1.433470  3 H  s          
    39      1.383794  3 H  px                 8     -1.372578  1 H  py         
     2     -1.352197  1 H  s                 13     -1.308279  2 O  s          

 Vector   26  Occ=0.000000D+00  E= 4.518871D-01  Symmetry=a'
              MO Center=  2.2D-02,  2.6D+00, -1.1D-13, r^2= 6.9D+00
   Bfn.  Coefficient  Atom+Function         Bfn.  Coefficient  Atom+Function  
  ----- ------------  ---------------      ----- ------------  ---------------
    45      3.585261  4 bq s                 34      2.459041  3 H  s          
    66     -1.724431  5 bq s                 75     -1.724431  6 bq s          
    53      1.656953  4 bq py                35      1.642898  3 H  s          
    21     -1.270038  2 O  py                13     -1.058283  2 O  s          
     2     -1.004459  1 H  s                 73     -0.920882  5 bq pz         

 Vector   27  Occ=0.000000D+00  E= 4.707340D-01  Symmetry=a'
              MO Center=  5.6D-01,  8.3D-01,  7.7D-16, r^2= 8.6D+00
   Bfn.  Coefficient  Atom+Function         Bfn.  Coefficient  Atom+Function  
  ----- ------------  ---------------      ----- ------------  ---------------
     2      5.430655  1 H  s                  7     -2.444046  1 H  px         
    13     -2.302100  2 O  s                 34     -2.051666  3 H  s          
    21      1.759685  2 O  py                 3      1.637292  1 H  s          
    40      1.434342  3 H  py                20     -1.416840  2 O  px         
    45     -1.328130  4 bq s                 35     -1.204554  3 H  s          

 Vector   28  Occ=0.000000D+00  E= 4.794258D-01  Symmetry=a"
              MO Center=  5.9D-02,  2.8D+00,  1.0D-13, r^2= 5.7D+00
   Bfn.  Coefficient  Atom+Function         Bfn.  Coefficient  Atom+Function  
  ----- ------------  ---------------      ----- ------------  ---------------
    66      3.394493  5 bq s                 75     -3.394493  6 bq s          
    54      2.676473  4 bq pz                67      1.309950  5 bq s          
    76     -1.309950  6 bq s                 71      1.286214  5 bq px         
    80     -1.286214  6 bq px                41     -0.892103  3 H  pz         
    73      0.606139  5 bq pz                82      0.606139  6 bq pz         

 Vector   29  Occ=0.000000D+00  E= 4.965092D-01  Symmetry=a'
              MO Center=  5.4D-01,  1.8D-01, -1.6D-17, r^2= 6.2D+00
   Bfn.  Coefficient  Atom+Function         Bfn.  Coefficient  Atom+Function  
  ----- ------------  ---------------      ----- ------------  ---------------
     2      3.745235  1 H  s                 13     -3.558986  2 O  s          
     8      2.076171  1 H  py                 7     -1.881617  1 H  px         
    45      1.582172  4 bq s                 12     -1.539165  2 O  s          
    39     -1.187964  3 H  px                21     -1.089687  2 O  py         
    52     -0.911753  4 bq px                34     -0.902898  3 H  s          

 Vector   30  Occ=0.000000D+00  E= 5.252646D-01  Symmetry=a"
              MO Center= -5.7D-02,  2.7D+00, -1.7D-15, r^2= 5.6D+00
   Bfn.  Coefficient  Atom+Function         Bfn.  Coefficient  Atom+Function  
  ----- ------------  ---------------      ----- ------------  ---------------
    54      1.743400  4 bq pz                66      1.625365  5 bq s          
    75     -1.625365  6 bq s                 72     -1.349906  5 bq py         
    81      1.349906  6 bq py                67      0.999099  5 bq s          
    76     -0.999099  6 bq s                 41      0.842085  3 H  pz         
    71      0.778773  5 bq px                80     -0.778773  6 bq px         

 Vector   31  Occ=0.000000D+00  E= 5.438240D-01  Symmetry=a'
              MO Center= -1.8D-01,  2.3D+00,  2.4D-16, r^2= 5.7D+00
   Bfn.  Coefficient  Atom+Function         Bfn.  Coefficient  Atom+Function  
  ----- ------------  ---------------      ----- ------------  ---------------
    53      2.423837  4 bq py                13      2.365410  2 O  s          
    45     -2.266865  4 bq s                 39      1.747995  3 H  px         
    21      1.695459  2 O  py                72     -1.365078  5 bq py         
    81     -1.365078  6 bq py                34     -0.894106  3 H  s          
    66      0.830938  5 bq s                 75      0.830938  6 bq s          

 Vector   32  Occ=0.000000D+00  E= 5.759063D-01  Symmetry=a'
              MO Center=  7.9D-02,  3.3D-01, -2.9D-14, r^2= 5.8D+00
   Bfn.  Coefficient  Atom+Function         Bfn.  Coefficient  Atom+Function  
  ----- ------------  ---------------      ----- ------------  ---------------
    34     13.412783  3 H  s                  2    -10.983451  1 H  s          
    40     -6.033846  3 H  py                 8     -3.362912  1 H  py         
     7      2.831100  1 H  px                13     -2.432148  2 O  s          
    35      2.366745  3 H  s                 21     -2.054085  2 O  py         
    45     -1.627432  4 bq s                  3     -1.398935  1 H  s          

 Vector   33  Occ=0.000000D+00  E= 6.003795D-01  Symmetry=a"
              MO Center= -2.3D-01,  2.9D+00,  4.7D-14, r^2= 5.1D+00
   Bfn.  Coefficient  Atom+Function         Bfn.  Coefficient  Atom+Function  
  ----- ------------  ---------------      ----- ------------  ---------------
    66      6.359560  5 bq s                 75     -6.359560  6 bq s          
    73      3.834967  5 bq pz                82      3.834967  6 bq pz         
    41      1.011526  3 H  pz                51      0.818228  4 bq pz         
    72     -0.639037  5 bq py                81      0.639037  6 bq py         
    67      0.332428  5 bq s                 76     -0.332428  6 bq s          

 Vector   34  Occ=0.000000D+00  E= 6.932700D-01  Symmetry=a'
              MO Center=  3.6D-01,  7.5D-01,  2.9D-15, r^2= 5.0D+00
   Bfn.  Coefficient  Atom+Function         Bfn.  Coefficient  Atom+Function  
  ----- ------------  ---------------      ----- ------------  ---------------
    13      6.191272  2 O  s                 34     -3.411949  3 H  s          
    40      3.209858  3 H  py                 2     -2.777881  1 H  s          
    12      2.131023  2 O  s                 20      1.289070  2 O  px         
    53      1.085925  4 bq py                45     -0.864365  4 bq s          
    21      0.810146  2 O  py                39      0.664345  3 H  px         

 Vector   35  Occ=0.000000D+00  E= 7.641227D-01  Symmetry=a'
              MO Center= -3.0D-02,  6.7D-01, -1.2D-14, r^2= 4.2D+00
   Bfn.  Coefficient  Atom+Function         Bfn.  Coefficient  Atom+Function  
  ----- ------------  ---------------      ----- ------------  ---------------
     2      5.247653  1 H  s                 40      3.081974  3 H  py         
    13     -2.959927  2 O  s                 20     -1.271388  2 O  px         
     7     -0.956062  1 H  px                 8      0.901406  1 H  py         
    44      0.877347  4 bq s                 30      0.709134  2 O  d  0       
    66     -0.667257  5 bq s                 75     -0.667257  6 bq s          

 Vector   36  Occ=0.000000D+00  E= 8.651168D-01  Symmetry=a"
              MO Center= -4.0D-01, -2.0D-01, -7.1D-16, r^2= 2.2D+00
   Bfn.  Coefficient  Atom+Function         Bfn.  Coefficient  Atom+Function  
  ----- ------------  ---------------      ----- ------------  ---------------
    31     -0.969128  2 O  d  1              22      0.907830  2 O  pz         
    41     -0.645931  3 H  pz                 9     -0.615161  1 H  pz         
    29      0.480114  2 O  d -1              16      0.278765  2 O  pz         
    66     -0.265938  5 bq s                 75      0.265938  6 bq s          
    67      0.221052  5 bq s                 76     -0.221052  6 bq s          

 Vector   37  Occ=0.000000D+00  E= 8.776928D-01  Symmetry=a'
              MO Center=  2.9D-01,  2.1D+00, -6.0D-15, r^2= 3.3D+00
   Bfn.  Coefficient  Atom+Function         Bfn.  Coefficient  Atom+Function  
  ----- ------------  ---------------      ----- ------------  ---------------
    40      1.751581  3 H  py                44     -1.750042  4 bq s          
    49     -0.924949  4 bq px                39      0.845797  3 H  px         
    35     -0.827578  3 H  s                 12      0.673658  2 O  s          
    13      0.630653  2 O  s                 50      0.626540  4 bq py         
    71      0.551546  5 bq px                80      0.551546  6 bq px         

 Vector   38  Occ=0.000000D+00  E= 9.393903D-01  Symmetry=a"
              MO Center=  2.1D-01, -2.4D-01, -2.8D-14, r^2= 2.2D+00
   Bfn.  Coefficient  Atom+Function         Bfn.  Coefficient  Atom+Function  
  ----- ------------  ---------------      ----- ------------  ---------------
     9      1.069370  1 H  pz                41     -1.056562  3 H  pz         
    29      1.028657  2 O  d -1              31      0.650621  2 O  d  1       
    66     -0.508469  5 bq s                 75      0.508469  6 bq s          
    19     -0.299471  2 O  pz                72      0.269772  5 bq py         
    81     -0.269772  6 bq py                16      0.261427  2 O  pz         

 Vector   39  Occ=0.000000D+00  E= 9.483936D-01  Symmetry=a'
              MO Center= -2.9D-01,  2.2D-01,  2.9D-14, r^2= 3.7D+00
   Bfn.  Coefficient  Atom+Function         Bfn.  Coefficient  Atom+Function  
  ----- ------------  ---------------      ----- ------------  ---------------
     2      4.855940  1 H  s                 13     -3.958485  2 O  s          
    35      1.675529  3 H  s                 40      1.558705  3 H  py         
     7     -1.530543  1 H  px                45      1.400333  4 bq s          
    66     -1.299670  5 bq s                 75     -1.299670  6 bq s          
    39     -1.163391  3 H  px                44      0.904175  4 bq s          

 Vector   40  Occ=0.000000D+00  E= 1.024572D+00  Symmetry=a'
              MO Center=  1.7D-01,  1.3D+00, -1.9D-14, r^2= 4.0D+00
   Bfn.  Coefficient  Atom+Function         Bfn.  Coefficient  Atom+Function  
  ----- ------------  ---------------      ----- ------------  ---------------
    45      4.689596  4 bq s                 34     -3.780666  3 H  s          
    53     -1.624177  4 bq py                66     -1.576007  5 bq s          
    75     -1.576007  6 bq s                 35     -1.458988  3 H  s          
    13      1.287570  2 O  s                 50     -1.044753  4 bq py         
    49     -0.932905  4 bq px                12      0.846915  2 O  s          

 Vector   41  Occ=0.000000D+00  E= 1.084727D+00  Symmetry=a'
              MO Center=  1.2D-01,  2.4D+00, -7.8D-14, r^2= 4.0D+00
   Bfn.  Coefficient  Atom+Function         Bfn.  Coefficient  Atom+Function  
  ----- ------------  ---------------      ----- ------------  ---------------
    45      5.752158  4 bq s                 66     -4.110759  5 bq s          
    75     -4.110759  6 bq s                 44      3.206939  4 bq s          
    13      1.622312  2 O  s                 50      1.472691  4 bq py         
    73     -1.096979  5 bq pz                82      1.096979  6 bq pz         
    49     -1.029536  4 bq px                40      0.904718  3 H  py         

 Vector   42  Occ=0.000000D+00  E= 1.103044D+00  Symmetry=a"
              MO Center=  2.8D-01,  2.4D+00,  1.0D-13, r^2= 3.1D+00
   Bfn.  Coefficient  Atom+Function         Bfn.  Coefficient  Atom+Function  
  ----- ------------  ---------------      ----- ------------  ---------------
    66      6.618356  5 bq s                 75     -6.618356  6 bq s          
    51      2.729897  4 bq pz                73      2.008831  5 bq pz         
    82      2.008831  6 bq pz                54      1.764426  4 bq pz         
    72     -1.185669  5 bq py                81      1.185669  6 bq py         
    71      1.049466  5 bq px                80     -1.049466  6 bq px         

 Vector   43  Occ=0.000000D+00  E= 1.112691D+00  Symmetry=a'
              MO Center=  7.6D-02,  8.5D-01, -1.7D-14, r^2= 4.8D+00
   Bfn.  Coefficient  Atom+Function         Bfn.  Coefficient  Atom+Function  
  ----- ------------  ---------------      ----- ------------  ---------------
    34      5.783215  3 H  s                 40     -5.026164  3 H  py         
    45      4.988428  4 bq s                  2     -4.275752  1 H  s          
    13     -3.091620  2 O  s                 66     -2.049559  5 bq s          
    75     -2.049559  6 bq s                 12     -1.659569  2 O  s          
     7      1.440016  1 H  px                44      1.238342  4 bq s          

 Vector   44  Occ=0.000000D+00  E= 1.185510D+00  Symmetry=a'
              MO Center= -2.0D-01,  5.4D-01,  5.8D-16, r^2= 3.4D+00
   Bfn.  Coefficient  Atom+Function         Bfn.  Coefficient  Atom+Function  
  ----- ------------  ---------------      ----- ------------  ---------------
    34      4.756519  3 H  s                  2     -3.565136  1 H  s          
    18     -1.598792  2 O  py                45     -1.405342  4 bq s          
     7      1.232733  1 H  px                17      0.818968  2 O  px         
     8     -0.759264  1 H  py                35      0.733914  3 H  s          
    44      0.619297  4 bq s                 28      0.597523  2 O  d -2       

 Vector   45  Occ=0.000000D+00  E= 1.197173D+00  Symmetry=a"
              MO Center=  1.5D-01,  2.1D+00,  5.3D-15, r^2= 3.6D+00
   Bfn.  Coefficient  Atom+Function         Bfn.  Coefficient  Atom+Function  
  ----- ------------  ---------------      ----- ------------  ---------------
    66      3.083928  5 bq s                 75     -3.083928  6 bq s          
    54      1.466858  4 bq pz                51      1.354732  4 bq pz         
    19      0.945825  2 O  pz                61      0.874799  4 bq d -1       
    63      0.515898  4 bq d  1              73      0.507540  5 bq pz         
    82      0.507540  6 bq pz                41     -0.502307  3 H  pz         

 Vector   46  Occ=0.000000D+00  E= 1.244474D+00  Symmetry=a"
              MO Center=  2.8D-01,  2.1D+00,  3.0D-15, r^2= 3.0D+00
   Bfn.  Coefficient  Atom+Function         Bfn.  Coefficient  Atom+Function  
  ----- ------------  ---------------      ----- ------------  ---------------
    63      1.167785  4 bq d  1              19     -0.888287  2 O  pz         
    41      0.770258  3 H  pz                71     -0.524845  5 bq px         
    80      0.524845  6 bq px                16      0.435271  2 O  pz         
    29     -0.372168  2 O  d -1              72     -0.203728  5 bq py         
    81      0.203728  6 bq py                73     -0.168482  5 bq pz         

 Vector   47  Occ=0.000000D+00  E= 1.285472D+00  Symmetry=a'
              MO Center=  2.1D-01,  2.4D+00,  1.8D-14, r^2= 2.5D+00
   Bfn.  Coefficient  Atom+Function         Bfn.  Coefficient  Atom+Function  
  ----- ------------  ---------------      ----- ------------  ---------------
     2      1.908399  1 H  s                 45      1.859407  4 bq s          
    34     -1.813036  3 H  s                 40      1.581954  3 H  py         
    66     -1.335706  5 bq s                 75     -1.335706  6 bq s          
    39     -1.195799  3 H  px                62      1.130485  4 bq d  0       
     8      0.686885  1 H  py                44      0.655758  4 bq s          

 Vector   48  Occ=0.000000D+00  E= 1.318023D+00  Symmetry=a'
              MO Center=  2.3D-01,  2.3D+00, -5.3D-14, r^2= 2.9D+00
   Bfn.  Coefficient  Atom+Function         Bfn.  Coefficient  Atom+Function  
  ----- ------------  ---------------      ----- ------------  ---------------
    64      0.963777  4 bq d  2              39     -0.863345  3 H  px         
    34      0.747828  3 H  s                 60     -0.730649  4 bq d -2       
    66     -0.716686  5 bq s                 75     -0.716686  6 bq s          
    17      0.700889  2 O  px                35      0.698618  3 H  s          
     2     -0.655452  1 H  s                 45      0.609554  4 bq s          

 Vector   49  Occ=0.000000D+00  E= 1.322181D+00  Symmetry=a"
              MO Center=  2.5D-01,  1.6D+00,  7.1D-14, r^2= 3.3D+00
   Bfn.  Coefficient  Atom+Function         Bfn.  Coefficient  Atom+Function  
  ----- ------------  ---------------      ----- ------------  ---------------
    41      1.665520  3 H  pz                19     -1.205659  2 O  pz         
    61      0.980655  4 bq d -1              66      0.864149  5 bq s          
    75     -0.864149  6 bq s                 16      0.575905  2 O  pz         
    54     -0.567844  4 bq pz                73      0.512236  5 bq pz         
    82      0.512236  6 bq pz                63     -0.496421  4 bq d  1       

 Vector   50  Occ=0.000000D+00  E= 1.359985D+00  Symmetry=a'
              MO Center=  2.0D-01,  2.4D+00, -1.7D-15, r^2= 2.9D+00
   Bfn.  Coefficient  Atom+Function         Bfn.  Coefficient  Atom+Function  
  ----- ------------  ---------------      ----- ------------  ---------------
     2      2.007944  1 H  s                 34     -1.796330  3 H  s          
    40      1.601807  3 H  py                39     -1.228497  3 H  px         
    60     -1.074600  4 bq d -2               8      1.037428  1 H  py         
    45      0.981912  4 bq s                 62     -0.772230  4 bq d  0       
    50      0.718838  4 bq py                53      0.673254  4 bq py         

 Vector   51  Occ=0.000000D+00  E= 1.573272D+00  Symmetry=a'
              MO Center= -4.2D-03,  6.7D-01,  2.0D-15, r^2= 3.4D+00
   Bfn.  Coefficient  Atom+Function         Bfn.  Coefficient  Atom+Function  
  ----- ------------  ---------------      ----- ------------  ---------------
    40      5.490361  3 H  py                 2      4.535177  1 H  s          
    34     -4.528386  3 H  s                 12      1.903597  2 O  s          
    66     -1.750105  5 bq s                 75     -1.750105  6 bq s          
    17     -1.408746  2 O  px                50      1.411248  4 bq py         
     7     -1.350529  1 H  px                 1      1.017316  1 H  s          

 Vector   52  Occ=0.000000D+00  E= 1.710165D+00  Symmetry=a"
              MO Center=  4.5D-01, -6.3D-02,  8.3D-16, r^2= 1.6D+00
   Bfn.  Coefficient  Atom+Function         Bfn.  Coefficient  Atom+Function  
  ----- ------------  ---------------      ----- ------------  ---------------
     6      1.196851  1 H  pz                31      0.558974  2 O  d  1       
    38     -0.555250  3 H  pz                29      0.543502  2 O  d -1       
    19     -0.275622  2 O  pz                66      0.223661  5 bq s          
    75     -0.223661  6 bq s                 72     -0.194374  5 bq py         
    81      0.194374  6 bq py                 9     -0.186122  1 H  pz         

 Vector   53  Occ=0.000000D+00  E= 1.735536D+00  Symmetry=a'
              MO Center=  2.7D-01,  1.0D-01, -5.9D-16, r^2= 1.9D+00
   Bfn.  Coefficient  Atom+Function         Bfn.  Coefficient  Atom+Function  
  ----- ------------  ---------------      ----- ------------  ---------------
    34      1.407613  3 H  s                 18     -1.215209  2 O  py         
    21     -1.197622  2 O  py                39     -1.107253  3 H  px         
     2     -0.915380  1 H  s                 35      0.859274  3 H  s          
    33      0.788765  3 H  s                 32      0.779426  2 O  d  2       
     3     -0.770022  1 H  s                  5     -0.744345  1 H  py         

 Vector   54  Occ=0.000000D+00  E= 1.890994D+00  Symmetry=a"
              MO Center=  1.7D-01,  7.7D-01,  2.0D-15, r^2= 2.2D+00
   Bfn.  Coefficient  Atom+Function         Bfn.  Coefficient  Atom+Function  
  ----- ------------  ---------------      ----- ------------  ---------------
    38      1.247374  3 H  pz                19     -1.074958  2 O  pz         
    66      1.021182  5 bq s                 75     -1.021182  6 bq s          
    29     -0.746350  2 O  d -1               6      0.668079  1 H  pz         
    31      0.598847  2 O  d  1              41      0.438055  3 H  pz         
    73      0.346156  5 bq pz                82      0.346156  6 bq pz         

 Vector   55  Occ=0.000000D+00  E= 1.995551D+00  Symmetry=a'
              MO Center=  1.0D-01,  1.3D+00, -4.8D-15, r^2= 4.0D+00
   Bfn.  Coefficient  Atom+Function         Bfn.  Coefficient  Atom+Function  
  ----- ------------  ---------------      ----- ------------  ---------------
     2      2.292718  1 H  s                 12     -1.763737  2 O  s          
    45     -1.688371  4 bq s                 13     -1.671472  2 O  s          
    66      1.420657  5 bq s                 75      1.420657  6 bq s          
    28      0.830571  2 O  d -2              39     -0.826826  3 H  px         
     7     -0.820240  1 H  px                 5     -0.797247  1 H  py         

 Vector   56  Occ=0.000000D+00  E= 2.035331D+00  Symmetry=a'
              MO Center= -4.7D-03,  1.5D+00, -7.8D-15, r^2= 3.7D+00
   Bfn.  Coefficient  Atom+Function         Bfn.  Coefficient  Atom+Function  
  ----- ------------  ---------------      ----- ------------  ---------------
    34      3.158146  3 H  s                 45      2.836454  4 bq s          
    40     -2.625448  3 H  py                12     -2.121071  2 O  s          
    13     -2.036278  2 O  s                 66     -1.521106  5 bq s          
    75     -1.521106  6 bq s                 44      1.074146  4 bq s          
     2     -1.023479  1 H  s                 17      0.999443  2 O  px         

 Vector   57  Occ=0.000000D+00  E= 2.154095D+00  Symmetry=a'
              MO Center=  5.7D-01,  1.0D-02, -2.2D-15, r^2= 1.8D+00
   Bfn.  Coefficient  Atom+Function         Bfn.  Coefficient  Atom+Function  
  ----- ------------  ---------------      ----- ------------  ---------------
     4      1.026477  1 H  px                12     -0.922994  2 O  s          
     2      0.870614  1 H  s                 11      0.811738  2 O  s          
     7     -0.790370  1 H  px                34     -0.787958  3 H  s          
    45      0.627300  4 bq s                 17     -0.586238  2 O  px         
    14      0.544891  2 O  px                18      0.535408  2 O  py         

 Vector   58  Occ=0.000000D+00  E= 2.222464D+00  Symmetry=a"
              MO Center= -4.3D-02,  2.9D+00,  4.3D-17, r^2= 1.7D+00
   Bfn.  Coefficient  Atom+Function         Bfn.  Coefficient  Atom+Function  
  ----- ------------  ---------------      ----- ------------  ---------------
    68      0.702355  5 bq px                77     -0.702355  6 bq px         
    66      0.623779  5 bq s                 75     -0.623779  6 bq s          
    63     -0.566328  4 bq d  1              65     -0.450119  5 bq s          
    74      0.450119  6 bq s                 61     -0.426170  4 bq d -1       
    69     -0.392370  5 bq py                78      0.392370  6 bq py         

 Vector   59  Occ=0.000000D+00  E= 2.351781D+00  Symmetry=a'
              MO Center=  2.3D-01,  1.7D-01, -6.3D-16, r^2= 1.9D+00
   Bfn.  Coefficient  Atom+Function         Bfn.  Coefficient  Atom+Function  
  ----- ------------  ---------------      ----- ------------  ---------------
    34      6.146920  3 H  s                  2     -5.236096  1 H  s          
    18     -3.505979  2 O  py                33      2.231173  3 H  s          
     1     -1.925401  1 H  s                 32      1.643366  2 O  d  2       
    17      1.469343  2 O  px                 7      1.369260  1 H  px         
    28     -1.225899  2 O  d -2              35      1.203112  3 H  s          

 Vector   60  Occ=0.000000D+00  E= 2.477396D+00  Symmetry=a"
              MO Center= -2.9D-02,  2.7D+00, -1.0D-13, r^2= 2.0D+00
   Bfn.  Coefficient  Atom+Function         Bfn.  Coefficient  Atom+Function  
  ----- ------------  ---------------      ----- ------------  ---------------
    41      0.933383  3 H  pz                69      0.815923  5 bq py         
    78     -0.815923  6 bq py                61      0.753485  4 bq d -1       
    19     -0.686989  2 O  pz                66      0.583425  5 bq s          
    75     -0.583425  6 bq s                 68      0.520206  5 bq px         
    77     -0.520206  6 bq px                63     -0.435218  4 bq d  1       

 Vector   61  Occ=0.000000D+00  E= 2.493147D+00  Symmetry=a"
              MO Center= -1.0D-01,  3.0D+00, -1.0D-14, r^2= 1.5D+00
   Bfn.  Coefficient  Atom+Function         Bfn.  Coefficient  Atom+Function  
  ----- ------------  ---------------      ----- ------------  ---------------
    70      0.879053  5 bq pz                79      0.879053  6 bq pz         
    73     -0.735676  5 bq pz                82     -0.735676  6 bq pz         
    54      0.673557  4 bq pz                61     -0.226892  4 bq d -1       
    71      0.227923  5 bq px                80     -0.227923  6 bq px         
    68     -0.216142  5 bq px                77      0.216142  6 bq px         

 Vector   62  Occ=0.000000D+00  E= 2.501706D+00  Symmetry=a'
              MO Center= -1.1D-01,  2.8D+00,  1.0D-13, r^2= 1.8D+00
   Bfn.  Coefficient  Atom+Function         Bfn.  Coefficient  Atom+Function  
  ----- ------------  ---------------      ----- ------------  ---------------
     2      1.560852  1 H  s                 40      1.160891  3 H  py         
    13     -0.817269  2 O  s                 39     -0.794983  3 H  px         
    68     -0.752561  5 bq px                77     -0.752561  6 bq px         
    45      0.669741  4 bq s                 50      0.662208  4 bq py         
    69     -0.649535  5 bq py                78     -0.649535  6 bq py         

 Vector   63  Occ=0.000000D+00  E= 2.621692D+00  Symmetry=a'
              MO Center=  9.5D-02,  1.4D+00,  7.2D-15, r^2= 2.9D+00
   Bfn.  Coefficient  Atom+Function         Bfn.  Coefficient  Atom+Function  
  ----- ------------  ---------------      ----- ------------  ---------------
    12      3.076208  2 O  s                 13      2.691512  2 O  s          
    34     -1.771852  3 H  s                  2     -1.672914  1 H  s          
    11     -1.453387  2 O  s                 40      1.276674  3 H  py         
    17      1.138532  2 O  px                 1     -0.857881  1 H  s          
    62     -0.832185  4 bq d  0              45     -0.758091  4 bq s          

 Vector   64  Occ=0.000000D+00  E= 2.646058D+00  Symmetry=a'
              MO Center=  8.0D-02,  4.9D-01,  2.6D-15, r^2= 2.7D+00
   Bfn.  Coefficient  Atom+Function         Bfn.  Coefficient  Atom+Function  
  ----- ------------  ---------------      ----- ------------  ---------------
    12      5.377778  2 O  s                 13      4.482513  2 O  s          
    34     -3.629367  3 H  s                  2     -2.458914  1 H  s          
    17      2.109336  2 O  px                33     -1.780396  3 H  s          
     1     -1.621755  1 H  s                 11     -1.157102  2 O  s          
    18      1.150866  2 O  py                30     -0.990400  2 O  d  0       

 Vector   65  Occ=0.000000D+00  E= 2.746251D+00  Symmetry=a'
              MO Center= -6.8D-03,  2.0D+00,  5.7D-15, r^2= 2.4D+00
   Bfn.  Coefficient  Atom+Function         Bfn.  Coefficient  Atom+Function  
  ----- ------------  ---------------      ----- ------------  ---------------
    34      1.426238  3 H  s                  2     -1.030844  1 H  s          
    37      0.944904  3 H  py                45     -0.868692  4 bq s          
    40     -0.826053  3 H  py                44     -0.763707  4 bq s          
    17      0.713934  2 O  px                69     -0.700908  5 bq py         
    78     -0.700908  6 bq py                66      0.693643  5 bq s          

 Vector   66  Occ=0.000000D+00  E= 3.205499D+00  Symmetry=a"
              MO Center= -1.1D-01, -6.0D-02,  2.3D-16, r^2= 7.7D-01
   Bfn.  Coefficient  Atom+Function         Bfn.  Coefficient  Atom+Function  
  ----- ------------  ---------------      ----- ------------  ---------------
    26      1.192425  2 O  d  1              31     -0.690216  2 O  d  1       
     9     -0.426224  1 H  pz                22      0.326351  2 O  pz         
    41     -0.167157  3 H  pz                 6      0.153363  1 H  pz         
    19      0.137164  2 O  pz                24     -0.120609  2 O  d -1       
    66     -0.107453  5 bq s                 75      0.107453  6 bq s          

 Vector   67  Occ=0.000000D+00  E= 3.272366D+00  Symmetry=a"
              MO Center= -8.0D-02, -3.2D-02, -7.0D-16, r^2= 8.2D-01
   Bfn.  Coefficient  Atom+Function         Bfn.  Coefficient  Atom+Function  
  ----- ------------  ---------------      ----- ------------  ---------------
    24      1.216121  2 O  d -1              29     -0.766544  2 O  d -1       
    41      0.769184  3 H  pz                 9     -0.274044  1 H  pz         
    38     -0.218816  3 H  pz                19     -0.207204  2 O  pz         
    22     -0.166679  2 O  pz                54     -0.147836  4 bq pz         
    26      0.122359  2 O  d  1              67     -0.118403  5 bq s          

 Vector   68  Occ=0.000000D+00  E= 3.279425D+00  Symmetry=a'
              MO Center= -1.1D-01, -2.9D-04,  7.8D-16, r^2= 9.4D-01
   Bfn.  Coefficient  Atom+Function         Bfn.  Coefficient  Atom+Function  
  ----- ------------  ---------------      ----- ------------  ---------------
     2      2.004412  1 H  s                 13     -1.085981  2 O  s          
    40      1.006948  3 H  py                23     -0.980689  2 O  d -2       
    12     -0.896509  2 O  s                 27     -0.668970  2 O  d  2       
     7     -0.657325  1 H  px                39     -0.640196  3 H  px         
    28      0.545994  2 O  d -2              17     -0.508406  2 O  px         

 Vector   69  Occ=0.000000D+00  E= 3.412173D+00  Symmetry=a'
              MO Center=  1.9D-01,  2.4D+00, -3.2D-16, r^2= 1.7D+00
   Bfn.  Coefficient  Atom+Function         Bfn.  Coefficient  Atom+Function  
  ----- ------------  ---------------      ----- ------------  ---------------
    43      1.509804  4 bq s                 44     -1.227370  4 bq s          
    34      1.187787  3 H  s                 12     -0.889189  2 O  s          
    42      0.862489  4 bq s                 33      0.776539  3 H  s          
    18     -0.709870  2 O  py                50      0.653763  4 bq py         
    65     -0.626193  5 bq s                 74     -0.626193  6 bq s          

 Vector   70  Occ=0.000000D+00  E= 3.618348D+00  Symmetry=a'
              MO Center= -1.8D-03,  8.2D-02, -5.4D-16, r^2= 1.3D+00
   Bfn.  Coefficient  Atom+Function         Bfn.  Coefficient  Atom+Function  
  ----- ------------  ---------------      ----- ------------  ---------------
    12      4.366981  2 O  s                 34     -2.533341  3 H  s          
    13      2.166791  2 O  s                 40      2.058884  3 H  py         
    17      1.755573  2 O  px                 1     -1.736862  1 H  s          
    25     -1.049270  2 O  d  0               4      1.024688  1 H  px         
    33     -0.876528  3 H  s                 11     -0.639428  2 O  s          

 Vector   71  Occ=0.000000D+00  E= 3.863114D+00  Symmetry=a"
              MO Center=  8.6D-02,  2.8D+00, -2.1D-14, r^2= 1.3D+00
   Bfn.  Coefficient  Atom+Function         Bfn.  Coefficient  Atom+Function  
  ----- ------------  ---------------      ----- ------------  ---------------
    66      4.020166  5 bq s                 75     -4.020166  6 bq s          
    51      3.752566  4 bq pz                65      2.313441  5 bq s          
    74     -2.313441  6 bq s                 63      1.336120  4 bq d  1       
    61      1.274929  4 bq d -1              73      1.256796  5 bq pz         
    82      1.256796  6 bq pz                54      1.037618  4 bq pz         

 Vector   72  Occ=0.000000D+00  E= 3.986101D+00  Symmetry=a'
              MO Center= -3.2D-02,  2.6D-01, -6.3D-16, r^2= 1.6D+00
   Bfn.  Coefficient  Atom+Function         Bfn.  Coefficient  Atom+Function  
  ----- ------------  ---------------      ----- ------------  ---------------
    34      4.663745  3 H  s                  2     -2.905612  1 H  s          
    18     -2.369817  2 O  py                12     -2.321903  2 O  s          
    33      2.329425  3 H  s                 40     -2.194548  3 H  py         
    44      1.634081  4 bq s                 13     -1.461413  2 O  s          
    37     -1.192388  3 H  py                27      1.088223  2 O  d  2       

 Vector   73  Occ=0.000000D+00  E= 4.075898D+00  Symmetry=a'
              MO Center=  1.1D-01,  2.8D+00,  3.5D-14, r^2= 1.6D+00
   Bfn.  Coefficient  Atom+Function         Bfn.  Coefficient  Atom+Function  
  ----- ------------  ---------------      ----- ------------  ---------------
    44      5.594100  4 bq s                 45      4.269477  4 bq s          
    66     -3.015798  5 bq s                 75     -3.015798  6 bq s          
    49     -1.926610  4 bq px                65     -1.910470  5 bq s          
    74     -1.910470  6 bq s                 50      1.900043  4 bq py         
    43     -1.509603  4 bq s                  2      0.886526  1 H  s          

 Vector   74  Occ=0.000000D+00  E= 4.906147D+00  Symmetry=a"
              MO Center=  3.1D-01,  2.6D+00, -3.3D-12, r^2= 6.4D-01
   Bfn.  Coefficient  Atom+Function         Bfn.  Coefficient  Atom+Function  
  ----- ------------  ---------------      ----- ------------  ---------------
    56      0.890437  4 bq d -1              58     -0.816553  4 bq d  1       
    61     -0.534861  4 bq d -1              63      0.400209  4 bq d  1       
    66     -0.239202  5 bq s                 75      0.239202  6 bq s          
    41     -0.215923  3 H  pz                71     -0.200456  5 bq px         
    80      0.200456  6 bq px                72     -0.148318  5 bq py         

 Vector   75  Occ=0.000000D+00  E= 4.906343D+00  Symmetry=a'
              MO Center=  3.7D-01,  2.6D+00,  3.3D-12, r^2= 6.6D-01
   Bfn.  Coefficient  Atom+Function         Bfn.  Coefficient  Atom+Function  
  ----- ------------  ---------------      ----- ------------  ---------------
    55      0.849229  4 bq d -2              59     -0.777565  4 bq d  2       
    45     -0.493096  4 bq s                 60     -0.487816  4 bq d -2       
    64      0.418977  4 bq d  2              35      0.381067  3 H  s          
     2      0.367268  1 H  s                 39     -0.360524  3 H  px         
    57      0.344974  4 bq d  0              13     -0.273681  2 O  s          

 Vector   76  Occ=0.000000D+00  E= 4.980078D+00  Symmetry=a'
              MO Center=  2.8D-01,  2.7D+00, -6.7D-15, r^2= 6.6D-01
   Bfn.  Coefficient  Atom+Function         Bfn.  Coefficient  Atom+Function  
  ----- ------------  ---------------      ----- ------------  ---------------
    59      0.854962  4 bq d  2              57      0.709815  4 bq d  0       
    64     -0.570143  4 bq d  2              55      0.504467  4 bq d -2       
    62     -0.454983  4 bq d  0              40     -0.374257  3 H  py         
    34     -0.357591  3 H  s                 45      0.337710  4 bq s          
    72     -0.315727  5 bq py                81     -0.315727  6 bq py         

 Vector   77  Occ=0.000000D+00  E= 5.078560D+00  Symmetry=a'
              MO Center=  2.2D-01,  2.6D+00, -1.5D-14, r^2= 7.6D-01
   Bfn.  Coefficient  Atom+Function         Bfn.  Coefficient  Atom+Function  
  ----- ------------  ---------------      ----- ------------  ---------------
    44      2.298097  4 bq s                 45      1.491750  4 bq s          
    66     -1.154951  5 bq s                 75     -1.154951  6 bq s          
    49     -1.117074  4 bq px                50      0.969051  4 bq py         
    57      0.873928  4 bq d  0              65     -0.854615  5 bq s          
    74     -0.854615  6 bq s                 55     -0.637042  4 bq d -2       

 Vector   78  Occ=0.000000D+00  E= 5.313978D+00  Symmetry=a"
              MO Center=  3.8D-01,  2.6D+00,  3.1D-15, r^2= 8.2D-01
   Bfn.  Coefficient  Atom+Function         Bfn.  Coefficient  Atom+Function  
  ----- ------------  ---------------      ----- ------------  ---------------
    66      3.064290  5 bq s                 75     -3.064290  6 bq s          
[...]
    26      0.054905  2 O  d  1              51      0.048837  4 bq pz         

 Vector   43  Occ=0.000000D+00  E= 1.732077D+00  Symmetry=a'
              MO Center= -2.6D-01,  9.3D-02,  1.1D-17, r^2= 1.8D+00
   Bfn.  Coefficient  Atom+Function         Bfn.  Coefficient  Atom+Function  
  ----- ------------  ---------------      ----- ------------  ---------------
    34      1.760647  3 H  s                  2     -1.337744  1 H  s          
    21     -1.134646  2 O  py                18     -1.126482  2 O  py         
    39      1.028921  3 H  px                17     -0.939934  2 O  px         
    32      0.813454  2 O  d  2               1     -0.786860  1 H  s          
     5     -0.750406  1 H  py                35      0.746507  3 H  s          

 Vector   44  Occ=0.000000D+00  E= 1.905114D+00  Symmetry=a"
              MO Center= -1.2D-01,  5.5D-01,  4.9D-17, r^2= 1.5D+00
   Bfn.  Coefficient  Atom+Function         Bfn.  Coefficient  Atom+Function  
  ----- ------------  ---------------      ----- ------------  ---------------
    38      1.335600  3 H  pz                19     -1.191678  2 O  pz         
    29     -0.890163  2 O  d -1               6      0.666662  1 H  pz         
    41      0.556529  3 H  pz                31     -0.510881  2 O  d  1       
    61      0.356511  4 bq d -1              51     -0.147495  4 bq pz         
    54     -0.080409  4 bq pz                 9     -0.054097  1 H  pz         

 Vector   45  Occ=0.000000D+00  E= 2.017709D+00  Symmetry=a'
              MO Center= -1.8D-01,  1.2D-01,  6.3D-17, r^2= 1.9D+00
   Bfn.  Coefficient  Atom+Function         Bfn.  Coefficient  Atom+Function  
  ----- ------------  ---------------      ----- ------------  ---------------
    12      2.742942  2 O  s                 13      2.593002  2 O  s          
    34     -2.116390  3 H  s                 40      1.610609  3 H  py         
     2     -1.460622  1 H  s                 28      1.363831  2 O  d -2       
    36     -1.058041  3 H  px                 5      1.036685  1 H  py         
    39     -1.006421  3 H  px                11     -0.926809  2 O  s          

 Vector   46  Occ=0.000000D+00  E= 2.150587D+00  Symmetry=a'
              MO Center= -5.9D-01, -6.4D-02,  1.0D-16, r^2= 1.3D+00
   Bfn.  Coefficient  Atom+Function         Bfn.  Coefficient  Atom+Function  
  ----- ------------  ---------------      ----- ------------  ---------------
    34      1.566879  3 H  s                  2     -1.290685  1 H  s          
     4      1.095471  1 H  px                 7     -0.953961  1 H  px         
    17     -0.851802  2 O  px                36      0.692199  3 H  px         
    11     -0.658430  2 O  s                 14      0.609021  2 O  px         
    12      0.504959  2 O  s                 18     -0.487957  2 O  py         

 Vector   47  Occ=0.000000D+00  E= 2.340880D+00  Symmetry=a'
              MO Center= -2.1D-01,  1.8D-01,  3.0D-16, r^2= 1.8D+00
   Bfn.  Coefficient  Atom+Function         Bfn.  Coefficient  Atom+Function  
  ----- ------------  ---------------      ----- ------------  ---------------
    34      6.218747  3 H  s                  2     -5.302035  1 H  s          
    18     -3.275757  2 O  py                33      2.214982  3 H  s          
     1     -1.937461  1 H  s                 17     -1.916443  2 O  px         
    32      1.860766  2 O  d  2               7     -1.523203  1 H  px         
    40     -1.309759  3 H  py                 8     -1.002397  1 H  py         

 Vector   48  Occ=0.000000D+00  E= 2.615826D+00  Symmetry=a'
              MO Center= -2.2D-02,  6.2D-01, -5.8D-18, r^2= 1.8D+00
   Bfn.  Coefficient  Atom+Function         Bfn.  Coefficient  Atom+Function  
  ----- ------------  ---------------      ----- ------------  ---------------
    12      4.179263  2 O  s                 34     -3.630057  3 H  s          
    13      3.443041  2 O  s                 40      2.324830  3 H  py         
    11     -1.878837  2 O  s                 17     -1.165878  2 O  px         
     1     -0.993324  1 H  s                  2     -0.932510  1 H  s          
    10     -0.915515  2 O  s                 37     -0.901593  3 H  py         

 Vector   49  Occ=0.000000D+00  E= 2.651734D+00  Symmetry=a'
              MO Center= -9.7D-02,  3.1D-01,  2.1D-16, r^2= 1.7D+00
   Bfn.  Coefficient  Atom+Function         Bfn.  Coefficient  Atom+Function  
  ----- ------------  ---------------      ----- ------------  ---------------
    12      4.569470  2 O  s                 13      3.710090  2 O  s          
     2     -3.164214  1 H  s                 17     -2.052190  2 O  px         
    33     -1.967221  3 H  s                 34     -1.914248  3 H  s          
     1     -1.619335  1 H  s                 18      1.247630  2 O  py         
    37      1.135725  3 H  py                30     -1.061459  2 O  d  0       

 Vector   50  Occ=0.000000D+00  E= 3.079030D+00  Symmetry=a'
              MO Center=  1.0D-02,  2.3D+00, -1.3D-17, r^2= 1.6D+00
   Bfn.  Coefficient  Atom+Function         Bfn.  Coefficient  Atom+Function  
  ----- ------------  ---------------      ----- ------------  ---------------
    44      2.169840  4 bq s                 43     -1.750949  4 bq s          
    40     -1.227511  3 H  py                42     -0.999806  4 bq s          
     2     -0.803882  1 H  s                 18      0.597380  2 O  py         
    33     -0.593823  3 H  s                 35      0.522637  3 H  s          
    50     -0.435354  4 bq py                45     -0.400144  4 bq s          

 Vector   51  Occ=0.000000D+00  E= 3.203288D+00  Symmetry=a"
              MO Center=  1.1D-01, -7.5D-02,  2.4D-16, r^2= 7.6D-01
   Bfn.  Coefficient  Atom+Function         Bfn.  Coefficient  Atom+Function  
  ----- ------------  ---------------      ----- ------------  ---------------
    26      1.157403  2 O  d  1              31     -0.670059  2 O  d  1       
     9      0.411596  1 H  pz                22     -0.317589  2 O  pz         
    24      0.310182  2 O  d -1              41      0.178337  3 H  pz         
    29     -0.155313  2 O  d -1               6     -0.149449  1 H  pz         
    19     -0.140261  2 O  pz                38     -0.095303  3 H  pz         

 Vector   52  Occ=0.000000D+00  E= 3.258362D+00  Symmetry=a"
              MO Center=  7.7D-02, -4.2D-02, -1.9D-15, r^2= 8.0D-01
   Bfn.  Coefficient  Atom+Function         Bfn.  Coefficient  Atom+Function  
  ----- ------------  ---------------      ----- ------------  ---------------
    24      1.178009  2 O  d -1              29     -0.719891  2 O  d -1       
    41      0.648367  3 H  pz                26     -0.314110  2 O  d  1       
     9     -0.268435  1 H  pz                38     -0.213600  3 H  pz         
    31      0.203335  2 O  d  1              19     -0.148403  2 O  pz         
    22     -0.141723  2 O  pz                 6      0.084715  1 H  pz         

 Vector   53  Occ=0.000000D+00  E= 3.261616D+00  Symmetry=a'
              MO Center=  1.1D-01, -3.5D-02,  1.9D-15, r^2= 8.4D-01
   Bfn.  Coefficient  Atom+Function         Bfn.  Coefficient  Atom+Function  
  ----- ------------  ---------------      ----- ------------  ---------------
     2      1.717539  1 H  s                 23      1.128280  2 O  d -2       
    13     -0.789529  2 O  s                 12     -0.744915  2 O  s          
    40      0.704701  3 H  py                39      0.661835  3 H  px         
    28     -0.608498  2 O  d -2               7      0.591639  1 H  px         
    34     -0.532992  3 H  s                 17      0.422608  2 O  px         

 Vector   54  Occ=0.000000D+00  E= 3.588927D+00  Symmetry=a'
              MO Center=  1.2D-02,  2.7D-02,  3.0D-17, r^2= 1.2D+00
   Bfn.  Coefficient  Atom+Function         Bfn.  Coefficient  Atom+Function  
  ----- ------------  ---------------      ----- ------------  ---------------
    12      4.369520  2 O  s                 13      2.252086  2 O  s          
    34     -2.262534  3 H  s                  1     -1.730242  1 H  s          
    17     -1.683377  2 O  px                40      1.684560  3 H  py         
    25     -1.077517  2 O  d  0               4     -1.051744  1 H  px         
    33     -0.987267  3 H  s                  2     -0.769348  1 H  s          

 Vector   55  Occ=0.000000D+00  E= 3.970459D+00  Symmetry=a'
              MO Center=  5.7D-02,  9.2D-02, -1.0D-16, r^2= 1.2D+00
   Bfn.  Coefficient  Atom+Function         Bfn.  Coefficient  Atom+Function  
  ----- ------------  ---------------      ----- ------------  ---------------
    34      4.505488  3 H  s                  2     -2.920583  1 H  s          
    33      2.372085  3 H  s                 18     -2.307844  2 O  py         
    12     -2.257000  2 O  s                 40     -2.195378  3 H  py         
    13     -1.302219  2 O  s                 37     -1.264163  3 H  py         
    27      1.244539  2 O  d  2               7     -0.987860  1 H  px         

 Vector   56  Occ=0.000000D+00  E= 4.717293D+00  Symmetry=a"
              MO Center= -4.8D-03,  2.6D+00, -7.1D-17, r^2= 5.4D-01
   Bfn.  Coefficient  Atom+Function         Bfn.  Coefficient  Atom+Function  
  ----- ------------  ---------------      ----- ------------  ---------------
    58      1.159523  4 bq d  1              63     -0.490783  4 bq d  1       

 Vector   57  Occ=0.000000D+00  E= 4.721390D+00  Symmetry=a'
              MO Center= -9.5D-03,  2.6D+00, -9.4D-18, r^2= 5.5D-01
   Bfn.  Coefficient  Atom+Function         Bfn.  Coefficient  Atom+Function  
  ----- ------------  ---------------      ----- ------------  ---------------
    57      1.006407  4 bq d  0              59     -0.573594  4 bq d  2       
     2     -0.558218  1 H  s                 34      0.445702  3 H  s          
    62     -0.430637  4 bq d  0              64      0.242042  4 bq d  2       
    40     -0.223231  3 H  py                 7     -0.154442  1 H  px         
     8     -0.125551  1 H  py                17     -0.121056  2 O  px         

 Vector   58  Occ=0.000000D+00  E= 4.809287D+00  Symmetry=a"
              MO Center= -5.5D-03,  2.7D+00, -1.2D-16, r^2= 6.1D-01
   Bfn.  Coefficient  Atom+Function         Bfn.  Coefficient  Atom+Function  
  ----- ------------  ---------------      ----- ------------  ---------------
    56      1.184141  4 bq d -1              61     -0.611796  4 bq d -1       
    41     -0.395102  3 H  pz                19      0.230213  2 O  pz         
    29      0.139063  2 O  d -1              54      0.110929  4 bq pz         
    38     -0.103964  3 H  pz                 9      0.057403  1 H  pz         
    22      0.054796  2 O  pz                48      0.044752  4 bq pz         

 Vector   59  Occ=0.000000D+00  E= 4.833274D+00  Symmetry=a'
              MO Center= -2.2D-02,  2.7D+00, -2.4D-18, r^2= 6.2D-01
   Bfn.  Coefficient  Atom+Function         Bfn.  Coefficient  Atom+Function  
  ----- ------------  ---------------      ----- ------------  ---------------
    55      1.183082  4 bq d -2               2     -0.874389  1 H  s          
    39     -0.660508  3 H  px                60     -0.643874  4 bq d -2       
    34      0.465353  3 H  s                 40     -0.312191  3 H  py         
     8     -0.292580  1 H  py                13      0.285050  2 O  s          
    17      0.240994  2 O  px                 7     -0.195849  1 H  px         

 Vector   60  Occ=0.000000D+00  E= 4.864306D+00  Symmetry=a'
              MO Center= -1.4D-03,  2.8D+00,  1.0D-16, r^2= 6.0D-01
   Bfn.  Coefficient  Atom+Function         Bfn.  Coefficient  Atom+Function  
  ----- ------------  ---------------      ----- ------------  ---------------
    59      1.024681  4 bq d  2              64     -0.587429  4 bq d  2       
    57      0.578961  4 bq d  0              34     -0.484807  3 H  s          
    45      0.484041  4 bq s                 53     -0.361233  4 bq py         
    62     -0.332549  4 bq d  0              47     -0.213171  4 bq py         
     2      0.190238  1 H  s                 13     -0.180345  2 O  s          

 Vector   61  Occ=0.000000D+00  E= 5.408082D+00  Symmetry=a"
              MO Center= -6.5D-03,  2.6D+00,  6.4D-17, r^2= 5.2D-01
   Bfn.  Coefficient  Atom+Function         Bfn.  Coefficient  Atom+Function  
  ----- ------------  ---------------      ----- ------------  ---------------
    48      1.187295  4 bq pz                51     -0.722823  4 bq pz         
    41      0.232966  3 H  pz                54      0.214719  4 bq pz         
    19     -0.133413  2 O  pz                22     -0.119049  2 O  pz         
    29     -0.116197  2 O  d -1              61      0.075028  4 bq d -1       
    38      0.066886  3 H  pz                56     -0.061465  4 bq d -1       

 Vector   62  Occ=0.000000D+00  E= 5.442941D+00  Symmetry=a'
              MO Center=  4.8D-03,  2.6D+00,  3.0D-17, r^2= 5.4D-01
   Bfn.  Coefficient  Atom+Function         Bfn.  Coefficient  Atom+Function  
  ----- ------------  ---------------      ----- ------------  ---------------
    46      1.189667  4 bq px                 2      0.824335  1 H  s          
    49     -0.763530  4 bq px                34     -0.609319  3 H  s          
    39      0.566355  3 H  px                 8      0.372788  1 H  py         
    40      0.303317  3 H  py                 7      0.222971  1 H  px         
    52      0.194619  4 bq px                13     -0.187591  2 O  s          

 Vector   63  Occ=0.000000D+00  E= 5.887921D+00  Symmetry=a'
              MO Center=  1.2D-02,  2.5D+00, -5.5D-18, r^2= 7.3D-01
   Bfn.  Coefficient  Atom+Function         Bfn.  Coefficient  Atom+Function  
  ----- ------------  ---------------      ----- ------------  ---------------
    40      2.127484  3 H  py                50      1.376200  4 bq py         
    45     -1.242313  4 bq s                 47     -1.233764  4 bq py         
     2      0.976985  1 H  s                 12      0.973817  2 O  s          
    44     -0.531385  4 bq s                 34     -0.479603  3 H  s          
    37      0.434792  3 H  py                64      0.422608  4 bq d  2       

 Vector   64  Occ=0.000000D+00  E= 3.334349D+01  Symmetry=a'
              MO Center= -5.1D-03,  2.6D+00,  1.2D-19, r^2= 4.4D-02
   Bfn.  Coefficient  Atom+Function         Bfn.  Coefficient  Atom+Function  
  ----- ------------  ---------------      ----- ------------  ---------------
    42      0.738432  4 bq s                 43     -0.591749  4 bq s          
    44      0.398472  4 bq s                 40     -0.237367  3 H  py         
    34      0.220461  3 H  s                  2     -0.187765  1 H  s          
    12     -0.116191  2 O  s                 35      0.091445  3 H  s          
    13     -0.077056  2 O  s                 45     -0.073634  4 bq s          


 center of mass
 --------------
 x =   0.08796036 y =  -0.05425121 z =   0.00000000

 moments of inertia (a.u.)
 ------------------
           2.770222869942          -0.495271277007           0.000000000000
          -0.495271277007           3.003379155721           0.000000000000
           0.000000000000           0.000000000000           5.773602025663

     Multipole analysis of the density
     ---------------------------------

     L   x y z        total         alpha         beta         nuclear
     -   - - -        -----         -----         ----         -------
     0   0 0 0     -0.000000     -5.000000     -5.000000     10.000000

     1   1 0 0     -0.648883     -0.324442     -0.324442      0.000000
     1   0 1 0      0.422247      0.211123      0.211123      0.000000
     1   0 0 1     -0.000000     -0.000000     -0.000000      0.000000

     2   2 0 0     -4.292791     -3.548590     -3.548590      2.804389
     2   1 1 0      0.466808     -0.066483     -0.066483      0.599775
     2   1 0 1     -0.000000     -0.000000     -0.000000      0.000000
     2   0 2 0     -4.134516     -3.408202     -3.408202      2.681888
     2   0 1 1     -0.000000     -0.000000     -0.000000      0.000000
     2   0 0 2     -5.803635     -2.901817     -2.901817      0.000000


 Task  times  cpu:        0.8s     wall:        0.8s


                                NWChem Input Module
                                -------------------


 Summary of allocated global arrays
-----------------------------------
  No active global arrays



                         GA Statistics for process    0
                         ------------------------------

       create   destroy   get      put      acc     scatter   gather  read&inc
calls:  407      407     1.20e+04 1902     5577        0        0     1989     
number of processes/call 1.15e+00 1.28e+00 1.09e+00 0.00e+00 0.00e+00
bytes total:             3.24e+07 4.84e+06 1.64e+07 0.00e+00 0.00e+00 1.59e+04
bytes remote:            1.32e+07 1.71e+06 5.94e+06 0.00e+00 0.00e+00 0.00e+00
Max memory consumed for GA by this process: 566392 bytes

MA_summarize_allocated_blocks: starting scan ...
heap block 'gridpts', handle 124, address 0x55ed4fc37368:
	type of elements:		double precision
	number of elements:		34430837
	address of client space:	0x55ed4fc373c0
	index for client space:		12032651
	total number of bytes:		275446792
MA_summarize_allocated_blocks: scan completed: 1 heap block, 0 stack blocks
MA usage statistics:

	allocation statistics:
					      heap	     stack
					      ----	     -----
	current number of blocks	         1	         0
	maximum number of blocks	        22	        55
	current total bytes		 275446792	         0
	maximum total bytes		 276556408	  22513528
	maximum total K-bytes		    276557	     22514
	maximum total M-bytes		       277	        23


                                     CITATION
                                     --------
                Please cite the following reference when publishing
                           results obtained with NWChem:

                 M. Valiev, E.J. Bylaska, N. Govind, K. Kowalski,
              T.P. Straatsma, H.J.J. van Dam, D. Wang, J. Nieplocha,
                        E. Apra, T.L. Windus, W.A. de Jong
                 "NWChem: a comprehensive and scalable open-source
                  solution for large scale molecular simulations"
                      Comput. Phys. Commun. 181, 1477 (2010)
                           doi:10.1016/j.cpc.2010.04.018

                                      AUTHORS
                                      -------
          E. Apra, E. J. Bylaska, W. A. de Jong, N. Govind, K. Kowalski,
       T. P. Straatsma, M. Valiev, H. J. J. van Dam, D. Wang, T. L. Windus,
        J. Hammond, J. Autschbach, K. Bhaskaran-Nair, J. Brabec, K. Lopata,
    S. A. Fischer, S. Krishnamoorthy, M. Jacquelin, W. Ma, M. Klemm, O. Villa,
      Y. Chen, V. Anisimov, F. Aquino, S. Hirata, M. T. Hackler, V. Konjkov,
            D. Mejia-Rodriguez, T. Risthaus, M. Malagoli, A. Marenich,
   A. Otero-de-la-Roza, J. Mullin, P. Nichols, R. Peverati, J. Pittner, Y. Zhao,
        P.-D. Fan, A. Fonari, M. J. Williamson, R. J. Harrison, J. R. Rehr,
      M. Dupuis, D. Silverstein, D. M. A. Smith, J. Nieplocha, V. Tipparaju,
    M. Krishnan, B. E. Van Kuiken, A. Vazquez-Mayagoitia, L. Jensen, M. Swart,
      Q. Wu, T. Van Voorhis, A. A. Auer, M. Nooijen, L. D. Crosby, E. Brown,
      G. Cisneros, G. I. Fann, H. Fruchtl, J. Garza, K. Hirao, R. A. Kendall,
      J. A. Nichols, K. Tsemekhman, K. Wolinski, J. Anchell, D. E. Bernholdt,
      P. Borowski, T. Clark, D. Clerc, H. Dachsel, M. J. O. Deegan, K. Dyall,
    D. Elwood, E. Glendening, M. Gutowski, A. C. Hess, J. Jaffe, B. G. Johnson,
     J. Ju, R. Kobayashi, R. Kutteh, Z. Lin, R. Littlefield, X. Long, B. Meng,
      T. Nakajima, S. Niu, L. Pollack, M. Rosing, K. Glaesemann, G. Sandrone,
      M. Stave, H. Taylor, G. Thomas, J. H. van Lenthe, A. T. Wong, Z. Zhang.

 Total times  cpu:        2.1s     wall:        2.1s
