 argument  1 = /home/list1234/source/nwchem-6.8.1-release/QA/tests/dft_li2freq/dft_li2freq.nw



============================== echo of input deck ==============================
echo

start li2freq

charge 0

geometry
li 0 0 0
li 0 0 2.76296
end

basis "ao basis"
* library "6-311+G*"
end
dft
xc mpw91
grid fine
convergence energy 1d-9
end
driver
 clear
 tight
end

task dft optimize
dft;grid xfine;end
task dft freq







================================================================================


                                         
                                         


              Northwest Computational Chemistry Package (NWChem) 6.8
              ------------------------------------------------------


                    Environmental Molecular Sciences Laboratory
                       Pacific Northwest National Laboratory
                                Richland, WA 99352

                              Copyright (c) 1994-2018
                       Pacific Northwest National Laboratory
                            Battelle Memorial Institute

             NWChem is an open-source computational chemistry package
                        distributed under the terms of the
                      Educational Community License (ECL) 2.0
             A copy of the license is included with this distribution
                              in the LICENSE.TXT file

                                  ACKNOWLEDGMENT
                                  --------------

            This software and its documentation were developed at the
            EMSL at Pacific Northwest National Laboratory, a multiprogram
            national laboratory, operated for the U.S. Department of Energy
            by Battelle under Contract Number DE-AC05-76RL01830. Support
            for this work was provided by the Department of Energy Office
            of Biological and Environmental Research, Office of Basic
            Energy Sciences, and the Office of Advanced Scientific Computing.


           Job information
           ---------------

    hostname        = list1234-B360M-H
    program         = /home/list1234/source/nwchem-6.8.1-release/bin/LINUX64/nwchem
    date            = Sun Jun 30 05:56:04 2019

    compiled        = Sun_Jun_30_05:21:11_2019
    source          = /home/list1234/source/nwchem-6.8.1-release
    nwchem branch   = Development
    nwchem revision = N/A
    ga revision     = 5.6.5
    use scalapack   = T
    input           = /home/list1234/source/nwchem-6.8.1-release/QA/tests/dft_li2freq/dft_li2freq.nw
    prefix          = li2freq.
    data base       = ./li2freq.db
    status          = startup
    nproc           =        4
    time left       =     -1s



           Memory information
           ------------------

    heap     =   86247164 doubles =    658.0 Mbytes
    stack    =   86247169 doubles =    658.0 Mbytes
    global   =  172494336 doubles =   1316.0 Mbytes (distinct from heap & stack)
    total    =  344988669 doubles =   2632.1 Mbytes
    verify   = yes
    hardfail = no 


           Directory information
           ---------------------

  0 permanent = .
  0 scratch   = .




                                NWChem Input Module
                                -------------------



 Scaling coordinates for geometry "geometry" by  1.889725989
 (inverse scale =  0.529177249)

 ORDER OF PRIMARY AXIS IS BEING SET TO 4
 D4H symmetry detected

          ------
          auto-z
          ------
  no constraints, skipping    0.0000000000000000     
  no constraints, skipping    0.0000000000000000     


                             Geometry "geometry" -> ""
                             -------------------------

 Output coordinates in angstroms (scale by  1.889725989 to convert to a.u.)

  No.       Tag          Charge          X              Y              Z
 ---- ---------------- ---------- -------------- -------------- --------------
    1 li                   3.0000     0.00000000     0.00000000    -1.38148000
    2 li                   3.0000     0.00000000     0.00000000     1.38148000

      Atomic Mass 
      ----------- 

      li                 7.016000


 Effective nuclear repulsion energy (a.u.)       1.7237293486

            Nuclear Dipole moment (a.u.) 
            ----------------------------
        X                 Y               Z
 ---------------- ---------------- ----------------
     0.0000000000     0.0000000000     0.0000000000

      Symmetry information
      --------------------

 Group name             D4h       
 Group number             28
 Group order              16
 No. of unique centers     1

      Symmetry unique atoms

     1



                                Z-matrix (autoz)
                                -------- 

 Units are Angstrom for bonds and degrees for angles

      Type          Name      I     J     K     L     M      Value
      ----------- --------  ----- ----- ----- ----- ----- ----------
    1 Stretch                  1     2                       2.76296


            XYZ format geometry
            -------------------
     2
 geometry
 li                    0.00000000     0.00000000    -1.38148000
 li                    0.00000000     0.00000000     1.38148000

 ==============================================================================
                                internuclear distances
 ------------------------------------------------------------------------------
       center one      |      center two      | atomic units |  angstroms
 ------------------------------------------------------------------------------
    2 li               |   1 li               |     5.22124  |     2.76296
 ------------------------------------------------------------------------------
                         number of included internuclear distances:          1
 ==============================================================================





 Summary of "ao basis" -> "" (cartesian)
 ------------------------------------------------------------------------------
       Tag                 Description            Shells   Functions and Types
 ---------------- ------------------------------  ------  ---------------------
 *                          6-311+G*                  on all atoms 



  Deleted DRIVER restart files 



                           NWChem Geometry Optimization
                           ----------------------------


  no constraints, skipping    0.0000000000000000     
 maximum gradient threshold         (gmax) =   0.000015
 rms gradient threshold             (grms) =   0.000010
 maximum cartesian step threshold   (xmax) =   0.000060
 rms cartesian step threshold       (xrms) =   0.000040
 fixed trust radius                (trust) =   0.300000
 maximum step size to saddle      (sadstp) =   0.100000
 energy precision                  (eprec) =   5.0D-06
 maximum number of steps          (nptopt) =   20
 initial hessian option           (inhess) =    0
 line search option               (linopt) =    1
 hessian update option            (modupd) =    1
 saddle point option              (modsad) =    0
 initial eigen-mode to follow     (moddir) =    0
 initial variable to follow       (vardir) =    0
 follow first negative mode     (firstneg) =    T
 apply conjugacy                    (opcg) =    F
 source of zmatrix                         =   autoz   


          -------------------
          Energy Minimization
          -------------------


 Names of Z-matrix variables 
    1         

 Variables with the same non-blank name are constrained to be equal


 Using diagonal initial Hessian 
 Scaling for Hessian diagonals: bonds = 1.00  angles = 0.25  torsions = 0.10

          --------
          Step   0
          --------


                         Geometry "geometry" -> "geometry"
                         ---------------------------------

 Output coordinates in angstroms (scale by  1.889725989 to convert to a.u.)

  No.       Tag          Charge          X              Y              Z
 ---- ---------------- ---------- -------------- -------------- --------------
    1 li                   3.0000     0.00000000     0.00000000    -1.38148000
    2 li                   3.0000     0.00000000     0.00000000     1.38148000

      Atomic Mass 
      ----------- 

      li                 7.016000


 Effective nuclear repulsion energy (a.u.)       1.7237293486

            Nuclear Dipole moment (a.u.) 
            ----------------------------
        X                 Y               Z
 ---------------- ---------------- ----------------
     0.0000000000     0.0000000000     0.0000000000

      Symmetry information
      --------------------

 Group name             D4h       
 Group number             28
 Group order              16
 No. of unique centers     1

      Symmetry unique atoms

     1


                                 NWChem DFT Module
                                 -----------------


                      Basis "ao basis" -> "ao basis" (cartesian)
                      -----
  li (Lithium)
  ------------
            Exponent  Coefficients 
       -------------- ---------------------------------------------------------
  1 S  9.00460000E+02  0.002287
  1 S  1.34433000E+02  0.017635
  1 S  3.04365000E+01  0.087343
  1 S  8.62639000E+00  0.280977
  1 S  2.48332000E+00  0.658741
  1 S  3.03179000E-01  0.118712

  2 S  4.86890000E+00  0.093329
  2 S  8.56924000E-01  0.943045
  2 S  2.43227000E-01 -0.002798

  3 P  4.86890000E+00  0.032766
  3 P  8.56924000E-01  0.159792
  3 P  2.43227000E-01  0.885667

  4 S  6.35070000E-02  1.000000

  5 P  6.35070000E-02  1.000000

  6 S  2.43683000E-02  1.000000

  7 P  2.43683000E-02  1.000000

  8 S  7.40000000E-03  1.000000

  9 P  7.40000000E-03  1.000000

 10 D  2.00000000E-01  1.000000



 Summary of "ao basis" -> "ao basis" (cartesian)
 ------------------------------------------------------------------------------
       Tag                 Description            Shells   Functions and Types
 ---------------- ------------------------------  ------  ---------------------
 li                         6-311+G*                10       23   5s4p1d




 Summary of "ao basis" -> "ao basis" (cartesian)
 ------------------------------------------------------------------------------
       Tag                 Description            Shells   Functions and Types
 ---------------- ------------------------------  ------  ---------------------
 li                         6-311+G*                10       23   5s4p1d


      Symmetry analysis of basis
      --------------------------

        a1g        11
        a1u         0
        a2g         0
        a2u        11
        b1g         1
        b1u         1
        b2g         1
        b2u         1
        eg         10
        eu         10

  Caching 1-el integrals 
  itol2e modified to match energy
  convergence criterion.
  tol_rho modified to match energy
  convergence criterion.

            General Information
            -------------------
          SCF calculation type: DFT
          Wavefunction type:  closed shell.
          No. of atoms     :     2
          No. of electrons :     6
           Alpha electrons :     3
            Beta electrons :     3
          Charge           :     0
          Spin multiplicity:     1
          Use of symmetry is: on ; symmetry adaption is: on 
          Maximum number of iterations:  30
          AO basis - number of functions:    46
                     number of shells:    20
          Convergence on energy requested:  1.00D-09
          Convergence on density requested:  1.00D-05
          Convergence on gradient requested:  5.00D-04

              XC Information
              --------------
                        mPW91  Exchange Functional  1.000          

             Grid Information
             ----------------
          Grid used for XC integration:  fine      
          Radial quadrature: Mura-Knowles        
          Angular quadrature: Lebedev. 
          Tag              B.-S. Rad. Rad. Pts. Rad. Cut. Ang. Pts.
          ---              ---------- --------- --------- ---------
          li                  1.45       70          24.0       590
          Grid pruning is: on 
          Number of quadrature shells:    70
          Spatial weights used:  Erf1

          Convergence Information
          -----------------------
          Convergence aids based upon iterative change in 
          total energy or number of iterations. 
          Levelshifting, if invoked, occurs when the 
          HOMO/LUMO gap drops below (HL_TOL):  1.00D-02
          DIIS, if invoked, will attempt to extrapolate 
          using up to (NFOCK): 10 stored Fock matrices.

                    Damping( 0%)  Levelshifting(0.5)       DIIS
                  --------------- ------------------- ---------------
          dE  on:    start            ASAP                start   
          dE off:    2 iters         30 iters            30 iters 


      Screening Tolerance Information
      -------------------------------
          Density screening/tol_rho:  1.00D-12
          AO Gaussian exp screening on grid/accAOfunc:  21
          CD Gaussian exp screening on grid/accCDfunc:  20
          XC Gaussian exp screening on grid/accXCfunc:  20
          Schwarz screening/accCoul:  1.00D-10


      Superposition of Atomic Density Guess
      -------------------------------------

 Sum of atomic energies:         -14.86401107

      Non-variational initial energy
      ------------------------------

 Total energy =     -14.802333
 1-e energy   =     -22.837773
 2-e energy   =       6.311711
 HOMO         =      -0.161183
 LUMO         =      -0.022466


      Symmetry analysis of molecular orbitals - initial
      -------------------------------------------------

  Numbering of irreducible representations: 

     1 a1g         2 a1u         3 a2g         4 a2u         5 b1g     
     6 b1u         7 b2g         8 b2u         9 eg         10 eu      

  Orbital symmetries:

     1 a1g         2 a2u         3 a1g         4 a2u         5 eu      
     6 eu          7 a1g         8 a2u         9 eg         10 eg      
    11 a1g        12 eu         13 eu      

   Time after variat. SCF:      0.1
   Time prior to 1st pass:      0.1

 Grid_pts file          = ./li2freq.gridpts.0
 Record size in doubles =  12289        No. of grid_pts per rec  =   3070
 Max. records in memory =      5        Max. recs in file   = 253312716


           Memory utilization after 1st SCF pass: 
           Heap Space remaining (MW):       51.75            51747548
          Stack Space remaining (MW):       86.25            86246796

   convergence    iter        energy       DeltaE   RMS-Dens  Diis-err    time
 ---------------- ----- ----------------- --------- --------- ---------  ------
 d= 0,ls=0.0,diis     1    -14.8532906474 -1.66D+01  1.95D-02  2.28D-02     0.1
 d= 0,ls=0.0,diis     2    -14.8557622447 -2.47D-03  1.56D-03  2.88D-04     0.1
 d= 0,ls=0.0,diis     3    -14.8557455358  1.67D-05  9.61D-04  2.54D-04     0.2
 d= 0,ls=0.0,diis     4    -14.8559673238 -2.22D-04  6.41D-05  1.98D-06     0.2
 d= 0,ls=0.0,diis     5    -14.8559680980 -7.74D-07  6.63D-06  3.48D-09     0.2
 d= 0,ls=0.0,diis     6    -14.8559681007 -2.76D-09  7.91D-08  1.22D-12     0.3
 d= 0,ls=0.0,diis     7    -14.8559681008 -4.26D-13  1.12D-08  6.56D-14     0.3


         Total DFT energy =      -14.855968100750
      One electron energy =      -22.991388349696
           Coulomb energy =        9.945353144313
    Exchange-Corr. energy =       -3.533662243962
 Nuclear repulsion energy =        1.723729348596

 Numeric. integr. density =        6.000000017158

     Total iterative time =      0.2s



                  Occupations of the irreducible representations
                  ----------------------------------------------

                     irrep           alpha         beta
                     --------     --------     --------
                     a1g               2.0          2.0
                     a1u               0.0          0.0
                     a2g               0.0          0.0
                     a2u               1.0          1.0
                     b1g               0.0          0.0
                     b1u               0.0          0.0
                     b2g               0.0          0.0
                     b2u               0.0          0.0
                     eg                0.0          0.0
                     eu                0.0          0.0


                       DFT Final Molecular Orbital Analysis
                       ------------------------------------

 Vector    1  Occ=2.000000D+00  E=-1.847557D+00  Symmetry=a1g
              MO Center=  3.2D-21, -2.6D-21,  8.8D-13, r^2= 2.0D+00
   Bfn.  Coefficient  Atom+Function         Bfn.  Coefficient  Atom+Function  
  ----- ------------  ---------------      ----- ------------  ---------------
     1      0.436602  1 Li s                 24      0.436602  2 Li s          
     2      0.296556  1 Li s                 25      0.296556  2 Li s          
     6      0.036670  1 Li s                 29      0.036670  2 Li s          

 Vector    2  Occ=2.000000D+00  E=-1.847344D+00  Symmetry=a2u
              MO Center=  5.2D-20,  3.9D-18, -8.8D-13, r^2= 2.0D+00
   Bfn.  Coefficient  Atom+Function         Bfn.  Coefficient  Atom+Function  
  ----- ------------  ---------------      ----- ------------  ---------------
     1      0.437637  1 Li s                 24     -0.437637  2 Li s          
     2      0.292405  1 Li s                 25     -0.292405  2 Li s          
    14      0.213340  1 Li s                 37     -0.213340  2 Li s          
    10     -0.129137  1 Li s                 33      0.129137  2 Li s          
     6      0.083816  1 Li s                 29     -0.083816  2 Li s          

 Vector    3  Occ=2.000000D+00  E=-9.863056D-02  Symmetry=a1g
              MO Center=  1.3D-32,  2.9D-31, -1.8D-16, r^2= 5.7D+00
   Bfn.  Coefficient  Atom+Function         Bfn.  Coefficient  Atom+Function  
  ----- ------------  ---------------      ----- ------------  ---------------
     6      0.326910  1 Li s                 29      0.326910  2 Li s          
    10      0.209653  1 Li s                 33      0.209653  2 Li s          
     2     -0.104484  1 Li s                 25     -0.104484  2 Li s          
     1     -0.087182  1 Li s                 24     -0.087182  2 Li s          
     9      0.055463  1 Li pz                32     -0.055463  2 Li pz         

 Vector    4  Occ=0.000000D+00  E=-5.232953D-02  Symmetry=a2u
              MO Center= -3.0D-34, -1.9D-32,  1.4D-16, r^2= 1.3D+01
   Bfn.  Coefficient  Atom+Function         Bfn.  Coefficient  Atom+Function  
  ----- ------------  ---------------      ----- ------------  ---------------
    14      1.083355  1 Li s                 37     -1.083355  2 Li s          
     6      0.298847  1 Li s                 29     -0.298847  2 Li s          
    13     -0.216274  1 Li pz                36     -0.216274  2 Li pz         
    17      0.196761  1 Li pz                40      0.196761  2 Li pz         
    10      0.161402  1 Li s                 33     -0.161402  2 Li s          

 Vector    5  Occ=0.000000D+00  E=-3.152820D-02  Symmetry=eu
              MO Center=  2.7D-15, -3.7D-15, -7.1D-15, r^2= 1.3D+01
   Bfn.  Coefficient  Atom+Function         Bfn.  Coefficient  Atom+Function  
  ----- ------------  ---------------      ----- ------------  ---------------
     8      0.193950  1 Li py                31      0.193950  2 Li py         
    12      0.180148  1 Li py                35      0.180148  2 Li py         
     7     -0.145446  1 Li px                30     -0.145446  2 Li px         
    11     -0.135096  1 Li px                34     -0.135096  2 Li px         
     4      0.093666  1 Li py                27      0.093666  2 Li py         

 Vector    6  Occ=0.000000D+00  E=-3.152820D-02  Symmetry=eu
              MO Center=  5.9D-15,  4.4D-15, -3.0D-15, r^2= 1.3D+01
   Bfn.  Coefficient  Atom+Function         Bfn.  Coefficient  Atom+Function  
  ----- ------------  ---------------      ----- ------------  ---------------
     7      0.193950  1 Li px                30      0.193950  2 Li px         
    11      0.180148  1 Li px                34      0.180148  2 Li px         
     8      0.145446  1 Li py                31      0.145446  2 Li py         
    12      0.135096  1 Li py                35      0.135096  2 Li py         
     3      0.093666  1 Li px                26      0.093666  2 Li px         

 Vector    7  Occ=0.000000D+00  E=-2.293632D-02  Symmetry=a1g
              MO Center= -8.3D-15, -3.1D-16, -4.7D-14, r^2= 2.0D+01
   Bfn.  Coefficient  Atom+Function         Bfn.  Coefficient  Atom+Function  
  ----- ------------  ---------------      ----- ------------  ---------------
    13      0.305504  1 Li pz                36     -0.305504  2 Li pz         
    14     -0.273192  1 Li s                 37     -0.273192  2 Li s          
     9      0.247933  1 Li pz                32     -0.247933  2 Li pz         
    17      0.182748  1 Li pz                40     -0.182748  2 Li pz         
     5      0.142157  1 Li pz                28     -0.142157  2 Li pz         

 Vector    8  Occ=0.000000D+00  E= 2.732044D-03  Symmetry=a1g
              MO Center=  4.5D-14,  9.3D-14, -1.2D-13, r^2= 3.9D+01
   Bfn.  Coefficient  Atom+Function         Bfn.  Coefficient  Atom+Function  
  ----- ------------  ---------------      ----- ------------  ---------------
    10      0.803191  1 Li s                 33      0.803191  2 Li s          
    14     -0.778014  1 Li s                 37     -0.778014  2 Li s          
    17     -0.396665  1 Li pz                40      0.396665  2 Li pz         
    13     -0.330445  1 Li pz                36      0.330445  2 Li pz         
     9     -0.112582  1 Li pz                32      0.112582  2 Li pz         

 Vector    9  Occ=0.000000D+00  E= 3.491668D-03  Symmetry=eg
              MO Center=  3.2D-19, -3.9D-18,  1.1D-14, r^2= 4.2D+01
   Bfn.  Coefficient  Atom+Function         Bfn.  Coefficient  Atom+Function  
  ----- ------------  ---------------      ----- ------------  ---------------
    16      1.504947  1 Li py                39     -1.504947  2 Li py         
    12      0.468543  1 Li py                35     -0.468543  2 Li py         
     8      0.128748  1 Li py                31     -0.128748  2 Li py         
    15     -0.122833  1 Li px                38      0.122833  2 Li px         
     4      0.062789  1 Li py                27     -0.062789  2 Li py         

 Vector   10  Occ=0.000000D+00  E= 3.491668D-03  Symmetry=eg
              MO Center= -1.6D-14, -1.3D-15,  1.2D-13, r^2= 4.2D+01
   Bfn.  Coefficient  Atom+Function         Bfn.  Coefficient  Atom+Function  
  ----- ------------  ---------------      ----- ------------  ---------------
    15      1.504947  1 Li px                38     -1.504947  2 Li px         
    11      0.468543  1 Li px                34     -0.468543  2 Li px         
     7      0.128748  1 Li px                30     -0.128748  2 Li px         
    16      0.122833  1 Li py                39     -0.122833  2 Li py         
     3      0.062789  1 Li px                26     -0.062789  2 Li px         

 Vector   11  Occ=0.000000D+00  E= 5.374290D-03  Symmetry=a2u
              MO Center=  1.2D-14,  4.2D-15, -1.1D-12, r^2= 6.7D+01
   Bfn.  Coefficient  Atom+Function         Bfn.  Coefficient  Atom+Function  
  ----- ------------  ---------------      ----- ------------  ---------------
    14     10.714987  1 Li s                 37    -10.714987  2 Li s          
    17      3.113885  1 Li pz                40      3.113885  2 Li pz         
    10      0.695917  1 Li s                 33     -0.695917  2 Li s          
     6      0.165637  1 Li s                 29     -0.165637  2 Li s          
    13      0.107979  1 Li pz                36      0.107979  2 Li pz         

 Vector   12  Occ=0.000000D+00  E= 9.083277D-03  Symmetry=eu
              MO Center=  1.2D-14, -7.4D-15, -9.7D-14, r^2= 5.4D+01
   Bfn.  Coefficient  Atom+Function         Bfn.  Coefficient  Atom+Function  
  ----- ------------  ---------------      ----- ------------  ---------------
    15      0.519501  1 Li px                38      0.519501  2 Li px         
    16     -0.329476  1 Li py                39     -0.329476  2 Li py         
    11     -0.238795  1 Li px                34     -0.238795  2 Li px         
    12      0.151448  1 Li py                35      0.151448  2 Li py         
     7     -0.128150  1 Li px                30     -0.128150  2 Li px         

 Vector   13  Occ=0.000000D+00  E= 9.083277D-03  Symmetry=eu
              MO Center= -5.7D-14, -9.0D-14,  9.5D-17, r^2= 5.4D+01
   Bfn.  Coefficient  Atom+Function         Bfn.  Coefficient  Atom+Function  
  ----- ------------  ---------------      ----- ------------  ---------------
    16      0.519501  1 Li py                39      0.519501  2 Li py         
    15      0.329476  1 Li px                38      0.329476  2 Li px         
    12     -0.238795  1 Li py                35     -0.238795  2 Li py         
    11     -0.151448  1 Li px                34     -0.151448  2 Li px         
     8     -0.128150  1 Li py                31     -0.128150  2 Li py         

 Vector   14  Occ=0.000000D+00  E= 1.364682D-02  Symmetry=a1g
              MO Center=  1.9D-15,  4.4D-15, -8.0D-13, r^2= 7.0D+01
   Bfn.  Coefficient  Atom+Function         Bfn.  Coefficient  Atom+Function  
  ----- ------------  ---------------      ----- ------------  ---------------
    17      1.736431  1 Li pz                40     -1.736431  2 Li pz         
    14     -0.312187  1 Li s                 37     -0.312187  2 Li s          
     9     -0.163807  1 Li pz                32      0.163807  2 Li pz         
    13     -0.143003  1 Li pz                36      0.143003  2 Li pz         
    10     -0.090891  1 Li s                 33     -0.090891  2 Li s          

 Vector   15  Occ=0.000000D+00  E= 2.544260D-02  Symmetry=a2u
              MO Center=  1.6D-14, -2.6D-14,  1.8D-12, r^2= 8.0D+01
   Bfn.  Coefficient  Atom+Function         Bfn.  Coefficient  Atom+Function  
  ----- ------------  ---------------      ----- ------------  ---------------
    14     63.776418  1 Li s                 37    -63.776418  2 Li s          
    17     14.546630  1 Li pz                40     14.546630  2 Li pz         
    13      0.841736  1 Li pz                36      0.841736  2 Li pz         
    10      0.377110  1 Li s                 33     -0.377110  2 Li s          
     6     -0.061659  1 Li s                 29      0.061659  2 Li s          

 Vector   16  Occ=0.000000D+00  E= 3.063016D-02  Symmetry=eg
              MO Center= -1.3D-14,  4.0D-15, -1.5D-14, r^2= 5.0D+01
   Bfn.  Coefficient  Atom+Function         Bfn.  Coefficient  Atom+Function  
  ----- ------------  ---------------      ----- ------------  ---------------
    15      2.096614  1 Li px                38     -2.096614  2 Li px         
    11     -1.041645  1 Li px                34      1.041645  2 Li px         
    16     -0.636384  1 Li py                39      0.636384  2 Li py         
    12      0.316170  1 Li py                35     -0.316170  2 Li py         
     7     -0.184044  1 Li px                30      0.184044  2 Li px         

 Vector   17  Occ=0.000000D+00  E= 3.063016D-02  Symmetry=eg
              MO Center=  5.2D-15,  1.7D-14, -8.2D-15, r^2= 5.0D+01
   Bfn.  Coefficient  Atom+Function         Bfn.  Coefficient  Atom+Function  
  ----- ------------  ---------------      ----- ------------  ---------------
    16      2.096614  1 Li py                39     -2.096614  2 Li py         
    12     -1.041645  1 Li py                35      1.041645  2 Li py         
    15      0.636384  1 Li px                38     -0.636384  2 Li px         
    11     -0.316170  1 Li px                34      0.316170  2 Li px         
     8     -0.184044  1 Li py                31      0.184044  2 Li py         

 Vector   18  Occ=0.000000D+00  E= 5.525491D-02  Symmetry=a2u
              MO Center= -3.4D-15,  1.2D-15, -3.4D-15, r^2= 4.1D+01
   Bfn.  Coefficient  Atom+Function         Bfn.  Coefficient  Atom+Function  
  ----- ------------  ---------------      ----- ------------  ---------------
    10      9.034767  1 Li s                 33     -9.034767  2 Li s          
    14     -7.877829  1 Li s                 37      7.877829  2 Li s          
    13      4.840749  1 Li pz                36      4.840749  2 Li pz         
    17     -2.356085  1 Li pz                40     -2.356085  2 Li pz         
     9     -0.220944  1 Li pz                32     -0.220944  2 Li pz         

 Vector   19  Occ=0.000000D+00  E= 7.559760D-02  Symmetry=a1g
              MO Center= -8.3D-16,  1.8D-16,  3.1D-13, r^2= 3.4D+01
   Bfn.  Coefficient  Atom+Function         Bfn.  Coefficient  Atom+Function  
  ----- ------------  ---------------      ----- ------------  ---------------
    13      1.567317  1 Li pz                36     -1.567317  2 Li pz         
    17     -1.241562  1 Li pz                40      1.241562  2 Li pz         
     9     -0.641020  1 Li pz                32      0.641020  2 Li pz         
     6     -0.475373  1 Li s                 29     -0.475373  2 Li s          
    10      0.247650  1 Li s                 33      0.247650  2 Li s          

 Vector   20  Occ=0.000000D+00  E= 8.504331D-02  Symmetry=eu
              MO Center= -5.2D-16, -1.8D-15,  4.1D-16, r^2= 2.8D+01
   Bfn.  Coefficient  Atom+Function         Bfn.  Coefficient  Atom+Function  
  ----- ------------  ---------------      ----- ------------  ---------------
    12      1.077115  1 Li py                35      1.077115  2 Li py         
     8     -0.812309  1 Li py                31     -0.812309  2 Li py         
    16     -0.424412  1 Li py                39     -0.424412  2 Li py         
    11      0.393486  1 Li px                34      0.393486  2 Li px         
     7     -0.296749  1 Li px                30     -0.296749  2 Li px         

 Vector   21  Occ=0.000000D+00  E= 8.504331D-02  Symmetry=eu
              MO Center= -1.4D-14,  4.8D-15, -1.3D-14, r^2= 2.8D+01
   Bfn.  Coefficient  Atom+Function         Bfn.  Coefficient  Atom+Function  
  ----- ------------  ---------------      ----- ------------  ---------------
    11      1.077115  1 Li px                34      1.077115  2 Li px         
     7     -0.812309  1 Li px                30     -0.812309  2 Li px         
    15     -0.424412  1 Li px                38     -0.424412  2 Li px         
    12     -0.393486  1 Li py                35     -0.393486  2 Li py         
     8      0.296749  1 Li py                31      0.296749  2 Li py         

 Vector   22  Occ=0.000000D+00  E= 8.839402D-02  Symmetry=a1g
              MO Center=  1.4D-14, -3.7D-15, -9.9D-15, r^2= 2.5D+01
   Bfn.  Coefficient  Atom+Function         Bfn.  Coefficient  Atom+Function  
  ----- ------------  ---------------      ----- ------------  ---------------
    10      2.138703  1 Li s                 33      2.138703  2 Li s          
     6     -1.877029  1 Li s                 29     -1.877029  2 Li s          
    14     -0.697095  1 Li s                 37     -0.697095  2 Li s          
     9      0.371882  1 Li pz                32     -0.371882  2 Li pz         
    13     -0.315042  1 Li pz                36      0.315042  2 Li pz         

 Vector   23  Occ=0.000000D+00  E= 1.085312D-01  Symmetry=eg
              MO Center=  1.2D-16,  3.5D-16, -4.1D-16, r^2= 2.4D+01
   Bfn.  Coefficient  Atom+Function         Bfn.  Coefficient  Atom+Function  
  ----- ------------  ---------------      ----- ------------  ---------------
    12      1.907208  1 Li py                35     -1.907208  2 Li py         
    16     -1.233915  1 Li py                39      1.233915  2 Li py         
     8     -1.093255  1 Li py                31      1.093255  2 Li py         
    11      0.675632  1 Li px                34     -0.675632  2 Li px         
    15     -0.437117  1 Li px                38      0.437117  2 Li px         

 Vector   24  Occ=0.000000D+00  E= 1.085312D-01  Symmetry=eg
              MO Center=  4.1D-16, -1.4D-16,  1.3D-14, r^2= 2.4D+01
   Bfn.  Coefficient  Atom+Function         Bfn.  Coefficient  Atom+Function  
  ----- ------------  ---------------      ----- ------------  ---------------
    11      1.907208  1 Li px                34     -1.907208  2 Li px         
    15     -1.233915  1 Li px                38      1.233915  2 Li px         
     7     -1.093255  1 Li px                30      1.093255  2 Li px         
    12     -0.675632  1 Li py                35      0.675632  2 Li py         
    16      0.437117  1 Li py                39     -0.437117  2 Li py         

 Vector   25  Occ=0.000000D+00  E= 1.110017D-01  Symmetry=a2u
              MO Center= -2.9D-16,  8.5D-17,  9.5D-14, r^2= 2.8D+01
   Bfn.  Coefficient  Atom+Function         Bfn.  Coefficient  Atom+Function  
  ----- ------------  ---------------      ----- ------------  ---------------
    14     31.609471  1 Li s                 37    -31.609471  2 Li s          
    10     -7.997736  1 Li s                 33      7.997736  2 Li s          
    17      6.928764  1 Li pz                40      6.928764  2 Li pz         
    13     -1.736349  1 Li pz                36     -1.736349  2 Li pz         
     6      1.357218  1 Li s                 29     -1.357218  2 Li s          

 Vector   26  Occ=0.000000D+00  E= 1.878363D-01  Symmetry=a2u
              MO Center= -1.0D-16,  4.1D-17,  4.9D-15, r^2= 1.4D+01
   Bfn.  Coefficient  Atom+Function         Bfn.  Coefficient  Atom+Function  
  ----- ------------  ---------------      ----- ------------  ---------------
    10      7.638319  1 Li s                 14     -7.646082  1 Li s          
    33     -7.638319  2 Li s                 37      7.646082  2 Li s          
    13      3.604098  1 Li pz                36      3.604098  2 Li pz         
     6     -2.632765  1 Li s                 29      2.632765  2 Li s          
    17     -1.931615  1 Li pz                40     -1.931615  2 Li pz         

 Vector   27  Occ=0.000000D+00  E= 3.803911D-01  Symmetry=a1g
              MO Center=  2.2D-17, -1.1D-17, -2.5D-14, r^2= 9.3D+00
   Bfn.  Coefficient  Atom+Function         Bfn.  Coefficient  Atom+Function  
  ----- ------------  ---------------      ----- ------------  ---------------
     9      0.972817  1 Li pz                32     -0.972817  2 Li pz         
    13     -0.906958  1 Li pz                36      0.906958  2 Li pz         
     5     -0.682996  1 Li pz                28      0.682996  2 Li pz         
    17      0.434965  1 Li pz                40     -0.434965  2 Li pz         
    23     -0.393365  1 Li dzz               46     -0.393365  2 Li dzz        

 Vector   28  Occ=0.000000D+00  E= 3.873902D-01  Symmetry=eu
              MO Center= -9.4D-18, -1.5D-18, -7.7D-16, r^2= 4.7D+00
   Bfn.  Coefficient  Atom+Function         Bfn.  Coefficient  Atom+Function  
  ----- ------------  ---------------      ----- ------------  ---------------
    20      1.087268  1 Li dxz               43     -1.087268  2 Li dxz        
     7     -0.198914  1 Li px                30     -0.198914  2 Li px         
    11      0.137343  1 Li px                34      0.137343  2 Li px         
    22      0.134839  1 Li dyz               45     -0.134839  2 Li dyz        
    15     -0.032793  1 Li px                38     -0.032793  2 Li px         

 Vector   29  Occ=0.000000D+00  E= 3.873902D-01  Symmetry=eu
              MO Center= -2.4D-16,  3.7D-17, -1.2D-15, r^2= 4.7D+00
   Bfn.  Coefficient  Atom+Function         Bfn.  Coefficient  Atom+Function  
  ----- ------------  ---------------      ----- ------------  ---------------
    22      1.087268  1 Li dyz               45     -1.087268  2 Li dyz        
     8     -0.198914  1 Li py                31     -0.198914  2 Li py         
    12      0.137343  1 Li py                35      0.137343  2 Li py         
    20     -0.134839  1 Li dxz               43      0.134839  2 Li dxz        
    16     -0.032793  1 Li py                39     -0.032793  2 Li py         

 Vector   30  Occ=0.000000D+00  E= 4.130337D-01  Symmetry=a2u
              MO Center= -1.3D-17,  4.5D-18,  3.3D-14, r^2= 1.0D+01
   Bfn.  Coefficient  Atom+Function         Bfn.  Coefficient  Atom+Function  
  ----- ------------  ---------------      ----- ------------  ---------------
    14      7.480291  1 Li s                 37     -7.480291  2 Li s          
     9     -2.071034  1 Li pz                32     -2.071034  2 Li pz         
    17      1.508835  1 Li pz                40      1.508835  2 Li pz         
    13      1.090280  1 Li pz                36      1.090280  2 Li pz         
     5      0.824358  1 Li pz                28      0.824358  2 Li pz         

 Vector   31  Occ=0.000000D+00  E= 4.202600D-01  Symmetry=b1g
              MO Center=  1.8D-16,  1.8D-16,  3.0D-16, r^2= 4.2D+00
   Bfn.  Coefficient  Atom+Function         Bfn.  Coefficient  Atom+Function  
  ----- ------------  ---------------      ----- ------------  ---------------
    18      0.593259  1 Li dxx               21     -0.593259  1 Li dyy        
    41      0.593259  2 Li dxx               44     -0.593259  2 Li dyy        

 Vector   32  Occ=0.000000D+00  E= 4.202600D-01  Symmetry=b2g
              MO Center=  2.8D-16,  2.8D-16,  1.2D-16, r^2= 4.2D+00
   Bfn.  Coefficient  Atom+Function         Bfn.  Coefficient  Atom+Function  
  ----- ------------  ---------------      ----- ------------  ---------------
    19      1.186519  1 Li dxy               42      1.186519  2 Li dxy        

 Vector   33  Occ=0.000000D+00  E= 4.351794D-01  Symmetry=eu
              MO Center= -5.9D-17,  3.6D-17, -1.6D-13, r^2= 7.6D+00
   Bfn.  Coefficient  Atom+Function         Bfn.  Coefficient  Atom+Function  
  ----- ------------  ---------------      ----- ------------  ---------------
     7      0.826764  1 Li px                30      0.826764  2 Li px         
     3     -0.745671  1 Li px                26     -0.745671  2 Li px         
     8     -0.570468  1 Li py                31     -0.570468  2 Li py         
     4      0.514514  1 Li py                27      0.514514  2 Li py         
    11     -0.496684  1 Li px                34     -0.496684  2 Li px         

 Vector   34  Occ=0.000000D+00  E= 4.351794D-01  Symmetry=eu
              MO Center= -2.0D-17, -1.4D-17,  3.4D-17, r^2= 7.6D+00
   Bfn.  Coefficient  Atom+Function         Bfn.  Coefficient  Atom+Function  
  ----- ------------  ---------------      ----- ------------  ---------------
     8      0.826764  1 Li py                31      0.826764  2 Li py         
     4     -0.745671  1 Li py                27     -0.745671  2 Li py         
     7      0.570468  1 Li px                30      0.570468  2 Li px         
     3     -0.514514  1 Li px                26     -0.514514  2 Li px         
    12     -0.496684  1 Li py                35     -0.496684  2 Li py         

 Vector   35  Occ=0.000000D+00  E= 4.372682D-01  Symmetry=eg
              MO Center=  1.8D-17, -9.3D-18,  1.6D-13, r^2= 8.3D+00
   Bfn.  Coefficient  Atom+Function         Bfn.  Coefficient  Atom+Function  
  ----- ------------  ---------------      ----- ------------  ---------------
     7      1.166380  1 Li px                30     -1.166380  2 Li px         
    11     -0.978677  1 Li px                34      0.978677  2 Li px         
     3     -0.801733  1 Li px                26      0.801733  2 Li px         
     8     -0.599400  1 Li py                31      0.599400  2 Li py         
    12      0.502940  1 Li py                35     -0.502940  2 Li py         

 Vector   36  Occ=0.000000D+00  E= 4.372682D-01  Symmetry=eg
              MO Center=  1.6D-17,  3.1D-17,  2.4D-15, r^2= 8.3D+00
   Bfn.  Coefficient  Atom+Function         Bfn.  Coefficient  Atom+Function  
  ----- ------------  ---------------      ----- ------------  ---------------
     8      1.166380  1 Li py                31     -1.166380  2 Li py         
    12     -0.978677  1 Li py                35      0.978677  2 Li py         
     4     -0.801733  1 Li py                27      0.801733  2 Li py         
     7      0.599400  1 Li px                30     -0.599400  2 Li px         
    11     -0.502940  1 Li px                34      0.502940  2 Li px         

 Vector   37  Occ=0.000000D+00  E= 4.867626D-01  Symmetry=b2u
              MO Center= -1.4D-16, -5.1D-17, -1.8D-16, r^2= 4.5D+00
   Bfn.  Coefficient  Atom+Function         Bfn.  Coefficient  Atom+Function  
  ----- ------------  ---------------      ----- ------------  ---------------
    18      0.633460  1 Li dxx               21     -0.633460  1 Li dyy        
    41     -0.633460  2 Li dxx               44      0.633460  2 Li dyy        

 Vector   38  Occ=0.000000D+00  E= 4.867627D-01  Symmetry=b1u
              MO Center= -2.0D-17,  6.5D-17, -5.4D-16, r^2= 4.5D+00
   Bfn.  Coefficient  Atom+Function         Bfn.  Coefficient  Atom+Function  
  ----- ------------  ---------------      ----- ------------  ---------------
    19      1.266921  1 Li dxy               42     -1.266921  2 Li dxy        

 Vector   39  Occ=0.000000D+00  E= 5.674987D-01  Symmetry=a1g
              MO Center=  3.2D-17,  2.3D-18, -6.8D-15, r^2= 6.9D+00
   Bfn.  Coefficient  Atom+Function         Bfn.  Coefficient  Atom+Function  
  ----- ------------  ---------------      ----- ------------  ---------------
     6      1.288918  1 Li s                 29      1.288918  2 Li s          
    10     -0.805846  1 Li s                 33     -0.805846  2 Li s          
    23     -0.798534  1 Li dzz               46     -0.798534  2 Li dzz        
     9     -0.682481  1 Li pz                32      0.682481  2 Li pz         
     5      0.661950  1 Li pz                28     -0.661950  2 Li pz         

 Vector   40  Occ=0.000000D+00  E= 6.248318D-01  Symmetry=eg
              MO Center=  2.6D-18, -2.3D-18,  7.0D-16, r^2= 4.9D+00
   Bfn.  Coefficient  Atom+Function         Bfn.  Coefficient  Atom+Function  
  ----- ------------  ---------------      ----- ------------  ---------------
    22      1.429481  1 Li dyz               45      1.429481  2 Li dyz        
    20      0.574041  1 Li dxz               43      0.574041  2 Li dxz        
     8      0.482958  1 Li py                31     -0.482958  2 Li py         
    12     -0.213679  1 Li py                35      0.213679  2 Li py         
     7      0.193943  1 Li px                30     -0.193943  2 Li px         

 Vector   41  Occ=0.000000D+00  E= 6.248318D-01  Symmetry=eg
              MO Center=  1.5D-16,  5.6D-17,  5.7D-16, r^2= 4.9D+00
   Bfn.  Coefficient  Atom+Function         Bfn.  Coefficient  Atom+Function  
  ----- ------------  ---------------      ----- ------------  ---------------
    20      1.429481  1 Li dxz               43      1.429481  2 Li dxz        
    22     -0.574041  1 Li dyz               45     -0.574041  2 Li dyz        
     7      0.482958  1 Li px                30     -0.482958  2 Li px         
    11     -0.213679  1 Li px                34      0.213679  2 Li px         
     8     -0.193943  1 Li py                31      0.193943  2 Li py         

 Vector   42  Occ=0.000000D+00  E= 7.721397D-01  Symmetry=a2u
              MO Center= -1.4D-18,  3.1D-18,  3.2D-14, r^2= 6.5D+00
   Bfn.  Coefficient  Atom+Function         Bfn.  Coefficient  Atom+Function  
  ----- ------------  ---------------      ----- ------------  ---------------
    14      7.741801  1 Li s                 37     -7.741801  2 Li s          
    10     -2.178107  1 Li s                 33      2.178107  2 Li s          
    23     -1.692815  1 Li dzz               46      1.692815  2 Li dzz        
    17      1.666339  1 Li pz                40      1.666339  2 Li pz         
     9     -1.273851  1 Li pz                32     -1.273851  2 Li pz         

 Vector   43  Occ=0.000000D+00  E= 8.268639D-01  Symmetry=a1g
              MO Center=  1.1D-16, -4.1D-17, -1.5D-14, r^2= 1.3D+01
   Bfn.  Coefficient  Atom+Function         Bfn.  Coefficient  Atom+Function  
  ----- ------------  ---------------      ----- ------------  ---------------
     6      5.033674  1 Li s                 29      5.033674  2 Li s          
    10     -2.082783  1 Li s                 33     -2.082783  2 Li s          
    18     -1.682796  1 Li dxx               21     -1.682796  1 Li dyy        
    41     -1.682796  2 Li dxx               44     -1.682796  2 Li dyy        
    23     -1.325110  1 Li dzz               46     -1.325110  2 Li dzz        

 Vector   44  Occ=0.000000D+00  E= 1.013152D+00  Symmetry=a2u
              MO Center= -4.7D-19, -4.8D-18, -4.3D-14, r^2= 1.2D+01
   Bfn.  Coefficient  Atom+Function         Bfn.  Coefficient  Atom+Function  
  ----- ------------  ---------------      ----- ------------  ---------------
    14     15.563215  1 Li s                 37    -15.563215  2 Li s          
    10     -9.372866  1 Li s                 33      9.372866  2 Li s          
     6      8.213938  1 Li s                 29     -8.213938  2 Li s          
    17      3.505979  1 Li pz                40      3.505979  2 Li pz         
    13     -3.028636  1 Li pz                36     -3.028636  2 Li pz         

 Vector   45  Occ=0.000000D+00  E= 3.577901D+00  Symmetry=a1g
              MO Center=  4.3D-18, -1.9D-18,  5.2D-16, r^2= 3.9D+00
   Bfn.  Coefficient  Atom+Function         Bfn.  Coefficient  Atom+Function  
  ----- ------------  ---------------      ----- ------------  ---------------
     6     -1.622148  1 Li s                 29     -1.622148  2 Li s          
     2      1.528769  1 Li s                 25      1.528769  2 Li s          
     1     -1.221966  1 Li s                 24     -1.221966  2 Li s          
    10      0.831021  1 Li s                 33      0.831021  2 Li s          
    18      0.388465  1 Li dxx               21      0.388465  1 Li dyy        

 Vector   46  Occ=0.000000D+00  E= 3.920006D+00  Symmetry=a2u
              MO Center=  1.9D-18, -8.5D-20, -1.1D-14, r^2= 5.3D+00
   Bfn.  Coefficient  Atom+Function         Bfn.  Coefficient  Atom+Function  
  ----- ------------  ---------------      ----- ------------  ---------------
    14      9.617928  1 Li s                 37     -9.617928  2 Li s          
    10     -5.762730  1 Li s                 33      5.762730  2 Li s          
     6      4.141757  1 Li s                 29     -4.141757  2 Li s          
    17      2.190478  1 Li pz                40      2.190478  2 Li pz         
    13     -1.998549  1 Li pz                36     -1.998549  2 Li pz         


 center of mass
 --------------
 x =   0.00000000 y =   0.00000000 z =   0.00000000

 moments of inertia (a.u.)
 ------------------
          95.632707489390           0.000000000000           0.000000000000
           0.000000000000          95.632707489390           0.000000000000
           0.000000000000           0.000000000000           0.000000000000

     Multipole analysis of the density
     ---------------------------------

     L   x y z        total         alpha         beta         nuclear
     -   - - -        -----         -----         ----         -------
     0   0 0 0     -0.000000     -3.000000     -3.000000      6.000000

     1   1 0 0      0.000000      0.000000      0.000000      0.000000
     1   0 1 0     -0.000000     -0.000000     -0.000000      0.000000
     1   0 0 1     -0.000000     -0.000000     -0.000000      0.000000

     2   2 0 0    -12.453374     -6.226687     -6.226687      0.000000
     2   1 1 0      0.000000      0.000000      0.000000      0.000000
     2   1 0 1     -0.000000     -0.000000     -0.000000      0.000000
     2   0 2 0    -12.453374     -6.226687     -6.226687      0.000000
     2   0 1 1     -0.000000     -0.000000     -0.000000      0.000000
     2   0 0 2     -3.744162    -22.318070    -22.318070     40.891979

  itol2e modified to match energy
  convergence criterion.

            General Information
            -------------------
          SCF calculation type: DFT
          Wavefunction type:  closed shell.
          No. of atoms     :     2
          No. of electrons :     6
           Alpha electrons :     3
            Beta electrons :     3
          Charge           :     0
          Spin multiplicity:     1
          Use of symmetry is: on ; symmetry adaption is: on 
          Maximum number of iterations:  30
          AO basis - number of functions:    46
                     number of shells:    20
          Convergence on energy requested:  1.00D-09
          Convergence on density requested:  1.00D-05
          Convergence on gradient requested:  5.00D-04

              XC Information
              --------------
                        mPW91  Exchange Functional  1.000          

             Grid Information
             ----------------
          Grid used for XC integration:  fine      
          Radial quadrature: Mura-Knowles        
          Angular quadrature: Lebedev. 
          Tag              B.-S. Rad. Rad. Pts. Rad. Cut. Ang. Pts.
          ---              ---------- --------- --------- ---------
          li                  1.45       70          24.0       590
          Grid pruning is: on 
          Number of quadrature shells:    70
          Spatial weights used:  Erf1

          Convergence Information
          -----------------------
          Convergence aids based upon iterative change in 
          total energy or number of iterations. 
          Levelshifting, if invoked, occurs when the 
          HOMO/LUMO gap drops below (HL_TOL):  1.00D-02
          DIIS, if invoked, will attempt to extrapolate 
          using up to (NFOCK): 10 stored Fock matrices.

                    Damping( 0%)  Levelshifting(0.5)       DIIS
                  --------------- ------------------- ---------------
          dE  on:    start            ASAP                start   
          dE off:    2 iters         30 iters            30 iters 


      Screening Tolerance Information
      -------------------------------
          Density screening/tol_rho:  1.00D-12
          AO Gaussian exp screening on grid/accAOfunc:  21
          CD Gaussian exp screening on grid/accCDfunc:  20
          XC Gaussian exp screening on grid/accXCfunc:  20
          Schwarz screening/accCoul:  1.00D-10



                            NWChem DFT Gradient Module
                            --------------------------



  charge          =   0.00
  wavefunction    = closed shell

  Using symmetry


                         DFT ENERGY GRADIENTS

    atom               coordinates                        gradient
                 x          y          z           x          y          z
   1 li      0.000000   0.000000  -2.610619    0.000000   0.000000   0.000912
   2 li      0.000000   0.000000   2.610619    0.000000  -0.000000  -0.000912

                 ----------------------------------------
                 |  Time  |  1-e(secs)   |  2-e(secs)   |
                 ----------------------------------------
                 |  CPU   |       0.00   |       0.06   |
                 ----------------------------------------
                 |  WALL  |       0.00   |       0.06   |
                 ----------------------------------------
  no constraints, skipping    0.0000000000000000     

@ Step       Energy      Delta E   Gmax     Grms     Xrms     Xmax   Walltime
@ ---- ---------------- -------- -------- -------- -------- -------- --------
@    0     -14.85596810  0.0D+00  0.00091  0.00091  0.00000  0.00000      0.4
                                                                    



                                Z-matrix (autoz)
                                -------- 

 Units are Angstrom for bonds and degrees for angles

      Type          Name      I     J     K     L     M      Value     Gradient
      ----------- --------  ----- ----- ----- ----- ----- ---------- ----------
    1 Stretch                  1     2                       2.76296   -0.00091

  no constraints, skipping    0.0000000000000000     
  no constraints, skipping    0.0000000000000000     
  no constraints, skipping    0.0000000000000000     

                                 NWChem DFT Module
                                 -----------------




 Summary of "ao basis" -> "ao basis" (cartesian)
 ------------------------------------------------------------------------------
       Tag                 Description            Shells   Functions and Types
 ---------------- ------------------------------  ------  ---------------------
 li                         6-311+G*                10       23   5s4p1d


      Symmetry analysis of basis
      --------------------------

        a1g        11
        a1u         0
        a2g         0
        a2u        11
        b1g         1
        b1u         1
        b2g         1
        b2u         1
        eg         10
        eu         10

  Caching 1-el integrals 
  itol2e modified to match energy
  convergence criterion.

            General Information
            -------------------
          SCF calculation type: DFT
          Wavefunction type:  closed shell.
          No. of atoms     :     2
          No. of electrons :     6
           Alpha electrons :     3
            Beta electrons :     3
          Charge           :     0
          Spin multiplicity:     1
          Use of symmetry is: on ; symmetry adaption is: on 
          Maximum number of iterations:  30
          AO basis - number of functions:    46
                     number of shells:    20
          Convergence on energy requested:  1.00D-09
          Convergence on density requested:  1.00D-05
          Convergence on gradient requested:  5.00D-04

              XC Information
              --------------
                        mPW91  Exchange Functional  1.000          

             Grid Information
             ----------------
          Grid used for XC integration:  fine      
          Radial quadrature: Mura-Knowles        
          Angular quadrature: Lebedev. 
          Tag              B.-S. Rad. Rad. Pts. Rad. Cut. Ang. Pts.
          ---              ---------- --------- --------- ---------
          li                  1.45       70          24.0       590
          Grid pruning is: on 
          Number of quadrature shells:    70
          Spatial weights used:  Erf1

          Convergence Information
          -----------------------
          Convergence aids based upon iterative change in 
          total energy or number of iterations. 
          Levelshifting, if invoked, occurs when the 
          HOMO/LUMO gap drops below (HL_TOL):  1.00D-02
          DIIS, if invoked, will attempt to extrapolate 
          using up to (NFOCK): 10 stored Fock matrices.

                    Damping( 0%)  Levelshifting(0.5)       DIIS
                  --------------- ------------------- ---------------
          dE  on:    start            ASAP                start   
          dE off:    2 iters         30 iters            30 iters 


      Screening Tolerance Information
      -------------------------------
          Density screening/tol_rho:  1.00D-12
          AO Gaussian exp screening on grid/accAOfunc:  21
          CD Gaussian exp screening on grid/accCDfunc:  20
          XC Gaussian exp screening on grid/accXCfunc:  20
          Schwarz screening/accCoul:  1.00D-10


 Loading old vectors from job with title :




      Symmetry analysis of molecular orbitals - initial
      -------------------------------------------------

  Numbering of irreducible representations: 

     1 a1g         2 a1u         3 a2g         4 a2u         5 b1g     
     6 b1u         7 b2g         8 b2u         9 eg         10 eu      

  Orbital symmetries:

     1 a1g         2 a2u         3 a1g         4 a2u         5 eu      
     6 eu          7 a1g         8 a1g         9 eg         10 eg      
    11 a2u        12 eu         13 eu      

   Time after variat. SCF:      0.4
   Time prior to 1st pass:      0.4

 Grid_pts file          = ./li2freq.gridpts.0
 Record size in doubles =  12289        No. of grid_pts per rec  =   3070
 Max. records in memory =      5        Max. recs in file   = 253312716


           Memory utilization after 1st SCF pass: 
           Heap Space remaining (MW):       51.75            51747548
          Stack Space remaining (MW):       86.25            86246796

   convergence    iter        energy       DeltaE   RMS-Dens  Diis-err    time
 ---------------- ----- ----------------- --------- --------- ---------  ------
 d= 0,ls=0.0,diis     1    -14.8559720865 -1.66D+01  5.10D-05  1.92D-07     0.5
 d= 0,ls=0.0,diis     2    -14.8559721089 -2.23D-08  1.17D-05  1.60D-08     0.5
 d= 0,ls=0.0,diis     3    -14.8559721137 -4.88D-09  5.64D-06  9.27D-09     0.5
 d= 0,ls=0.0,diis     4    -14.8559721217 -7.94D-09  2.13D-07  2.41D-11     0.6
 d= 0,ls=0.0,diis     5    -14.8559721217 -7.06D-12  1.19D-08  4.85D-14     0.6


         Total DFT energy =      -14.855972121688
      One electron energy =      -22.988307748552
           Coulomb energy =        9.943678474092
    Exchange-Corr. energy =       -3.533566830047
 Nuclear repulsion energy =        1.722223982819

 Numeric. integr. density =        6.000000017238

     Total iterative time =      0.2s



                  Occupations of the irreducible representations
                  ----------------------------------------------

                     irrep           alpha         beta
                     --------     --------     --------
                     a1g               2.0          2.0
                     a1u               0.0          0.0
                     a2g               0.0          0.0
                     a2u               1.0          1.0
                     b1g               0.0          0.0
                     b1u               0.0          0.0
                     b2g               0.0          0.0
                     b2u               0.0          0.0
                     eg                0.0          0.0
                     eu                0.0          0.0


                       DFT Final Molecular Orbital Analysis
                       ------------------------------------

 Vector    1  Occ=2.000000D+00  E=-1.847599D+00  Symmetry=a1g
              MO Center= -6.3D-21,  2.0D-21, -2.9D-12, r^2= 2.0D+00
   Bfn.  Coefficient  Atom+Function         Bfn.  Coefficient  Atom+Function  
  ----- ------------  ---------------      ----- ------------  ---------------
     1      0.436604  1 Li s                 24      0.436604  2 Li s          
     2      0.296559  1 Li s                 25      0.296559  2 Li s          
     6      0.036671  1 Li s                 29      0.036671  2 Li s          

 Vector    2  Occ=2.000000D+00  E=-1.847389D+00  Symmetry=a2u
              MO Center= -1.2D-17,  4.5D-18,  2.9D-12, r^2= 2.0D+00
   Bfn.  Coefficient  Atom+Function         Bfn.  Coefficient  Atom+Function  
  ----- ------------  ---------------      ----- ------------  ---------------
     1      0.437637  1 Li s                 24     -0.437637  2 Li s          
     2      0.292407  1 Li s                 25     -0.292407  2 Li s          
    14      0.212833  1 Li s                 37     -0.212833  2 Li s          
    10     -0.128825  1 Li s                 33      0.128825  2 Li s          
     6      0.083702  1 Li s                 29     -0.083702  2 Li s          

 Vector    3  Occ=2.000000D+00  E=-9.861566D-02  Symmetry=a1g
              MO Center=  1.4D-32,  1.3D-32, -2.6D-16, r^2= 5.7D+00
   Bfn.  Coefficient  Atom+Function         Bfn.  Coefficient  Atom+Function  
  ----- ------------  ---------------      ----- ------------  ---------------
     6      0.326993  1 Li s                 29      0.326993  2 Li s          
    10      0.209707  1 Li s                 33      0.209707  2 Li s          
     2     -0.104442  1 Li s                 25     -0.104442  2 Li s          
     1     -0.087149  1 Li s                 24     -0.087149  2 Li s          
     9      0.055418  1 Li pz                32     -0.055418  2 Li pz         

 Vector    4  Occ=0.000000D+00  E=-5.236254D-02  Symmetry=a2u
              MO Center= -8.0D-32,  2.9D-32,  1.4D-15, r^2= 1.3D+01
   Bfn.  Coefficient  Atom+Function         Bfn.  Coefficient  Atom+Function  
  ----- ------------  ---------------      ----- ------------  ---------------
    14      1.080089  1 Li s                 37     -1.080089  2 Li s          
     6      0.298991  1 Li s                 29     -0.298991  2 Li s          
    13     -0.215918  1 Li pz                36     -0.215918  2 Li pz         
    17      0.196275  1 Li pz                40      0.196275  2 Li pz         
    10      0.162083  1 Li s                 33     -0.162083  2 Li s          

 Vector    5  Occ=0.000000D+00  E=-3.151361D-02  Symmetry=eu
              MO Center=  1.0D-14, -1.2D-14,  1.4D-14, r^2= 1.3D+01
   Bfn.  Coefficient  Atom+Function         Bfn.  Coefficient  Atom+Function  
  ----- ------------  ---------------      ----- ------------  ---------------
     8      0.187574  1 Li py                31      0.187574  2 Li py         
    12      0.174305  1 Li py                35      0.174305  2 Li py         
     7     -0.153513  1 Li px                30     -0.153513  2 Li px         
    11     -0.142653  1 Li px                34     -0.142653  2 Li px         
     4      0.090566  1 Li py                27      0.090566  2 Li py         

 Vector    6  Occ=0.000000D+00  E=-3.151361D-02  Symmetry=eu
              MO Center=  7.6D-23,  6.2D-23, -7.3D-17, r^2= 1.3D+01
   Bfn.  Coefficient  Atom+Function         Bfn.  Coefficient  Atom+Function  
  ----- ------------  ---------------      ----- ------------  ---------------
     7      0.187574  1 Li px                30      0.187574  2 Li px         
    11      0.174305  1 Li px                34      0.174305  2 Li px         
     8      0.153513  1 Li py                31      0.153513  2 Li py         
    12      0.142653  1 Li py                35      0.142653  2 Li py         
     3      0.090566  1 Li px                26      0.090566  2 Li px         

 Vector    7  Occ=0.000000D+00  E=-2.295283D-02  Symmetry=a1g
              MO Center= -1.2D-14,  1.5D-14,  2.1D-16, r^2= 2.0D+01
   Bfn.  Coefficient  Atom+Function         Bfn.  Coefficient  Atom+Function  
  ----- ------------  ---------------      ----- ------------  ---------------
    13      0.305448  1 Li pz                36     -0.305448  2 Li pz         
    14     -0.272904  1 Li s                 37     -0.272904  2 Li s          
     9      0.248014  1 Li pz                32     -0.248014  2 Li pz         
    17      0.182681  1 Li pz                40     -0.182681  2 Li pz         
     5      0.142136  1 Li pz                28     -0.142136  2 Li pz         

 Vector    8  Occ=0.000000D+00  E= 2.719189D-03  Symmetry=a1g
              MO Center=  6.1D-15, -6.3D-15, -4.0D-13, r^2= 3.9D+01
   Bfn.  Coefficient  Atom+Function         Bfn.  Coefficient  Atom+Function  
  ----- ------------  ---------------      ----- ------------  ---------------
    10      0.803009  1 Li s                 33      0.803009  2 Li s          
    14     -0.778262  1 Li s                 37     -0.778262  2 Li s          
    17     -0.395619  1 Li pz                40      0.395619  2 Li pz         
    13     -0.329880  1 Li pz                36      0.329880  2 Li pz         
     9     -0.112551  1 Li pz                32      0.112551  2 Li pz         

 Vector    9  Occ=0.000000D+00  E= 3.473368D-03  Symmetry=eg
              MO Center=  1.0D-17,  2.6D-18, -7.9D-16, r^2= 4.2D+01
   Bfn.  Coefficient  Atom+Function         Bfn.  Coefficient  Atom+Function  
  ----- ------------  ---------------      ----- ------------  ---------------
    15      1.462542  1 Li px                38     -1.462542  2 Li px         
    11      0.455930  1 Li px                34     -0.455930  2 Li px         
    16      0.366422  1 Li py                39     -0.366422  2 Li py         
     7      0.125468  1 Li px                30     -0.125468  2 Li px         
    12      0.114228  1 Li py                35     -0.114228  2 Li py         

 Vector   10  Occ=0.000000D+00  E= 3.473368D-03  Symmetry=eg
              MO Center=  1.8D-18, -7.1D-18, -1.3D-14, r^2= 4.2D+01
   Bfn.  Coefficient  Atom+Function         Bfn.  Coefficient  Atom+Function  
  ----- ------------  ---------------      ----- ------------  ---------------
    16      1.462542  1 Li py                39     -1.462542  2 Li py         
    12      0.455930  1 Li py                35     -0.455930  2 Li py         
    15     -0.366422  1 Li px                38      0.366422  2 Li px         
     8      0.125468  1 Li py                31     -0.125468  2 Li py         
    11     -0.114228  1 Li px                34      0.114228  2 Li px         

 Vector   11  Occ=0.000000D+00  E= 5.364849D-03  Symmetry=a2u
              MO Center=  4.8D-28, -5.8D-28,  5.1D-13, r^2= 6.7D+01
   Bfn.  Coefficient  Atom+Function         Bfn.  Coefficient  Atom+Function  
  ----- ------------  ---------------      ----- ------------  ---------------
    14     10.675875  1 Li s                 37    -10.675875  2 Li s          
    17      3.107199  1 Li pz                40      3.107199  2 Li pz         
    10      0.695753  1 Li s                 33     -0.695753  2 Li s          
     6      0.165629  1 Li s                 29     -0.165629  2 Li s          
    13      0.108122  1 Li pz                36      0.108122  2 Li pz         

 Vector   12  Occ=0.000000D+00  E= 9.084903D-03  Symmetry=eu
              MO Center= -1.4D-15,  5.5D-15,  2.9D-14, r^2= 5.4D+01
   Bfn.  Coefficient  Atom+Function         Bfn.  Coefficient  Atom+Function  
  ----- ------------  ---------------      ----- ------------  ---------------
    16      0.590593  1 Li py                39      0.590593  2 Li py         
    12     -0.271719  1 Li py                35     -0.271719  2 Li py         
    15     -0.172465  1 Li px                38     -0.172465  2 Li px         
     8     -0.145649  1 Li py                31     -0.145649  2 Li py         
    11      0.079348  1 Li px                34      0.079348  2 Li px         

 Vector   13  Occ=0.000000D+00  E= 9.084903D-03  Symmetry=eu
              MO Center= -2.7D-15, -7.6D-16,  1.0D-14, r^2= 5.4D+01
   Bfn.  Coefficient  Atom+Function         Bfn.  Coefficient  Atom+Function  
  ----- ------------  ---------------      ----- ------------  ---------------
    15      0.590593  1 Li px                38      0.590593  2 Li px         
    11     -0.271719  1 Li px                34     -0.271719  2 Li px         
    16      0.172465  1 Li py                39      0.172465  2 Li py         
     7     -0.145649  1 Li px                30     -0.145649  2 Li px         
    12     -0.079348  1 Li py                35     -0.079348  2 Li py         

 Vector   14  Occ=0.000000D+00  E= 1.364098D-02  Symmetry=a1g
              MO Center=  2.4D-17, -4.2D-16, -2.0D-14, r^2= 7.0D+01
   Bfn.  Coefficient  Atom+Function         Bfn.  Coefficient  Atom+Function  
  ----- ------------  ---------------      ----- ------------  ---------------
    17      1.735303  1 Li pz                40     -1.735303  2 Li pz         
    14     -0.311846  1 Li s                 37     -0.311846  2 Li s          
     9     -0.163760  1 Li pz                32      0.163760  2 Li pz         
    13     -0.142914  1 Li pz                36      0.142914  2 Li pz         
    10     -0.091380  1 Li s                 33     -0.091380  2 Li s          

 Vector   15  Occ=0.000000D+00  E= 2.543578D-02  Symmetry=a2u
              MO Center= -4.6D-28,  5.4D-28,  5.3D-13, r^2= 8.0D+01
   Bfn.  Coefficient  Atom+Function         Bfn.  Coefficient  Atom+Function  
  ----- ------------  ---------------      ----- ------------  ---------------
    14     63.610199  1 Li s                 37    -63.610199  2 Li s          
    17     14.521718  1 Li pz                40     14.521718  2 Li pz         
    13      0.840828  1 Li pz                36      0.840828  2 Li pz         
    10      0.374047  1 Li s                 33     -0.374047  2 Li s          
     6     -0.061394  1 Li s                 29      0.061394  2 Li s          

 Vector   16  Occ=0.000000D+00  E= 3.060346D-02  Symmetry=eg
              MO Center=  3.7D-22, -7.9D-22, -2.7D-14, r^2= 5.0D+01
   Bfn.  Coefficient  Atom+Function         Bfn.  Coefficient  Atom+Function  
  ----- ------------  ---------------      ----- ------------  ---------------
    16      1.983893  1 Li py                39     -1.983893  2 Li py         
    12     -0.984831  1 Li py                35      0.984831  2 Li py         
    15     -0.926908  1 Li px                38      0.926908  2 Li px         
    11      0.460129  1 Li px                34     -0.460129  2 Li px         
     8     -0.174350  1 Li py                31      0.174350  2 Li py         

 Vector   17  Occ=0.000000D+00  E= 3.060346D-02  Symmetry=eg
              MO Center=  2.3D-16,  2.2D-17, -1.3D-14, r^2= 5.0D+01
   Bfn.  Coefficient  Atom+Function         Bfn.  Coefficient  Atom+Function  
  ----- ------------  ---------------      ----- ------------  ---------------
    15      1.983893  1 Li px                38     -1.983893  2 Li px         
    11     -0.984831  1 Li px                34      0.984831  2 Li px         
    16      0.926908  1 Li py                39     -0.926908  2 Li py         
    12     -0.460129  1 Li py                35      0.460129  2 Li py         
     7     -0.174350  1 Li px                30      0.174350  2 Li px         

 Vector   18  Occ=0.000000D+00  E= 5.523685D-02  Symmetry=a2u
              MO Center= -1.0D-16,  3.4D-17, -2.2D-14, r^2= 4.1D+01
   Bfn.  Coefficient  Atom+Function         Bfn.  Coefficient  Atom+Function  
  ----- ------------  ---------------      ----- ------------  ---------------
    10      9.008109  1 Li s                 33     -9.008109  2 Li s          
    14     -7.873597  1 Li s                 37      7.873597  2 Li s          
    13      4.832723  1 Li pz                36      4.832723  2 Li pz         
    17     -2.356735  1 Li pz                40     -2.356735  2 Li pz         
     9     -0.220275  1 Li pz                32     -0.220275  2 Li pz         

 Vector   19  Occ=0.000000D+00  E= 7.560559D-02  Symmetry=a1g
              MO Center=  3.6D-16, -2.7D-16, -2.3D-13, r^2= 3.4D+01
   Bfn.  Coefficient  Atom+Function         Bfn.  Coefficient  Atom+Function  
  ----- ------------  ---------------      ----- ------------  ---------------
    13      1.566920  1 Li pz                36     -1.566920  2 Li pz         
    17     -1.240526  1 Li pz                40      1.240526  2 Li pz         
     9     -0.641600  1 Li pz                32      0.641600  2 Li pz         
     6     -0.474316  1 Li s                 29     -0.474316  2 Li s          
    10      0.246481  1 Li s                 33      0.246481  2 Li s          

 Vector   20  Occ=0.000000D+00  E= 8.506544D-02  Symmetry=eu
              MO Center=  1.3D-15,  2.4D-15,  4.8D-14, r^2= 2.8D+01
   Bfn.  Coefficient  Atom+Function         Bfn.  Coefficient  Atom+Function  
  ----- ------------  ---------------      ----- ------------  ---------------
    12      1.029322  1 Li py                35      1.029322  2 Li py         
     8     -0.776469  1 Li py                31     -0.776469  2 Li py         
    11      0.505870  1 Li px                34      0.505870  2 Li px         
    16     -0.405486  1 Li py                39     -0.405486  2 Li py         
     7     -0.381603  1 Li px                30     -0.381603  2 Li px         

 Vector   21  Occ=0.000000D+00  E= 8.506544D-02  Symmetry=eu
              MO Center=  2.9D-15, -1.4D-15,  5.5D-14, r^2= 2.8D+01
   Bfn.  Coefficient  Atom+Function         Bfn.  Coefficient  Atom+Function  
  ----- ------------  ---------------      ----- ------------  ---------------
    11      1.029322  1 Li px                34      1.029322  2 Li px         
     7     -0.776469  1 Li px                30     -0.776469  2 Li px         
    12     -0.505870  1 Li py                35     -0.505870  2 Li py         
    15     -0.405486  1 Li px                38     -0.405486  2 Li px         
     8      0.381603  1 Li py                31      0.381603  2 Li py         

 Vector   22  Occ=0.000000D+00  E= 8.838399D-02  Symmetry=a1g
              MO Center= -4.6D-15, -9.6D-16,  2.5D-13, r^2= 2.5D+01
   Bfn.  Coefficient  Atom+Function         Bfn.  Coefficient  Atom+Function  
  ----- ------------  ---------------      ----- ------------  ---------------
    10      2.139055  1 Li s                 33      2.139055  2 Li s          
     6     -1.877443  1 Li s                 29     -1.877443  2 Li s          
    14     -0.697131  1 Li s                 37     -0.697131  2 Li s          
     9      0.370909  1 Li pz                32     -0.370909  2 Li pz         
    13     -0.313926  1 Li pz                36      0.313926  2 Li pz         

 Vector   23  Occ=0.000000D+00  E= 1.084931D-01  Symmetry=eg
              MO Center= -5.4D-14,  6.4D-14, -3.7D-14, r^2= 2.5D+01
   Bfn.  Coefficient  Atom+Function         Bfn.  Coefficient  Atom+Function  
  ----- ------------  ---------------      ----- ------------  ---------------
    12      1.544396  1 Li py                35     -1.544396  2 Li py         
    11     -1.305801  1 Li px                34      1.305801  2 Li px         
    16     -0.999208  1 Li py                39      0.999208  2 Li py         
     8     -0.885165  1 Li py                31      0.885165  2 Li py         
    15      0.844840  1 Li px                38     -0.844840  2 Li px         

 Vector   24  Occ=0.000000D+00  E= 1.084931D-01  Symmetry=eg
              MO Center= -3.7D-15, -3.1D-15, -6.3D-14, r^2= 2.5D+01
   Bfn.  Coefficient  Atom+Function         Bfn.  Coefficient  Atom+Function  
  ----- ------------  ---------------      ----- ------------  ---------------
    11      1.544396  1 Li px                34     -1.544396  2 Li px         
    12      1.305801  1 Li py                35     -1.305801  2 Li py         
    15     -0.999208  1 Li px                38      0.999208  2 Li px         
     7     -0.885165  1 Li px                30      0.885165  2 Li px         
    16     -0.844840  1 Li py                39      0.844840  2 Li py         

 Vector   25  Occ=0.000000D+00  E= 1.109838D-01  Symmetry=a2u
              MO Center=  5.7D-14, -6.1D-14,  1.7D-13, r^2= 2.8D+01
   Bfn.  Coefficient  Atom+Function         Bfn.  Coefficient  Atom+Function  
  ----- ------------  ---------------      ----- ------------  ---------------
    14     31.524907  1 Li s                 37    -31.524907  2 Li s          
    10     -7.978445  1 Li s                 33      7.978445  2 Li s          
    17      6.915659  1 Li pz                40      6.915659  2 Li pz         
    13     -1.730454  1 Li pz                36     -1.730454  2 Li pz         
     6      1.358750  1 Li s                 29     -1.358750  2 Li s          

 Vector   26  Occ=0.000000D+00  E= 1.876637D-01  Symmetry=a2u
              MO Center=  1.4D-16,  8.9D-17, -4.0D-14, r^2= 1.4D+01
   Bfn.  Coefficient  Atom+Function         Bfn.  Coefficient  Atom+Function  
  ----- ------------  ---------------      ----- ------------  ---------------
    10      7.625219  1 Li s                 14     -7.651579  1 Li s          
    33     -7.625219  2 Li s                 37      7.651579  2 Li s          
    13      3.600167  1 Li pz                36      3.600167  2 Li pz         
     6     -2.627378  1 Li s                 29      2.627378  2 Li s          
    17     -1.934270  1 Li pz                40     -1.934270  2 Li pz         

 Vector   27  Occ=0.000000D+00  E= 3.805064D-01  Symmetry=a1g
              MO Center= -3.6D-18, -7.7D-18, -2.8D-15, r^2= 9.3D+00
   Bfn.  Coefficient  Atom+Function         Bfn.  Coefficient  Atom+Function  
  ----- ------------  ---------------      ----- ------------  ---------------
     9      0.972124  1 Li pz                32     -0.972124  2 Li pz         
    13     -0.906282  1 Li pz                36      0.906282  2 Li pz         
     5     -0.682656  1 Li pz                28      0.682656  2 Li pz         
    17      0.434630  1 Li pz                40     -0.434630  2 Li pz         
    23     -0.394377  1 Li dzz               46     -0.394377  2 Li dzz        

 Vector   28  Occ=0.000000D+00  E= 3.873287D-01  Symmetry=eu
              MO Center=  1.1D-17,  1.8D-18, -5.4D-16, r^2= 4.7D+00
   Bfn.  Coefficient  Atom+Function         Bfn.  Coefficient  Atom+Function  
  ----- ------------  ---------------      ----- ------------  ---------------
    20      0.946125  1 Li dxz               43     -0.946125  2 Li dxz        
    22      0.552763  1 Li dyz               45     -0.552763  2 Li dyz        
     7     -0.170511  1 Li px                30     -0.170511  2 Li px         
    11      0.117856  1 Li px                34      0.117856  2 Li px         
     8     -0.099619  1 Li py                31     -0.099619  2 Li py         

 Vector   29  Occ=0.000000D+00  E= 3.873287D-01  Symmetry=eu
              MO Center= -3.9D-19,  6.7D-19, -5.3D-16, r^2= 4.7D+00
   Bfn.  Coefficient  Atom+Function         Bfn.  Coefficient  Atom+Function  
  ----- ------------  ---------------      ----- ------------  ---------------
    22      0.946125  1 Li dyz               45     -0.946125  2 Li dyz        
    20     -0.552763  1 Li dxz               43      0.552763  2 Li dxz        
     8     -0.170511  1 Li py                31     -0.170511  2 Li py         
    12      0.117856  1 Li py                35      0.117856  2 Li py         
     7      0.099619  1 Li px                30      0.099619  2 Li px         

 Vector   30  Occ=0.000000D+00  E= 4.129904D-01  Symmetry=a2u
              MO Center=  2.4D-16, -7.3D-17, -1.3D-14, r^2= 1.0D+01
   Bfn.  Coefficient  Atom+Function         Bfn.  Coefficient  Atom+Function  
  ----- ------------  ---------------      ----- ------------  ---------------
    14      7.448183  1 Li s                 37     -7.448183  2 Li s          
     9     -2.069051  1 Li pz                32     -2.069051  2 Li pz         
    17      1.502932  1 Li pz                40      1.502932  2 Li pz         
    13      1.092180  1 Li pz                36      1.092180  2 Li pz         
     5      0.825098  1 Li pz                28      0.825098  2 Li pz         

 Vector   31  Occ=0.000000D+00  E= 4.203548D-01  Symmetry=b1g
              MO Center= -1.2D-16,  4.7D-17, -1.1D-16, r^2= 4.2D+00
   Bfn.  Coefficient  Atom+Function         Bfn.  Coefficient  Atom+Function  
  ----- ------------  ---------------      ----- ------------  ---------------
    18      0.593346  1 Li dxx               21     -0.593346  1 Li dyy        
    41      0.593346  2 Li dxx               44     -0.593346  2 Li dyy        

 Vector   32  Occ=0.000000D+00  E= 4.203548D-01  Symmetry=b2g
              MO Center=  3.2D-17, -1.7D-16,  3.8D-15, r^2= 4.2D+00
   Bfn.  Coefficient  Atom+Function         Bfn.  Coefficient  Atom+Function  
  ----- ------------  ---------------      ----- ------------  ---------------
[...]
              MO Center=  1.9D-12, -1.7D-12, -2.6D-12, r^2= 6.7D+00
   Bfn.  Coefficient  Atom+Function         Bfn.  Coefficient  Atom+Function  
  ----- ------------  ---------------      ----- ------------  ---------------
    14      7.632884  1 Li s                 37     -7.632884  2 Li s          
    10     -2.236693  1 Li s                 33      2.236693  2 Li s          
    17      1.664576  1 Li pz                23     -1.668280  1 Li dzz        
    40      1.664576  2 Li pz                46      1.668280  2 Li dzz        
     9     -1.234874  1 Li pz                32     -1.234874  2 Li pz         

 Vector   43  Occ=0.000000D+00  E= 8.239190D-01
              MO Center=  7.2D-12, -6.5D-12, -2.2D-12, r^2= 1.3D+01
   Bfn.  Coefficient  Atom+Function         Bfn.  Coefficient  Atom+Function  
  ----- ------------  ---------------      ----- ------------  ---------------
     6      5.042357  1 Li s                 29      5.042357  2 Li s          
    10     -2.093251  1 Li s                 33     -2.093251  2 Li s          
    18     -1.675748  1 Li dxx               21     -1.675748  1 Li dyy        
    41     -1.675748  2 Li dxx               44     -1.675748  2 Li dyy        
    23     -1.337083  1 Li dzz               46     -1.337083  2 Li dzz        

 Vector   44  Occ=0.000000D+00  E= 1.011505D+00
              MO Center=  4.2D-12, -3.7D-12,  8.9D-12, r^2= 1.2D+01
   Bfn.  Coefficient  Atom+Function         Bfn.  Coefficient  Atom+Function  
  ----- ------------  ---------------      ----- ------------  ---------------
    14     15.059539  1 Li s                 37    -15.059539  2 Li s          
    10     -9.095143  1 Li s                 33      9.095143  2 Li s          
     6      8.111159  1 Li s                 29     -8.111159  2 Li s          
    17      3.435999  1 Li pz                40      3.435999  2 Li pz         
    13     -2.950462  1 Li pz                36     -2.950462  2 Li pz         

 Vector   45  Occ=0.000000D+00  E= 3.572926D+00
              MO Center=  8.4D-13, -7.9D-13,  7.5D-13, r^2= 3.9D+00
   Bfn.  Coefficient  Atom+Function         Bfn.  Coefficient  Atom+Function  
  ----- ------------  ---------------      ----- ------------  ---------------
     6     -1.617646  1 Li s                 29     -1.617646  2 Li s          
     2      1.525742  1 Li s                 25      1.525742  2 Li s          
     1     -1.221358  1 Li s                 24     -1.221358  2 Li s          
    10      0.832369  1 Li s                 33      0.832369  2 Li s          
    18      0.382686  1 Li dxx               21      0.382686  1 Li dyy        

 Vector   46  Occ=0.000000D+00  E= 3.916747D+00
              MO Center=  6.5D-13, -6.0D-13, -6.1D-13, r^2= 5.4D+00
   Bfn.  Coefficient  Atom+Function         Bfn.  Coefficient  Atom+Function  
  ----- ------------  ---------------      ----- ------------  ---------------
    14      9.281697  1 Li s                 37     -9.281697  2 Li s          
    10     -5.557407  1 Li s                 33      5.557407  2 Li s          
     6      4.061378  1 Li s                 29     -4.061378  2 Li s          
    17      2.141226  1 Li pz                40      2.141226  2 Li pz         
    13     -1.937245  1 Li pz                36     -1.937245  2 Li pz         


 center of mass
 --------------
 x =   0.00000000 y =   0.00000000 z =   0.00000000

 moments of inertia (a.u.)
 ------------------
          98.212688712574           0.000000000000           0.000000000000
           0.000000000000          98.212688712574           0.000000000000
           0.000000000000           0.000000000000           0.000000000000

     Multipole analysis of the density
     ---------------------------------

     L   x y z        total         alpha         beta         nuclear
     -   - - -        -----         -----         ----         -------
     0   0 0 0     -0.000000     -3.000000     -3.000000      6.000000

     1   1 0 0      0.000000      0.000000      0.000000      0.000000
     1   0 1 0     -0.000000     -0.000000     -0.000000      0.000000
     1   0 0 1      0.000000      0.000000      0.000000      0.000000

     2   2 0 0    -12.480284     -6.240142     -6.240142      0.000000
     2   1 1 0     -0.000000     -0.000000     -0.000000      0.000000
     2   1 0 1      0.000000      0.000000      0.000000      0.000000
     2   0 2 0    -12.480284     -6.240142     -6.240142      0.000000
     2   0 1 1      0.000000      0.000000      0.000000      0.000000
     2   0 0 2     -3.713554    -22.854359    -22.854359     41.995163


 HESSIAN: the one electron contributions are done in       0.0s


 HESSIAN: 2-el 1st deriv. term done in                     0.1s


 HESSIAN: 2-el 2nd deriv. term done in                     0.3s

  stpr_wrt_fd_from_sq: overwrite of existing file:./li2freq.hess
 stpr_wrt_fd_dipole: overwrite of existing file./li2freq.fd_ddipole

 HESSIAN: the two electron contributions are done in       2.9s

                                NWChem CPHF Module
                                ------------------


  scftype          =     RHF 
  nclosed          =        3
  nopen            =        0
  variables        =      129
  # of vectors     =        6
  tolerance        = 0.10D-03
  level shift      = 0.00D+00
  max iterations   =       50
  max subspace     =       60

 Grid integrated density:       5.999999999669
 Requested integration accuracy:   0.10E-13
 SCF residual:    1.6015422713846897E-006


Iterative solution of linear equations
  No. of variables      129
  No. of equations        6
  Maximum subspace       60
        Iterations       50
       Convergence  1.0D-04
        Start time      5.6


   iter   nsub   residual    time
   ----  ------  --------  ---------
     1      6    2.34D-02       6.7
     2     12    3.35D-03       7.8
     3     18    7.16D-04       8.8
     4     24    1.21D-04       9.9
     5     30    1.40D-05      10.9
 HESSIAN: the CPHF contributions are done
  stpr_wrt_fd_from_sq: overwrite of existing file:./li2freq.hess
 stpr_wrt_fd_dipole: overwrite of existing file./li2freq.fd_ddipole

 Derivative Dipole

  
  
 X vector of derivative dipole (au) [debye/angstrom]
 d_dipole_x/<atom=   1,x> =    -0.0000     [   -0.0000]
 d_dipole_x/<atom=   1,y> =     0.0000     [    0.0000]
 d_dipole_x/<atom=   1,z> =    -0.0000     [   -0.0000]
 d_dipole_x/<atom=   2,x> =    -0.0000     [   -0.0000]
 d_dipole_x/<atom=   2,y> =     0.0000     [    0.0000]
 d_dipole_x/<atom=   2,z> =     0.0000     [    0.0000]
  
 Y vector of derivative dipole (au) [debye/angstrom]
 d_dipole_y/<atom=   1,x> =     0.0000     [    0.0000]
 d_dipole_y/<atom=   1,y> =    -0.0000     [   -0.0000]
 d_dipole_y/<atom=   1,z> =     0.0000     [    0.0000]
 d_dipole_y/<atom=   2,x> =     0.0000     [    0.0000]
 d_dipole_y/<atom=   2,y> =    -0.0000     [   -0.0000]
 d_dipole_y/<atom=   2,z> =    -0.0000     [   -0.0000]
  
 Z vector of derivative dipole (au) [debye/angstrom]
 d_dipole_z/<atom=   1,x> =     0.0000     [    0.0000]
 d_dipole_z/<atom=   1,y> =     0.0000     [    0.0000]
 d_dipole_z/<atom=   1,z> =    -0.0000     [   -0.0001]
 d_dipole_z/<atom=   2,x> =     0.0000     [    0.0000]
 d_dipole_z/<atom=   2,y> =     0.0000     [    0.0000]
 d_dipole_z/<atom=   2,z> =    -0.0000     [   -0.0001]
  
  
 HESSIAN: the Hessian is done


  Vibrational analysis via the FX method 

  See chapter 2 in "Molecular Vibrations" by Wilson, Decius and Cross

  Vib: Default input used 

  Nuclear Hessian passed symmetry test 



 ---------------------------- Atom information ----------------------------
     atom    #        X              Y              Z            mass
 --------------------------------------------------------------------------
    Li       1  0.0000000D+00  0.0000000D+00 -2.6455990D+00  7.0160000D+00
    Li       2  0.0000000D+00  0.0000000D+00  2.6455990D+00  7.0160000D+00
 --------------------------------------------------------------------------




          ----------------------------------------------------
          MASS-WEIGHTED NUCLEAR HESSIAN (Hartree/Bohr/Bohr/Kamu)
          ----------------------------------------------------


               1            2            3            4            5            6
   ----- ----- ----- ----- -----
    1   -1.82866D-05
    2    3.54285D-12 -1.82870D-05
    3    1.11263D-11  2.24037D-11  1.78174D+00
    4    5.95614D-07  5.74714D-15 -3.27270D-13 -1.82870D-05
    5    9.23149D-15  5.95612D-07 -3.00251D-12  1.25117D-12 -1.82866D-05
    6   -2.60104D-12  4.52288D-13 -1.78445D+00  2.09262D-11  4.75828D-12  1.78174D+00



          -------------------------------------------------
          NORMAL MODE EIGENVECTORS IN CARTESIAN COORDINATES
          -------------------------------------------------
                 (Frequencies expressed in cm-1)

                    1           2           3           4           5           6
 
 Frequency         -8.46       -0.71       -0.71       -0.68       -0.68      306.98
 
           1    -0.00000     0.22988     0.13565    -0.16257     0.21180    -0.00000
           2    -0.00000    -0.13569     0.22995     0.21173     0.16252    -0.00000
           3     0.26696    -0.00000     0.00000     0.00000     0.00000    -0.26696
           4    -0.00000    -0.22995    -0.13569    -0.16252     0.21173     0.00000
           5    -0.00000     0.13564    -0.22988     0.21180     0.16257     0.00000
           6     0.26696    -0.00000     0.00000     0.00000     0.00000     0.26696



 ----------------------------------------------------------------------------
 Normal Eigenvalue ||         Derivative Dipole Moments (debye/angs)
  Mode   [cm**-1]  ||      [d/dqX]             [d/dqY]           [d/dqZ]
 ------ ---------- || ------------------ ------------------ -----------------
    1       -8.463 ||       0.000               0.000            -0.000
    2       -0.706 ||       0.000               0.000            -0.000
    3       -0.706 ||       0.000              -0.000             0.000
    4       -0.684 ||       0.000              -0.000             0.000
    5       -0.684 ||      -0.000              -0.000             0.000
    6      306.978 ||       0.000              -0.000            -0.000
 ----------------------------------------------------------------------------



  
  
 ----------------------------------------------------------------------------
 Normal Eigenvalue ||                 Infra Red Intensities
  Mode   [cm**-1]  || [atomic units] [(debye/angs)**2] [(KM/mol)] [arbitrary]
 ------ ---------- || -------------- ----------------- ---------- -----------
    1       -8.463 ||    0.000000           0.000         0.000      59.356
    2       -0.706 ||    0.000000           0.000         0.000       0.000
    3       -0.706 ||    0.000000           0.000         0.000       0.000
    4       -0.684 ||    0.000000           0.000         0.000       0.322
    5       -0.684 ||    0.000000           0.000         0.000       0.322
    6      306.978 ||    0.000000           0.000         0.000       0.000
 ----------------------------------------------------------------------------





        Vibrational analysis via the FX method 
  --- with translations and rotations projected out ---
  --- via the Eckart algorithm                      ---
 Dependent rotation vector no.                    3
  found in ECKART; assuming linear geometry
 Projected Nuclear Hessian trans-rot subspace norm:1.4749D-58
                         (should be close to zero!) 

          --------------------------------------------------------
          MASS-WEIGHTED PROJECTED HESSIAN (Hartree/Bohr/Bohr/Kamu)
          --------------------------------------------------------


               1            2            3            4            5            6
   ----- ----- ----- ----- -----
    1    0.00000D+00
    2    0.00000D+00  0.00000D+00
    3   -1.79900D-27 -3.59800D-27  1.78310D+00
    4    0.00000D+00  8.78417D-31  0.00000D+00  0.00000D+00
    5   -1.75683D-30  0.00000D+00  2.24875D-28 -2.24875D-28  0.00000D+00
    6    1.79900D-27  1.91144D-27 -1.78310D+00  0.00000D+00  0.00000D+00  1.78310D+00

 center of mass
 --------------
 x =   0.00000000 y =   0.00000000 z =   0.00000000

 moments of inertia (a.u.)
 ------------------
          98.212688712574           0.000000000000           0.000000000000
           0.000000000000          98.212688712574           0.000000000000
           0.000000000000           0.000000000000           0.000000000000

 Rotational Constants
 --------------------
 A=   0.000000 cm-1  (  0.000000 K)
 B=   0.612957 cm-1  (  0.881889 K)
 C=   0.612957 cm-1  (  0.881889 K)


 Temperature                      =   298.15K
 frequency scaling parameter      =   1.0000


 Linear Molecule                   

 Zero-Point correction to Energy  =    0.439 kcal/mol  (  0.000699 au)
 Thermal correction to Energy     =    2.177 kcal/mol  (  0.003470 au)
 Thermal correction to Enthalpy   =    2.769 kcal/mol  (  0.004413 au)

 Total Entropy                    =   47.404 cal/mol-K
   - Translational                =   33.849 cal/mol-K (mol. weight =  14.0320)
   - Rotational                   =   12.176 cal/mol-K (symmetry #  =        2)
   - Vibrational                  =    1.378 cal/mol-K

 Cv (constant volume heat capacity) =    6.625 cal/mol-K
   - Translational                  =    2.979 cal/mol-K
   - Rotational                     =    1.986 cal/mol-K
   - Vibrational                    =    1.660 cal/mol-K



          -------------------------------------------------
          NORMAL MODE EIGENVECTORS IN CARTESIAN COORDINATES
          -------------------------------------------------
             (Projected Frequencies expressed in cm-1)

                    1           2           3           4           5           6
 
 P.Frequency       -0.00        0.00        0.00        0.00        0.00      306.98
 
           1     0.00000     0.37753     0.00000     0.00000     0.00000     0.00000
           2     0.26696     0.00000     0.00000     0.00000     0.26696     0.00000
           3     0.18877     0.00000     0.00000     0.00000    -0.18877    -0.26696
           4     0.00000     0.00000     0.37753     0.00000     0.00000     0.00000
           5     0.00000     0.00000     0.00000     0.37753     0.00000     0.00000
           6     0.18877     0.00000     0.00000     0.00000    -0.18877     0.26696



 ----------------------------------------------------------------------------
 Normal Eigenvalue ||    Projected Derivative Dipole Moments (debye/angs)
  Mode   [cm**-1]  ||      [d/dqX]             [d/dqY]           [d/dqZ]
 ------ ---------- || ------------------ ------------------ -----------------
    1       -0.000 ||       0.000              -0.000            -0.000
    2        0.000 ||      -0.000               0.000             0.000
    3        0.000 ||      -0.000               0.000             0.000
    4        0.000 ||       0.000              -0.000             0.000
    5        0.000 ||      -0.000              -0.000             0.000
    6      306.978 ||       0.000              -0.000            -0.000
 ----------------------------------------------------------------------------



  
  
 ----------------------------------------------------------------------------
 Normal Eigenvalue ||           Projected Infra Red Intensities
  Mode   [cm**-1]  || [atomic units] [(debye/angs)**2] [(KM/mol)] [arbitrary]
 ------ ---------- || -------------- ----------------- ---------- -----------
    1       -0.000 ||    0.000000           0.000         0.000      29.758
    2        0.000 ||    0.000000           0.000         0.000       0.161
    3        0.000 ||    0.000000           0.000         0.000       0.161
    4        0.000 ||    0.000000           0.000         0.000       0.161
    5        0.000 ||    0.000000           0.000         0.000      29.759
    6      306.978 ||    0.000000           0.000         0.000       0.000
 ----------------------------------------------------------------------------



 vib:animation  F

 Task  times  cpu:        9.3s     wall:        9.4s


                                NWChem Input Module
                                -------------------


 Summary of allocated global arrays
-----------------------------------
  No active global arrays



                         GA Statistics for process    0
                         ------------------------------

       create   destroy   get      put      acc     scatter   gather  read&inc
calls: 1397     1397     7.66e+04 1.10e+04 2.12e+04  152        0     4832     
number of processes/call 1.15e+00 1.44e+00 1.12e+00 0.00e+00 0.00e+00
bytes total:             2.30e+08 8.08e+06 8.63e+07 0.00e+00 0.00e+00 3.87e+04
bytes remote:            1.38e+08 3.20e+06 5.38e+07 -4.80e+02 0.00e+00 0.00e+00
Max memory consumed for GA by this process: 362544 bytes

MA_summarize_allocated_blocks: starting scan ...
heap block 'gridpts', handle 92, address 0x55abdb772818:
	type of elements:		double precision
	number of elements:		34436050
	address of client space:	0x55abdb772880
	index for client space:		10558243
	total number of bytes:		275488512
MA_summarize_allocated_blocks: scan completed: 1 heap block, 0 stack blocks
MA usage statistics:

	allocation statistics:
					      heap	     stack
					      ----	     -----
	current number of blocks	         1	         0
	maximum number of blocks	        26	        57
	current total bytes		 275488512	         0
	maximum total bytes		 278267680	  82962920
	maximum total K-bytes		    278268	     82963
	maximum total M-bytes		       279	        83


                                     CITATION
                                     --------
                Please cite the following reference when publishing
                           results obtained with NWChem:

                 M. Valiev, E.J. Bylaska, N. Govind, K. Kowalski,
              T.P. Straatsma, H.J.J. van Dam, D. Wang, J. Nieplocha,
                        E. Apra, T.L. Windus, W.A. de Jong
                 "NWChem: a comprehensive and scalable open-source
                  solution for large scale molecular simulations"
                      Comput. Phys. Commun. 181, 1477 (2010)
                           doi:10.1016/j.cpc.2010.04.018

                                      AUTHORS
                                      -------
          E. Apra, E. J. Bylaska, W. A. de Jong, N. Govind, K. Kowalski,
       T. P. Straatsma, M. Valiev, H. J. J. van Dam, D. Wang, T. L. Windus,
        J. Hammond, J. Autschbach, K. Bhaskaran-Nair, J. Brabec, K. Lopata,
    S. A. Fischer, S. Krishnamoorthy, M. Jacquelin, W. Ma, M. Klemm, O. Villa,
      Y. Chen, V. Anisimov, F. Aquino, S. Hirata, M. T. Hackler, V. Konjkov,
            D. Mejia-Rodriguez, T. Risthaus, M. Malagoli, A. Marenich,
   A. Otero-de-la-Roza, J. Mullin, P. Nichols, R. Peverati, J. Pittner, Y. Zhao,
        P.-D. Fan, A. Fonari, M. J. Williamson, R. J. Harrison, J. R. Rehr,
      M. Dupuis, D. Silverstein, D. M. A. Smith, J. Nieplocha, V. Tipparaju,
    M. Krishnan, B. E. Van Kuiken, A. Vazquez-Mayagoitia, L. Jensen, M. Swart,
      Q. Wu, T. Van Voorhis, A. A. Auer, M. Nooijen, L. D. Crosby, E. Brown,
      G. Cisneros, G. I. Fann, H. Fruchtl, J. Garza, K. Hirao, R. A. Kendall,
      J. A. Nichols, K. Tsemekhman, K. Wolinski, J. Anchell, D. E. Bernholdt,
      P. Borowski, T. Clark, D. Clerc, H. Dachsel, M. J. O. Deegan, K. Dyall,
    D. Elwood, E. Glendening, M. Gutowski, A. C. Hess, J. Jaffe, B. G. Johnson,
     J. Ju, R. Kobayashi, R. Kutteh, Z. Lin, R. Littlefield, X. Long, B. Meng,
      T. Nakajima, S. Niu, L. Pollack, M. Rosing, K. Glaesemann, G. Sandrone,
      M. Stave, H. Taylor, G. Thomas, J. H. van Lenthe, A. T. Wong, Z. Zhang.

 Total times  cpu:       10.9s     wall:       10.9s
