 argument  1 = /home/list1234/source/nwchem-6.8.1-release/QA/tests/disp_dimer_ch4_cgmin/disp_dimer_ch4_cgmin.nw



============================== echo of input deck ==============================
echo
# calculation for methane dimer Grimme JCC 2004
# with BLYP/TZVP2P

title "ch4_2"


start ch4_2

geometry units angstroms noautoz
 C 0.00000000 0.00000000 1.78977169
 H 0.00000000 0.00000000 2.88489619
 H -0.72912121 0.72912121 1.42221856
 H -0.26687689 -0.99599810 1.42221856
 H 0.99599810 0.26687689 1.42221856
 C 0.00000000 0.00000000 -1.78977169
 H -0.99599810 -0.26687689 -1.42221856
 H 0.00000000 0.00000000 -2.88489619
 H 0.72912121 -0.72912121 -1.42221856
 H 0.26687689 0.99599810 -1.42221856
end


basis "ao basis" spherical noprint
  * library cc-pvdz
end

dft
 cgmin
 xc  becke88 1. lyp 1.
 vectors output ch4_2.movecs
 direct
 disp vdw 1
end
task dft optimize

dft
 cgmin
 disp vdw 3
end
task dft energy
================================================================================


                                         
                                         


              Northwest Computational Chemistry Package (NWChem) 6.8
              ------------------------------------------------------


                    Environmental Molecular Sciences Laboratory
                       Pacific Northwest National Laboratory
                                Richland, WA 99352

                              Copyright (c) 1994-2018
                       Pacific Northwest National Laboratory
                            Battelle Memorial Institute

             NWChem is an open-source computational chemistry package
                        distributed under the terms of the
                      Educational Community License (ECL) 2.0
             A copy of the license is included with this distribution
                              in the LICENSE.TXT file

                                  ACKNOWLEDGMENT
                                  --------------

            This software and its documentation were developed at the
            EMSL at Pacific Northwest National Laboratory, a multiprogram
            national laboratory, operated for the U.S. Department of Energy
            by Battelle under Contract Number DE-AC05-76RL01830. Support
            for this work was provided by the Department of Energy Office
            of Biological and Environmental Research, Office of Basic
            Energy Sciences, and the Office of Advanced Scientific Computing.


           Job information
           ---------------

    hostname        = list1234-B360M-H
    program         = /home/list1234/source/nwchem-6.8.1-release/bin/LINUX64/nwchem
    date            = Sun Jun 30 05:46:31 2019

    compiled        = Sun_Jun_30_05:21:11_2019
    source          = /home/list1234/source/nwchem-6.8.1-release
    nwchem branch   = Development
    nwchem revision = N/A
    ga revision     = 5.6.5
    use scalapack   = T
    input           = /home/list1234/source/nwchem-6.8.1-release/QA/tests/disp_dimer_ch4_cgmin/disp_dimer_ch4_cgmin.nw
    prefix          = ch4_2.
    data base       = ./ch4_2.db
    status          = startup
    nproc           =        4
    time left       =     -1s



           Memory information
           ------------------

    heap     =   86247168 doubles =    658.0 Mbytes
    stack    =   86247165 doubles =    658.0 Mbytes
    global   =  172494336 doubles =   1316.0 Mbytes (distinct from heap & stack)
    total    =  344988669 doubles =   2632.1 Mbytes
    verify   = yes
    hardfail = no 


           Directory information
           ---------------------

  0 permanent = .
  0 scratch   = .




                                NWChem Input Module
                                -------------------


                                       ch4_2
                                       -----

 Scaling coordinates for geometry "geometry" by  1.889725989
 (inverse scale =  0.529177249)

 D3D symmetry detected


                             Geometry "geometry" -> ""
                             -------------------------

 Output coordinates in angstroms (scale by  1.889725989 to convert to a.u.)

  No.       Tag          Charge          X              Y              Z
 ---- ---------------- ---------- -------------- -------------- --------------
    1 C                    6.0000    -0.00000000     0.00000000     1.78977169
    2 H                    1.0000     0.00000000    -0.00000000     2.88489619
    3 H                    1.0000    -0.72912121     0.72912121     1.42221856
    4 H                    1.0000    -0.26687689    -0.99599810     1.42221856
    5 H                    1.0000     0.99599810     0.26687689     1.42221856
    6 C                    6.0000     0.00000000     0.00000000    -1.78977169
    7 H                    1.0000    -0.99599810    -0.26687689    -1.42221856
    8 H                    1.0000    -0.00000000     0.00000000    -2.88489619
    9 H                    1.0000     0.72912121    -0.72912121    -1.42221856
   10 H                    1.0000     0.26687689     0.99599810    -1.42221856

      Atomic Mass 
      ----------- 

      C                 12.000000
      H                  1.007825


 Effective nuclear repulsion energy (a.u.)      41.3906222755

            Nuclear Dipole moment (a.u.) 
            ----------------------------
        X                 Y               Z
 ---------------- ---------------- ----------------
    -0.0000000000    -0.0000000000    -0.0000000000

      Symmetry information
      --------------------

 Group name             D3d       
 Group number             33
 Group order              12
 No. of unique centers     3

      Symmetry unique atoms

     1    2    3


            XYZ format geometry
            -------------------
    10
 geometry
 C                    -0.00000000     0.00000000     1.78977169
 H                     0.00000000    -0.00000000     2.88489619
 H                    -0.72912121     0.72912121     1.42221856
 H                    -0.26687689    -0.99599810     1.42221856
 H                     0.99599810     0.26687689     1.42221856
 C                     0.00000000     0.00000000    -1.78977169
 H                    -0.99599810    -0.26687689    -1.42221856
 H                    -0.00000000     0.00000000    -2.88489619
 H                     0.72912121    -0.72912121    -1.42221856
 H                     0.26687689     0.99599810    -1.42221856

 ==============================================================================
                                internuclear distances
 ------------------------------------------------------------------------------
       center one      |      center two      | atomic units |  angstroms
 ------------------------------------------------------------------------------
    2 H                |   1 C                |     2.06949  |     1.09512
    3 H                |   1 C                |     2.06865  |     1.09468
    4 H                |   1 C                |     2.06865  |     1.09468
    5 H                |   1 C                |     2.06865  |     1.09468
    7 H                |   6 C                |     2.06865  |     1.09468
    8 H                |   6 C                |     2.06949  |     1.09512
    9 H                |   6 C                |     2.06865  |     1.09468
   10 H                |   6 C                |     2.06865  |     1.09468
 ------------------------------------------------------------------------------
                         number of included internuclear distances:          8
 ==============================================================================



 ==============================================================================
                                 internuclear angles
 ------------------------------------------------------------------------------
        center 1       |       center 2       |       center 3       |  degrees
 ------------------------------------------------------------------------------
    2 H                |   1 C                |   3 H                |   109.62
    2 H                |   1 C                |   4 H                |   109.62
    2 H                |   1 C                |   5 H                |   109.62
    3 H                |   1 C                |   4 H                |   109.32
    3 H                |   1 C                |   5 H                |   109.32
    4 H                |   1 C                |   5 H                |   109.32
    7 H                |   6 C                |   8 H                |   109.62
    7 H                |   6 C                |   9 H                |   109.32
    7 H                |   6 C                |  10 H                |   109.32
    8 H                |   6 C                |   9 H                |   109.62
    8 H                |   6 C                |  10 H                |   109.62
    9 H                |   6 C                |  10 H                |   109.32
 ------------------------------------------------------------------------------
                            number of included internuclear angles:         12
 ==============================================================================





                           NWChem Geometry Optimization
                           ----------------------------




                                       ch4_2


 maximum gradient threshold         (gmax) =   0.000450
 rms gradient threshold             (grms) =   0.000300
 maximum cartesian step threshold   (xmax) =   0.001800
 rms cartesian step threshold       (xrms) =   0.001200
 fixed trust radius                (trust) =   0.300000
 maximum step size to saddle      (sadstp) =   0.100000
 energy precision                  (eprec) =   5.0D-06
 maximum number of steps          (nptopt) =   20
 initial hessian option           (inhess) =    0
 line search option               (linopt) =    1
 hessian update option            (modupd) =    1
 saddle point option              (modsad) =    0
 initial eigen-mode to follow     (moddir) =    0
 initial variable to follow       (vardir) =    0
 follow first negative mode     (firstneg) =    T
 apply conjugacy                    (opcg) =    F
 source of zmatrix                         =           


          -------------------
          Energy Minimization
          -------------------


 Using diagonal initial Hessian 

          --------
          Step   0
          --------


                         Geometry "geometry" -> "geometry"
                         ---------------------------------

 Output coordinates in angstroms (scale by  1.889725989 to convert to a.u.)

  No.       Tag          Charge          X              Y              Z
 ---- ---------------- ---------- -------------- -------------- --------------
    1 C                    6.0000    -0.00000000     0.00000000     1.78977169
    2 H                    1.0000     0.00000000    -0.00000000     2.88489619
    3 H                    1.0000    -0.72912121     0.72912121     1.42221856
    4 H                    1.0000    -0.26687689    -0.99599810     1.42221856
    5 H                    1.0000     0.99599810     0.26687689     1.42221856
    6 C                    6.0000     0.00000000     0.00000000    -1.78977169
    7 H                    1.0000    -0.99599810    -0.26687689    -1.42221856
    8 H                    1.0000    -0.00000000     0.00000000    -2.88489619
    9 H                    1.0000     0.72912121    -0.72912121    -1.42221856
   10 H                    1.0000     0.26687689     0.99599810    -1.42221856

      Atomic Mass 
      ----------- 

      C                 12.000000
      H                  1.007825


 Effective nuclear repulsion energy (a.u.)      41.3906222755

            Nuclear Dipole moment (a.u.) 
            ----------------------------
        X                 Y               Z
 ---------------- ---------------- ----------------
    -0.0000000000    -0.0000000000    -0.0000000000

      Symmetry information
      --------------------

 Group name             D3d       
 Group number             33
 Group order              12
 No. of unique centers     3

      Symmetry unique atoms

     1    2    3


                                 NWChem DFT Module
                                 -----------------


                                       ch4_2




 Summary of "ao basis" -> "ao basis" (spherical)
 ------------------------------------------------------------------------------
       Tag                 Description            Shells   Functions and Types
 ---------------- ------------------------------  ------  ---------------------
 C                          cc-pvdz                  6       14   3s2p1d
 H                          cc-pvdz                  3        5   2s1p


      Symmetry analysis of basis
      --------------------------

        a1g        13
        a1u         1
        a2g         1
        a2u        13
        eg         20
        eu         20

  Caching 1-el integrals 
  Rotation of axis 

            General Information
            -------------------
          SCF calculation type: DFT
          Wavefunction type:  closed shell.
          No. of atoms     :    10
          No. of electrons :    20
           Alpha electrons :    10
            Beta electrons :    10
          Charge           :     0
          Spin multiplicity:     1
          Use of symmetry is: on ; symmetry adaption is: on 
          Maximum number of iterations:  30
          This is a Direct SCF calculation.
          AO basis - number of functions:    68
                     number of shells:    36
          Convergence on energy requested:  1.00D-06
          Convergence on density requested:  1.00D-05
          Convergence on gradient requested:  5.00D-04

              XC Information
              --------------
                    Becke 1988 Exchange Functional  1.000          
              Lee-Yang-Parr Correlation Functional  1.000          

             Grid Information
             ----------------
          Grid used for XC integration:  medium    
          Radial quadrature: Mura-Knowles        
          Angular quadrature: Lebedev. 
          Tag              B.-S. Rad. Rad. Pts. Rad. Cut. Ang. Pts.
          ---              ---------- --------- --------- ---------
          C                   0.70       49          12.0       434
          H                   0.35       45          13.0       434
          Grid pruning is: on 
          Number of quadrature shells:   139
          Spatial weights used:  Erf1

          Convergence Information
          -----------------------
          Convergence aids based upon iterative change in 
          total energy or number of iterations. 
          Levelshifting, if invoked, occurs when the 
          HOMO/LUMO gap drops below (HL_TOL):  1.00D-02
          DIIS, if invoked, will attempt to extrapolate 
          using up to (NFOCK): 10 stored Fock matrices.

                    Damping( 0%)  Levelshifting(0.5)       DIIS
                  --------------- ------------------- ---------------
          dE  on:    start            ASAP                start   
          dE off:    2 iters         30 iters            30 iters 


      Screening Tolerance Information
      -------------------------------
          Density screening/tol_rho:  1.00D-10
          AO Gaussian exp screening on grid/accAOfunc:  14
          CD Gaussian exp screening on grid/accCDfunc:  20
          XC Gaussian exp screening on grid/accXCfunc:  20
          Schwarz screening/accCoul:  1.00D-08

      Dispersion Parameters
      ---------------------

          s6 scale factor :        1.400000000000
              vdW contrib :       -0.002536153039


      Superposition of Atomic Density Guess
      -------------------------------------

 Sum of atomic energies:         -79.32652423

      Non-variational initial energy
      ------------------------------

 Total energy =     -80.473601
 1-e energy   =    -185.628888
 2-e energy   =      63.764664
 HOMO         =      -0.501503
 LUMO         =       0.085311


      Symmetry analysis of molecular orbitals - initial
      -------------------------------------------------

  Numbering of irreducible representations: 

     1 a1g         2 a1u         3 a2g         4 a2u         5 eg      
     6 eu      

  Orbital symmetries:

     1 a1g         2 a2u         3 a1g         4 a2u         5 a1g     
     6 eu          7 eu          8 eg          9 eg         10 a2u     
    11 a1g        12 a2u        13 eu         14 eu         15 a1g     
    16 a2u        17 eg         18 eg         19 a1g        20 eu      



 ----------------------------------------------
         Quadratically convergent ROKS

 Convergence threshold     :          5.000E-04
 Maximum no. of iterations :           30
 Final Fock-matrix accuracy:          1.000E-08
 ----------------------------------------------


 Grid_pts file          = ./ch4_2.gridpts.0
 Record size in doubles =  12289        No. of grid_pts per rec  =   3070
 Max. records in memory =      7        Max. recs in file   = 253312716


              iter       energy          gnorm     gmax       time
             ----- ------------------- --------- --------- --------
                 1      -80.9310296786  6.39D-01  1.96D-01      0.3
                 2      -80.9507547606  1.84D-01  4.11D-02      0.4
                 3      -80.9527197344  1.91D-03  6.10D-04      0.7
                 4      -80.9527200784  3.66D-05  9.15D-06      1.0


         Total DFT energy =      -80.952720078388
      One electron energy =     -188.690718723745
           Coulomb energy =       80.063339608066
    Exchange-Corr. energy =      -13.715963238184
 Nuclear repulsion energy =       41.390622275475

    Dispersion correction =       -0.002536153039

 Numeric. integr. density =       19.999991144183

     Total iterative time =      0.9s



                       DFT Final Molecular Orbital Analysis
                       ------------------------------------

 Vector    1  Occ=2.000000D+00  E=-9.908087D+00  Symmetry=a2u
              MO Center=  7.2D-19, -1.7D-18,  2.9D-16, r^2= 3.2D+00
   Bfn.  Coefficient  Atom+Function         Bfn.  Coefficient  Atom+Function  
  ----- ------------  ---------------      ----- ------------  ---------------
     1      0.712683   1 C  s                35     -0.712683   6 C  s         

 Vector    2  Occ=2.000000D+00  E=-9.908081D+00  Symmetry=a1g
              MO Center=  5.0D-19, -2.8D-18, -4.1D-16, r^2= 3.2D+00
   Bfn.  Coefficient  Atom+Function         Bfn.  Coefficient  Atom+Function  
  ----- ------------  ---------------      ----- ------------  ---------------
     1      0.712570   1 C  s                35      0.712570   6 C  s         

 Vector    3  Occ=2.000000D+00  E=-6.172524D-01  Symmetry=a1g
              MO Center= -1.1D-17, -1.9D-17, -9.1D-17, r^2= 4.1D+00
   Bfn.  Coefficient  Atom+Function         Bfn.  Coefficient  Atom+Function  
  ----- ------------  ---------------      ----- ------------  ---------------
     2      0.268604   1 C  s                36      0.268604   6 C  s         

 Vector    4  Occ=2.000000D+00  E=-6.120463D-01  Symmetry=a2u
              MO Center=  1.4D-16,  3.3D-17,  5.6D-16, r^2= 4.3D+00
   Bfn.  Coefficient  Atom+Function         Bfn.  Coefficient  Atom+Function  
  ----- ------------  ---------------      ----- ------------  ---------------
     2      0.272718   1 C  s                36     -0.272718   6 C  s         
     3      0.153443   1 C  s                37     -0.153443   6 C  s         

 Vector    5  Occ=2.000000D+00  E=-3.433536D-01  Symmetry=a1g
              MO Center=  2.5D-16,  8.4D-17, -1.2D-16, r^2= 5.8D+00
   Bfn.  Coefficient  Atom+Function         Bfn.  Coefficient  Atom+Function  
  ----- ------------  ---------------      ----- ------------  ---------------
     6      0.307692   1 C  pz               40     -0.307692   6 C  pz        
    15      0.269169   2 H  s                54      0.269169   8 H  s         

 Vector    6  Occ=2.000000D+00  E=-3.394601D-01  Symmetry=eu
              MO Center= -9.9D-18,  5.7D-17, -1.3D-17, r^2= 3.9D+00
   Bfn.  Coefficient  Atom+Function         Bfn.  Coefficient  Atom+Function  
  ----- ------------  ---------------      ----- ------------  ---------------
     5      0.283124   1 C  py               39      0.283124   6 C  py        
    25     -0.252448   4 H  s                64      0.252448  10 H  s         
    30      0.159856   5 H  s                49     -0.159856   7 H  s         

 Vector    7  Occ=2.000000D+00  E=-3.394601D-01  Symmetry=eu
              MO Center= -6.7D-15, -1.3D-14, -8.5D-14, r^2= 3.9D+00
   Bfn.  Coefficient  Atom+Function         Bfn.  Coefficient  Atom+Function  
  ----- ------------  ---------------      ----- ------------  ---------------
     4      0.283124   1 C  px               38      0.283124   6 C  px        
    20     -0.238044   3 H  s                59      0.238044   9 H  s         
    30      0.199209   5 H  s                49     -0.199209   7 H  s         

 Vector    8  Occ=2.000000D+00  E=-3.330039D-01  Symmetry=eg
              MO Center= -2.7D-15,  3.9D-15,  3.5D-14, r^2= 3.9D+00
   Bfn.  Coefficient  Atom+Function         Bfn.  Coefficient  Atom+Function  
  ----- ------------  ---------------      ----- ------------  ---------------
     5      0.266250   1 C  py               39     -0.266250   6 C  py        
    20      0.253692   3 H  s                59      0.253692   9 H  s         
    25     -0.173802   4 H  s                64     -0.173802  10 H  s         
     4     -0.172483   1 C  px               38      0.172483   6 C  px        

 Vector    9  Occ=2.000000D+00  E=-3.330039D-01  Symmetry=eg
              MO Center=  1.1D-14,  8.2D-15,  5.0D-14, r^2= 3.9D+00
   Bfn.  Coefficient  Atom+Function         Bfn.  Coefficient  Atom+Function  
  ----- ------------  ---------------      ----- ------------  ---------------
     4      0.266250   1 C  px               38     -0.266250   6 C  px        
    30      0.246814   5 H  s                49      0.246814   7 H  s         
    25     -0.192594   4 H  s                64     -0.192594  10 H  s         
     5      0.172483   1 C  py               39     -0.172483   6 C  py        

 Vector   10  Occ=2.000000D+00  E=-3.301221D-01  Symmetry=a2u
              MO Center= -4.3D-16,  4.2D-16,  4.5D-16, r^2= 5.9D+00
   Bfn.  Coefficient  Atom+Function         Bfn.  Coefficient  Atom+Function  
  ----- ------------  ---------------      ----- ------------  ---------------
     6      0.319443   1 C  pz               40      0.319443   6 C  pz        
    15      0.279385   2 H  s                54     -0.279385   8 H  s         

 Vector   11  Occ=0.000000D+00  E= 3.612202D-02  Symmetry=a1g
              MO Center= -8.6D-16, -4.4D-16, -1.4D-17, r^2= 6.7D+00
   Bfn.  Coefficient  Atom+Function         Bfn.  Coefficient  Atom+Function  
  ----- ------------  ---------------      ----- ------------  ---------------
     3      1.390362   1 C  s                37      1.390362   6 C  s         
    21     -0.526909   3 H  s                26     -0.526909   4 H  s         
    31     -0.526909   5 H  s                50     -0.526909   7 H  s         
    60     -0.526909   9 H  s                65     -0.526909  10 H  s         
    16     -0.442329   2 H  s                55     -0.442329   8 H  s         

 Vector   12  Occ=0.000000D+00  E= 8.481621D-02  Symmetry=a2u
              MO Center= -3.4D-17, -1.2D-16, -4.0D-15, r^2= 9.7D+00
   Bfn.  Coefficient  Atom+Function         Bfn.  Coefficient  Atom+Function  
  ----- ------------  ---------------      ----- ------------  ---------------
     3      1.577831   1 C  s                37     -1.577831   6 C  s         
    16     -0.847769   2 H  s                55      0.847769   8 H  s         
    21     -0.512363   3 H  s                26     -0.512363   4 H  s         
    31     -0.512363   5 H  s                50      0.512363   7 H  s         
    60      0.512363   9 H  s                65      0.512363  10 H  s         

 Vector   13  Occ=0.000000D+00  E= 1.082201D-01  Symmetry=eu
              MO Center=  4.9D-14,  6.8D-14,  1.9D-14, r^2= 5.5D+00
   Bfn.  Coefficient  Atom+Function         Bfn.  Coefficient  Atom+Function  
  ----- ------------  ---------------      ----- ------------  ---------------
    26      1.245677   4 H  s                65     -1.245677  10 H  s         
     8      0.744227   1 C  py               31     -0.747356   5 H  s         
    42      0.744227   6 C  py               50      0.747356   7 H  s         
    21     -0.498321   3 H  s                60      0.498321   9 H  s         
     7      0.294422   1 C  px               41      0.294422   6 C  px        

 Vector   14  Occ=0.000000D+00  E= 1.082201D-01  Symmetry=eu
              MO Center=  8.3D-14, -1.3D-14,  3.5D-14, r^2= 5.5D+00
   Bfn.  Coefficient  Atom+Function         Bfn.  Coefficient  Atom+Function  
  ----- ------------  ---------------      ----- ------------  ---------------
    21      1.150678   3 H  s                60     -1.150678   9 H  s         
    31     -1.006897   5 H  s                50      1.006897   7 H  s         
     7      0.744227   1 C  px               41      0.744227   6 C  px        
     8     -0.294422   1 C  py               42     -0.294422   6 C  py        
     4      0.275259   1 C  px               38      0.275259   6 C  px        

 Vector   15  Occ=0.000000D+00  E= 1.134841D-01  Symmetry=a1g
              MO Center= -1.1D-13, -4.9D-14,  1.6D-15, r^2= 1.0D+01
   Bfn.  Coefficient  Atom+Function         Bfn.  Coefficient  Atom+Function  
  ----- ------------  ---------------      ----- ------------  ---------------
    16      1.429230   2 H  s                55      1.429230   8 H  s         
     9     -0.892300   1 C  pz               43      0.892300   6 C  pz        
    21     -0.432612   3 H  s                26     -0.432612   4 H  s         
    31     -0.432612   5 H  s                50     -0.432612   7 H  s         
    60     -0.432612   9 H  s                65     -0.432612  10 H  s         

 Vector   16  Occ=0.000000D+00  E= 1.324350D-01  Symmetry=a2u
              MO Center= -4.8D-16,  9.8D-16,  4.1D-15, r^2= 9.3D+00
   Bfn.  Coefficient  Atom+Function         Bfn.  Coefficient  Atom+Function  
  ----- ------------  ---------------      ----- ------------  ---------------
    16      1.283359   2 H  s                55     -1.283359   8 H  s         
     9     -0.858925   1 C  pz               43     -0.858925   6 C  pz        
    21     -0.602925   3 H  s                26     -0.602925   4 H  s         
    31     -0.602925   5 H  s                50      0.602925   7 H  s         
    60      0.602925   9 H  s                65      0.602925  10 H  s         

 Vector   17  Occ=0.000000D+00  E= 1.387954D-01  Symmetry=eg
              MO Center= -2.9D-15,  4.4D-15, -4.2D-15, r^2= 5.9D+00
   Bfn.  Coefficient  Atom+Function         Bfn.  Coefficient  Atom+Function  
  ----- ------------  ---------------      ----- ------------  ---------------
    26      1.395487   4 H  s                65      1.395487  10 H  s         
     8      0.948725   1 C  py               42     -0.948725   6 C  py        
    21     -0.914751   3 H  s                60     -0.914751   9 H  s         
    31     -0.480736   5 H  s                50     -0.480736   7 H  s         
     5      0.268492   1 C  py               39     -0.268492   6 C  py        

 Vector   18  Occ=0.000000D+00  E= 1.387954D-01  Symmetry=eg
              MO Center= -2.4D-14, -1.1D-14, -4.9D-14, r^2= 5.9D+00
   Bfn.  Coefficient  Atom+Function         Bfn.  Coefficient  Atom+Function  
  ----- ------------  ---------------      ----- ------------  ---------------
    31      1.333817   5 H  s                50      1.333817   7 H  s         
    21     -1.083238   3 H  s                60     -1.083238   9 H  s         
     7     -0.948725   1 C  px               41      0.948725   6 C  px        
     4     -0.268492   1 C  px               38      0.268492   6 C  px        
    26     -0.250579   4 H  s                65     -0.250579  10 H  s         

 Vector   19  Occ=0.000000D+00  E= 3.139242D-01  Symmetry=a1g
              MO Center=  1.5D-15,  7.8D-16, -2.5D-16, r^2= 5.2D+00
   Bfn.  Coefficient  Atom+Function         Bfn.  Coefficient  Atom+Function  
  ----- ------------  ---------------      ----- ------------  ---------------
     9      0.735658   1 C  pz               43     -0.735658   6 C  pz        
    15     -0.493700   2 H  s                54     -0.493700   8 H  s         
     3     -0.306131   1 C  s                37     -0.306131   6 C  s         
     6     -0.263680   1 C  pz               40      0.263680   6 C  pz        
    20      0.207179   3 H  s                25      0.207179   4 H  s         

 Vector   20  Occ=0.000000D+00  E= 3.760551D-01  Symmetry=eu
              MO Center=  1.8D-15, -3.0D-15, -1.4D-13, r^2= 5.6D+00
   Bfn.  Coefficient  Atom+Function         Bfn.  Coefficient  Atom+Function  
  ----- ------------  ---------------      ----- ------------  ---------------
     8      0.766850   1 C  py               42      0.766850   6 C  py        
    25      0.569315   4 H  s                64     -0.569315  10 H  s         
    20     -0.299124   3 H  s                59      0.299124   9 H  s         
    30     -0.270191   5 H  s                49      0.270191   7 H  s         
     7      0.181549   1 C  px               41      0.181549   6 C  px        

 Vector   21  Occ=0.000000D+00  E= 3.760551D-01  Symmetry=eu
              MO Center=  4.4D-15, -1.8D-15,  9.7D-15, r^2= 5.6D+00
   Bfn.  Coefficient  Atom+Function         Bfn.  Coefficient  Atom+Function  
  ----- ------------  ---------------      ----- ------------  ---------------
     7      0.766850   1 C  px               41      0.766850   6 C  px        
    30     -0.501394   5 H  s                49      0.501394   7 H  s         
    20      0.484689   3 H  s                59     -0.484689   9 H  s         
     8     -0.181549   1 C  py               42     -0.181549   6 C  py        
     4     -0.153441   1 C  px               38     -0.153441   6 C  px        

 Vector   22  Occ=0.000000D+00  E= 3.956518D-01  Symmetry=eg
              MO Center= -1.9D-15,  7.9D-15,  1.4D-13, r^2= 6.2D+00
   Bfn.  Coefficient  Atom+Function         Bfn.  Coefficient  Atom+Function  
  ----- ------------  ---------------      ----- ------------  ---------------
     8      0.557247   1 C  py               42     -0.557247   6 C  py        
     7      0.522998   1 C  px               41     -0.522998   6 C  px        
    25      0.460476   4 H  s                64      0.460476  10 H  s         
    30     -0.443921   5 H  s                49     -0.443921   7 H  s         
     5     -0.203866   1 C  py               39      0.203866   6 C  py        

 Vector   23  Occ=0.000000D+00  E= 3.956518D-01  Symmetry=eg
              MO Center=  1.5D-15,  1.2D-15, -6.5D-15, r^2= 6.2D+00
   Bfn.  Coefficient  Atom+Function         Bfn.  Coefficient  Atom+Function  
  ----- ------------  ---------------      ----- ------------  ---------------
     7      0.557247   1 C  px               41     -0.557247   6 C  px        
     8     -0.522998   1 C  py               20      0.522154   3 H  s         
    42      0.522998   6 C  py               59      0.522154   9 H  s         
    30     -0.275414   5 H  s                49     -0.275414   7 H  s         
    25     -0.246740   4 H  s                64     -0.246740  10 H  s         

 Vector   24  Occ=0.000000D+00  E= 5.110091D-01  Symmetry=a2u
              MO Center= -5.1D-17,  4.1D-16, -7.9D-15, r^2= 7.7D+00
   Bfn.  Coefficient  Atom+Function         Bfn.  Coefficient  Atom+Function  
  ----- ------------  ---------------      ----- ------------  ---------------
    15      0.759483   2 H  s                54     -0.759483   8 H  s         
    16     -0.669611   2 H  s                55      0.669611   8 H  s         
    21      0.224727   3 H  s                26      0.224727   4 H  s         
    31      0.224727   5 H  s                50     -0.224727   7 H  s         
    60     -0.224727   9 H  s                65     -0.224727  10 H  s         

 Vector   25  Occ=0.000000D+00  E= 5.915400D-01  Symmetry=a1g
              MO Center= -4.1D-16,  1.5D-16,  2.3D-15, r^2= 7.4D+00
   Bfn.  Coefficient  Atom+Function         Bfn.  Coefficient  Atom+Function  
  ----- ------------  ---------------      ----- ------------  ---------------
    16      1.296367   2 H  s                55      1.296367   8 H  s         
     9     -1.101887   1 C  pz               43      1.101887   6 C  pz        
     6      0.583978   1 C  pz               40     -0.583978   6 C  pz        
    21     -0.472302   3 H  s                26     -0.472302   4 H  s         
    31     -0.472302   5 H  s                50     -0.472302   7 H  s         

 Vector   26  Occ=0.000000D+00  E= 6.078494D-01  Symmetry=eg
              MO Center=  7.4D-14,  8.9D-14, -2.9D-13, r^2= 5.3D+00
   Bfn.  Coefficient  Atom+Function         Bfn.  Coefficient  Atom+Function  
  ----- ------------  ---------------      ----- ------------  ---------------
    21      1.417615   3 H  s                60      1.417615   9 H  s         
     8     -1.059758   1 C  py               42      1.059758   6 C  py        
    26     -0.986259   4 H  s                65     -0.986259  10 H  s         
     7      0.669055   1 C  px               41     -0.669055   6 C  px        
     5      0.493210   1 C  py               39     -0.493210   6 C  py        

 Vector   27  Occ=0.000000D+00  E= 6.078494D-01  Symmetry=eg
              MO Center= -1.5D-15, -8.2D-17,  7.5D-16, r^2= 5.3D+00
   Bfn.  Coefficient  Atom+Function         Bfn.  Coefficient  Atom+Function  
  ----- ------------  ---------------      ----- ------------  ---------------
    31      1.387878   5 H  s                50      1.387878   7 H  s         
    26     -1.067504   4 H  s                65     -1.067504  10 H  s         
     7     -1.059758   1 C  px               41      1.059758   6 C  px        
     8     -0.669055   1 C  py               42      0.669055   6 C  py        
     4      0.493210   1 C  px               38     -0.493210   6 C  px        

 Vector   28  Occ=0.000000D+00  E= 6.131225D-01  Symmetry=eu
              MO Center= -8.6D-14, -6.8D-15,  4.0D-13, r^2= 5.4D+00
   Bfn.  Coefficient  Atom+Function         Bfn.  Coefficient  Atom+Function  
  ----- ------------  ---------------      ----- ------------  ---------------
     8      1.280563   1 C  py               42      1.280563   6 C  py        
    26      1.098872   4 H  s                65     -1.098872  10 H  s         
    21     -1.087840   3 H  s                60      1.087840   9 H  s         
     5     -0.609569   1 C  py               39     -0.609569   6 C  py        
     7     -0.331160   1 C  px               41     -0.331160   6 C  px        

 Vector   29  Occ=0.000000D+00  E= 6.131225D-01  Symmetry=eu
              MO Center= -1.7D-15, -7.7D-14, -1.2D-13, r^2= 5.4D+00
   Bfn.  Coefficient  Atom+Function         Bfn.  Coefficient  Atom+Function  
  ----- ------------  ---------------      ----- ------------  ---------------
     7      1.280563   1 C  px               41      1.280563   6 C  px        
    31     -1.262499   5 H  s                50      1.262499   7 H  s         
    21      0.640804   3 H  s                60     -0.640804   9 H  s         
    26      0.621695   4 H  s                65     -0.621695  10 H  s         
     4     -0.609569   1 C  px               38     -0.609569   6 C  px        

 Vector   30  Occ=0.000000D+00  E= 6.312090D-01  Symmetry=a2u
              MO Center=  7.1D-15, -1.3D-14, -6.3D-16, r^2= 5.6D+00
   Bfn.  Coefficient  Atom+Function         Bfn.  Coefficient  Atom+Function  
  ----- ------------  ---------------      ----- ------------  ---------------
     9      1.122718   1 C  pz               43      1.122718   6 C  pz        
    16     -0.995922   2 H  s                55      0.995922   8 H  s         
    21      0.600608   3 H  s                26      0.600608   4 H  s         
    31      0.600608   5 H  s                50     -0.600608   7 H  s         
    60     -0.600608   9 H  s                65     -0.600608  10 H  s         

 Vector   31  Occ=0.000000D+00  E= 6.379260D-01  Symmetry=a1g
              MO Center= -2.1D-15,  2.1D-15,  3.5D-15, r^2= 5.7D+00
   Bfn.  Coefficient  Atom+Function         Bfn.  Coefficient  Atom+Function  
  ----- ------------  ---------------      ----- ------------  ---------------
     3      0.574407   1 C  s                37      0.574407   6 C  s         
     2     -0.486478   1 C  s                36     -0.486478   6 C  s         
    15      0.479335   2 H  s                54      0.479335   8 H  s         
    20      0.418445   3 H  s                25      0.418445   4 H  s         
    30      0.418445   5 H  s                49      0.418445   7 H  s         

 Vector   32  Occ=0.000000D+00  E= 7.432965D-01  Symmetry=a2u
              MO Center=  7.3D-16, -1.0D-15, -5.2D-16, r^2= 6.6D+00
   Bfn.  Coefficient  Atom+Function         Bfn.  Coefficient  Atom+Function  
  ----- ------------  ---------------      ----- ------------  ---------------
     3      1.305594   1 C  s                37     -1.305594   6 C  s         
     9      1.218064   1 C  pz               43      1.218064   6 C  pz        
    16     -1.114846   2 H  s                55      1.114846   8 H  s         
     2     -0.515949   1 C  s                36      0.515949   6 C  s         
     6     -0.455031   1 C  pz               40     -0.455031   6 C  pz        

 Vector   33  Occ=0.000000D+00  E= 8.640066D-01  Symmetry=eu
              MO Center= -1.1D-14, -1.0D-14, -1.5D-12, r^2= 4.4D+00
   Bfn.  Coefficient  Atom+Function         Bfn.  Coefficient  Atom+Function  
  ----- ------------  ---------------      ----- ------------  ---------------
    11      0.323426   1 C  d -1             45     -0.323426   6 C  d -1      
    18      0.189138   2 H  py               57      0.189138   8 H  py        
    26     -0.174225   4 H  s                65      0.174225  10 H  s         
    33     -0.169473   5 H  py               52     -0.169473   7 H  py        
    29     -0.168534   4 H  pz               68     -0.168534  10 H  pz        

 Vector   34  Occ=0.000000D+00  E= 8.640066D-01  Symmetry=eu
              MO Center=  1.2D-14,  6.0D-15, -1.1D-12, r^2= 4.4D+00
   Bfn.  Coefficient  Atom+Function         Bfn.  Coefficient  Atom+Function  
  ----- ------------  ---------------      ----- ------------  ---------------
    13      0.323426   1 C  d  1             47     -0.323426   6 C  d  1      
    17     -0.189138   2 H  px               56     -0.189138   8 H  px        
    31     -0.178974   5 H  s                50      0.178974   7 H  s         
    34     -0.173128   5 H  pz               53     -0.173128   7 H  pz        
    27      0.163507   4 H  px               66      0.163507  10 H  px        

 Vector   35  Occ=0.000000D+00  E= 8.676797D-01  Symmetry=eg
              MO Center=  8.6D-15, -4.6D-15,  1.0D-12, r^2= 4.5D+00
   Bfn.  Coefficient  Atom+Function         Bfn.  Coefficient  Atom+Function  
  ----- ------------  ---------------      ----- ------------  ---------------
    21      0.265724   3 H  s                60      0.265724   9 H  s         
    10      0.249558   1 C  d -2             44      0.249558   6 C  d -2      
    13     -0.225436   1 C  d  1             47     -0.225436   6 C  d  1      
    11     -0.183911   1 C  d -1             45     -0.183911   6 C  d -1      
    27     -0.176311   4 H  px               66      0.176311  10 H  px        

 Vector   36  Occ=0.000000D+00  E= 8.676797D-01  Symmetry=eg
              MO Center= -8.3D-15,  1.4D-14,  1.6D-12, r^2= 4.5D+00
   Bfn.  Coefficient  Atom+Function         Bfn.  Coefficient  Atom+Function  
  ----- ------------  ---------------      ----- ------------  ---------------
    14      0.249558   1 C  d  2             48      0.249558   6 C  d  2      
    26      0.243602   4 H  s                65      0.243602  10 H  s         
    11      0.225436   1 C  d -1             45      0.225436   6 C  d -1      
    31     -0.216646   5 H  s                50     -0.216646   7 H  s         
    13     -0.183911   1 C  d  1             47     -0.183911   6 C  d  1      

 Vector   37  Occ=0.000000D+00  E= 9.671704D-01  Symmetry=a1g
              MO Center= -1.8D-16,  1.9D-15,  4.9D-15, r^2= 6.2D+00
   Bfn.  Coefficient  Atom+Function         Bfn.  Coefficient  Atom+Function  
  ----- ------------  ---------------      ----- ------------  ---------------
     3      3.497214   1 C  s                37      3.497214   6 C  s         
     2     -1.316990   1 C  s                36     -1.316990   6 C  s         
    16     -0.699698   2 H  s                55     -0.699698   8 H  s         
     1     -0.640332   1 C  s                35     -0.640332   6 C  s         
    21     -0.458873   3 H  s                26     -0.458873   4 H  s         

 Vector   38  Occ=0.000000D+00  E= 1.056341D+00  Symmetry=a2u
              MO Center= -6.6D-16, -1.5D-15,  2.4D-15, r^2= 5.2D+00
   Bfn.  Coefficient  Atom+Function         Bfn.  Coefficient  Atom+Function  
  ----- ------------  ---------------      ----- ------------  ---------------
     3      3.626703   1 C  s                37     -3.626703   6 C  s         
     2     -1.336139   1 C  s                36      1.336139   6 C  s         
     1     -0.655022   1 C  s                35      0.655022   6 C  s         
    21     -0.631974   3 H  s                26     -0.631974   4 H  s         
    31     -0.631974   5 H  s                50      0.631974   7 H  s         

 Vector   39  Occ=0.000000D+00  E= 1.367513D+00  Symmetry=eu
              MO Center=  3.2D-17, -4.0D-16,  1.4D-16, r^2= 5.5D+00
   Bfn.  Coefficient  Atom+Function         Bfn.  Coefficient  Atom+Function  
  ----- ------------  ---------------      ----- ------------  ---------------
    18      0.429991   2 H  py               57      0.429991   8 H  py        
    29      0.379959   4 H  pz               68      0.379959  10 H  pz        
    24     -0.355458   3 H  pz               63     -0.355458   9 H  pz        
    23     -0.159244   3 H  py               28     -0.159691   4 H  py        
    62     -0.159244   9 H  py               67     -0.159691  10 H  py        

 Vector   40  Occ=0.000000D+00  E= 1.367513D+00  Symmetry=eu
              MO Center= -5.2D-16, -3.8D-16,  2.9D-16, r^2= 5.5D+00
   Bfn.  Coefficient  Atom+Function         Bfn.  Coefficient  Atom+Function  
  ----- ------------  ---------------      ----- ------------  ---------------
    17      0.429991   2 H  px               56      0.429991   8 H  px        
    34     -0.424593   5 H  pz               53     -0.424593   7 H  pz        
    24      0.233515   3 H  pz               63      0.233515   9 H  pz        
    29      0.191078   4 H  pz               68      0.191078  10 H  pz        
    32     -0.159857   5 H  px               51     -0.159857   7 H  px        

 Vector   41  Occ=0.000000D+00  E= 1.368120D+00  Symmetry=eg
              MO Center= -3.1D-17,  2.0D-15,  2.6D-15, r^2= 5.7D+00
   Bfn.  Coefficient  Atom+Function         Bfn.  Coefficient  Atom+Function  
  ----- ------------  ---------------      ----- ------------  ---------------
    17      0.466160   2 H  px               56     -0.466160   8 H  px        
    34     -0.413740   5 H  pz               53      0.413740   7 H  pz        
    24      0.292516   3 H  pz               63     -0.292516   9 H  pz        

 Vector   42  Occ=0.000000D+00  E= 1.368120D+00  Symmetry=eg
              MO Center= -2.6D-16, -7.3D-16, -6.0D-16, r^2= 5.7D+00
   Bfn.  Coefficient  Atom+Function         Bfn.  Coefficient  Atom+Function  
  ----- ------------  ---------------      ----- ------------  ---------------
    18      0.466160   2 H  py               57     -0.466160   8 H  py        
    29      0.407757   4 H  pz               68     -0.407757  10 H  pz        
    24     -0.308862   3 H  pz               63      0.308862   9 H  pz        

 Vector   43  Occ=0.000000D+00  E= 1.369045D+00  Symmetry=a1u
              MO Center= -1.2D-16, -2.9D-15, -5.8D-12, r^2= 3.6D+00
   Bfn.  Coefficient  Atom+Function         Bfn.  Coefficient  Atom+Function  
  ----- ------------  ---------------      ----- ------------  ---------------
    27      0.411526   4 H  px               33      0.411526   5 H  py        
    52      0.411526   7 H  py               66      0.411526  10 H  px        
    22     -0.301258   3 H  px               23     -0.301258   3 H  py        
    61     -0.301258   9 H  px               62     -0.301258   9 H  py        

 Vector   44  Occ=0.000000D+00  E= 1.369396D+00  Symmetry=a2g
              MO Center= -7.4D-16, -9.1D-16,  5.8D-12, r^2= 3.6D+00
   Bfn.  Coefficient  Atom+Function         Bfn.  Coefficient  Atom+Function  
  ----- ------------  ---------------      ----- ------------  ---------------
    27      0.411535   4 H  px               33      0.411535   5 H  py        
    52     -0.411535   7 H  py               66     -0.411535  10 H  px        
    22     -0.301265   3 H  px               23     -0.301265   3 H  py        
    61      0.301265   9 H  px               62      0.301265   9 H  py        

 Vector   45  Occ=0.000000D+00  E= 1.557492D+00  Symmetry=eu
              MO Center= -8.4D-15, -1.8D-14, -4.0D-13, r^2= 4.7D+00
   Bfn.  Coefficient  Atom+Function         Bfn.  Coefficient  Atom+Function  
  ----- ------------  ---------------      ----- ------------  ---------------
     7      0.736546   1 C  px               41      0.736546   6 C  px        
    30     -0.469727   5 H  s                49      0.469727   7 H  s         
    20      0.441994   3 H  s                59     -0.441994   9 H  s         
    10      0.352746   1 C  d -2             44     -0.352746   6 C  d -2      
    13      0.274326   1 C  d  1             47     -0.274326   6 C  d  1      

 Vector   46  Occ=0.000000D+00  E= 1.557492D+00  Symmetry=eu
              MO Center=  9.5D-15,  4.5D-15,  5.1D-14, r^2= 4.7D+00
   Bfn.  Coefficient  Atom+Function         Bfn.  Coefficient  Atom+Function  
  ----- ------------  ---------------      ----- ------------  ---------------
     8      0.736546   1 C  py               42      0.736546   6 C  py        
    25      0.526383   4 H  s                64     -0.526383  10 H  s         
    14      0.352746   1 C  d  2             48     -0.352746   6 C  d  2      
    20     -0.287209   3 H  s                59      0.287209   9 H  s         
    11     -0.274326   1 C  d -1             45      0.274326   6 C  d -1      

 Vector   47  Occ=0.000000D+00  E= 1.572074D+00  Symmetry=a1g
              MO Center= -3.5D-15, -2.0D-15, -7.6D-14, r^2= 5.3D+00
   Bfn.  Coefficient  Atom+Function         Bfn.  Coefficient  Atom+Function  
  ----- ------------  ---------------      ----- ------------  ---------------
     9      0.597484   1 C  pz               43     -0.597484   6 C  pz        
    15     -0.553010   2 H  s                54     -0.553010   8 H  s         
    12      0.489773   1 C  d  0             46      0.489773   6 C  d  0      
    19     -0.282267   2 H  pz               58      0.282267   8 H  pz        
    24     -0.234013   3 H  pz               29     -0.234013   4 H  pz        

 Vector   48  Occ=0.000000D+00  E= 1.574891D+00  Symmetry=eg
              MO Center=  6.4D-15,  1.8D-14,  3.6D-13, r^2= 4.6D+00
   Bfn.  Coefficient  Atom+Function         Bfn.  Coefficient  Atom+Function  
  ----- ------------  ---------------      ----- ------------  ---------------
     7      0.679321   1 C  px               41     -0.679321   6 C  px        
    30     -0.562079   5 H  s                49     -0.562079   7 H  s         
    20      0.379078   3 H  s                59      0.379078   9 H  s         
    13      0.309771   1 C  d  1             47      0.309771   6 C  d  1      
    14      0.298344   1 C  d  2             48      0.298344   6 C  d  2      

 Vector   49  Occ=0.000000D+00  E= 1.574891D+00  Symmetry=eg
              MO Center= -6.0D-16, -7.0D-16, -1.0D-14, r^2= 4.6D+00
   Bfn.  Coefficient  Atom+Function         Bfn.  Coefficient  Atom+Function  
  ----- ------------  ---------------      ----- ------------  ---------------
     8      0.679321   1 C  py               42     -0.679321   6 C  py        
    25      0.543377   4 H  s                64      0.543377  10 H  s         
    20     -0.430172   3 H  s                59     -0.430172   9 H  s         
    11     -0.309771   1 C  d -1             45     -0.309771   6 C  d -1      
    10     -0.298344   1 C  d -2             44     -0.298344   6 C  d -2      

 Vector   50  Occ=0.000000D+00  E= 1.656900D+00  Symmetry=a2u
              MO Center=  2.4D-15,  4.3D-15,  7.1D-14, r^2= 5.8D+00
   Bfn.  Coefficient  Atom+Function         Bfn.  Coefficient  Atom+Function  
  ----- ------------  ---------------      ----- ------------  ---------------
     9      0.953573   1 C  pz               43      0.953573   6 C  pz        
    12      0.580152   1 C  d  0             15     -0.579107   2 H  s         
    46     -0.580152   6 C  d  0             54      0.579107   8 H  s         
    19     -0.337187   2 H  pz               58     -0.337187   8 H  pz        
    20      0.301132   3 H  s                25      0.301132   4 H  s         

 Vector   51  Occ=0.000000D+00  E= 1.856876D+00  Symmetry=a1g
              MO Center= -1.7D-14, -3.1D-14, -1.3D-14, r^2= 4.0D+00
   Bfn.  Coefficient  Atom+Function         Bfn.  Coefficient  Atom+Function  
  ----- ------------  ---------------      ----- ------------  ---------------
    12      0.533302   1 C  d  0             46      0.533302   6 C  d  0      
     9     -0.463064   1 C  pz               43      0.463064   6 C  pz        
    24      0.431091   3 H  pz               29      0.431091   4 H  pz        
    34      0.431091   5 H  pz               53     -0.431091   7 H  pz        
    63     -0.431091   9 H  pz               68     -0.431091  10 H  pz        

 Vector   52  Occ=0.000000D+00  E= 1.861024D+00  Symmetry=eu
              MO Center=  1.1D-14, -1.6D-14, -4.8D-13, r^2= 5.4D+00
   Bfn.  Coefficient  Atom+Function         Bfn.  Coefficient  Atom+Function  
  ----- ------------  ---------------      ----- ------------  ---------------
     8      0.517338   1 C  py               42      0.517338   6 C  py        
    18     -0.472280   2 H  py               57     -0.472280   8 H  py        
    14     -0.406852   1 C  d  2             48      0.406852   6 C  d  2      
    26      0.389757   4 H  s                65     -0.389757  10 H  s         
    33     -0.387235   5 H  py               52     -0.387235   7 H  py        

 Vector   53  Occ=0.000000D+00  E= 1.861024D+00  Symmetry=eu
              MO Center=  6.6D-15, -1.0D-14,  1.1D-13, r^2= 5.4D+00
   Bfn.  Coefficient  Atom+Function         Bfn.  Coefficient  Atom+Function  
  ----- ------------  ---------------      ----- ------------  ---------------
     7      0.517338   1 C  px               41      0.517338   6 C  px        
    27     -0.500174   4 H  px               66     -0.500174  10 H  px        
    17     -0.472280   2 H  px               56     -0.472280   8 H  px        
    10     -0.406852   1 C  d -2             44      0.406852   6 C  d -2      
    21      0.363614   3 H  s                60     -0.363614   9 H  s         

 Vector   54  Occ=0.000000D+00  E= 1.879082D+00  Symmetry=eg
              MO Center= -6.9D-15,  3.8D-14,  4.8D-13, r^2= 5.4D+00
   Bfn.  Coefficient  Atom+Function         Bfn.  Coefficient  Atom+Function  
  ----- ------------  ---------------      ----- ------------  ---------------
     8      0.506908   1 C  py               42     -0.506908   6 C  py        
    18     -0.465631   2 H  py               26      0.463984   4 H  s         
    57      0.465631   8 H  py               65      0.463984  10 H  s         
    14     -0.413793   1 C  d  2             48     -0.413793   6 C  d  2      
    22     -0.353523   3 H  px               33     -0.352318   5 H  py        

 Vector   55  Occ=0.000000D+00  E= 1.879082D+00  Symmetry=eg
              MO Center=  5.0D-15,  1.4D-14, -1.1D-13, r^2= 5.4D+00
   Bfn.  Coefficient  Atom+Function         Bfn.  Coefficient  Atom+Function  
  ----- ------------  ---------------      ----- ------------  ---------------
     7      0.506908   1 C  px               41     -0.506908   6 C  px        
    27     -0.480751   4 H  px               66      0.480751  10 H  px        
    17     -0.465631   2 H  px               56      0.465631   8 H  px        
    21      0.450092   3 H  s                60      0.450092   9 H  s         
    10     -0.413793   1 C  d -2             44     -0.413793   6 C  d -2      

 Vector   56  Occ=0.000000D+00  E= 1.947395D+00  Symmetry=a2u
              MO Center=  9.6D-16,  3.1D-15,  1.9D-14, r^2= 3.9D+00
   Bfn.  Coefficient  Atom+Function         Bfn.  Coefficient  Atom+Function  
  ----- ------------  ---------------      ----- ------------  ---------------
     9      1.007321   1 C  pz               43      1.007321   6 C  pz        
    16     -0.591121   2 H  s                55      0.591121   8 H  s         
    24     -0.508754   3 H  pz               29     -0.508754   4 H  pz        
    34     -0.508754   5 H  pz               53     -0.508754   7 H  pz        
    63     -0.508754   9 H  pz               68     -0.508754  10 H  pz        

 Vector   57  Occ=0.000000D+00  E= 2.184303D+00  Symmetry=eu
              MO Center= -7.4D-16,  4.7D-15, -5.6D-12, r^2= 4.8D+00
   Bfn.  Coefficient  Atom+Function         Bfn.  Coefficient  Atom+Function  
  ----- ------------  ---------------      ----- ------------  ---------------
    11      0.783108   1 C  d -1             45     -0.783108   6 C  d -1      
    18     -0.460051   2 H  py               57     -0.460051   8 H  py        
    33      0.414609   5 H  py               52      0.414609   7 H  py        
    29      0.401089   4 H  pz               68      0.401089  10 H  pz        
    10     -0.375035   1 C  d -2             44      0.375035   6 C  d -2      

 Vector   58  Occ=0.000000D+00  E= 2.184303D+00  Symmetry=eu
              MO Center=  2.6D-15,  3.1D-15, -6.8D-12, r^2= 4.8D+00
   Bfn.  Coefficient  Atom+Function         Bfn.  Coefficient  Atom+Function  
  ----- ------------  ---------------      ----- ------------  ---------------
    13      0.783108   1 C  d  1             47     -0.783108   6 C  d  1      
    17      0.460051   2 H  px               56      0.460051   8 H  px        
    34      0.414184   5 H  pz               53      0.414184   7 H  pz        
    27     -0.396025   4 H  px               66     -0.396025  10 H  px        
    14     -0.375035   1 C  d  2             48      0.375035   6 C  d  2      

 Vector   59  Occ=0.000000D+00  E= 2.184563D+00  Symmetry=eg
              MO Center= -3.9D-15,  4.9D-15,  5.7D-12, r^2= 4.7D+00
   Bfn.  Coefficient  Atom+Function         Bfn.  Coefficient  Atom+Function  
  ----- ------------  ---------------      ----- ------------  ---------------
    14     -0.594308   1 C  d  2             48     -0.594308   6 C  d  2      
    13      0.563267   1 C  d  1             47      0.563267   6 C  d  1      
    11     -0.436461   1 C  d -1             45     -0.436461   6 C  d -1      
    34      0.406257   5 H  pz               53     -0.406257   7 H  pz        
    17      0.349491   2 H  px               29     -0.350815   4 H  pz        

 Vector   60  Occ=0.000000D+00  E= 2.184563D+00  Symmetry=eg
              MO Center=  5.5D-15, -2.3D-15,  6.7D-12, r^2= 4.7D+00
   Bfn.  Coefficient  Atom+Function         Bfn.  Coefficient  Atom+Function  
  ----- ------------  ---------------      ----- ------------  ---------------
    10      0.594308   1 C  d -2             44      0.594308   6 C  d -2      
    11     -0.563267   1 C  d -1             45     -0.563267   6 C  d -1      
    13     -0.436461   1 C  d  1             24      0.437095   3 H  pz        
    47     -0.436461   6 C  d  1             63     -0.437095   9 H  pz        
    33     -0.424324   5 H  py               52      0.424324   7 H  py        

 Vector   61  Occ=0.000000D+00  E= 2.335497D+00  Symmetry=a1g
              MO Center= -1.9D-15, -4.7D-15, -2.0D-15, r^2= 4.7D+00
   Bfn.  Coefficient  Atom+Function         Bfn.  Coefficient  Atom+Function  
  ----- ------------  ---------------      ----- ------------  ---------------
     3      1.119796   1 C  s                37      1.119796   6 C  s         
     2      1.042800   1 C  s                36      1.042800   6 C  s         
    28     -0.535062   4 H  py               32      0.535062   5 H  px        
    51     -0.535062   7 H  px               67      0.535062  10 H  py        
    19      0.495549   2 H  pz               58     -0.495549   8 H  pz        

 Vector   62  Occ=0.000000D+00  E= 2.351231D+00  Symmetry=a2u
              MO Center= -3.0D-16, -4.4D-16,  2.2D-15, r^2= 4.1D+00
   Bfn.  Coefficient  Atom+Function         Bfn.  Coefficient  Atom+Function  
  ----- ------------  ---------------      ----- ------------  ---------------
     3      1.302708   1 C  s                37     -1.302708   6 C  s         
     2      0.951797   1 C  s                36     -0.951797   6 C  s         
    28     -0.599159   4 H  py               32      0.599159   5 H  px        
    51      0.599159   7 H  px               67     -0.599159  10 H  py        
    20     -0.510158   3 H  s                25     -0.510158   4 H  s         

 Vector   63  Occ=0.000000D+00  E= 2.359306D+00  Symmetry=eg
              MO Center=  7.4D-15, -1.2D-13, -6.8D-13, r^2= 4.2D+00
   Bfn.  Coefficient  Atom+Function         Bfn.  Coefficient  Atom+Function  
  ----- ------------  ---------------      ----- ------------  ---------------
     4      0.928454   1 C  px               38     -0.928454   6 C  px        
    30     -0.893425   5 H  s                49     -0.893425   7 H  s         
    20      0.826909   3 H  s                59      0.826909   9 H  s         
    32      0.806809   5 H  px               51     -0.806809   7 H  px        
     7      0.668263   1 C  px               41     -0.668263   6 C  px        

 Vector   64  Occ=0.000000D+00  E= 2.359306D+00  Symmetry=eg
              MO Center= -1.5D-13, -2.4D-13,  1.8D-12, r^2= 4.2D+00
   Bfn.  Coefficient  Atom+Function         Bfn.  Coefficient  Atom+Function  
  ----- ------------  ---------------      ----- ------------  ---------------
    25      0.993235   4 H  s                64      0.993235  10 H  s         
     5      0.928454   1 C  py               39     -0.928454   6 C  py        
    28      0.896569   4 H  py               67     -0.896569  10 H  py        
     8      0.668263   1 C  py               42     -0.668263   6 C  py        
    14      0.642504   1 C  d  2             48      0.642504   6 C  d  2      

 Vector   65  Occ=0.000000D+00  E= 2.375240D+00  Symmetry=a1g
              MO Center= -1.4D-13, -2.2D-13,  2.9D-13, r^2= 6.1D+00
   Bfn.  Coefficient  Atom+Function         Bfn.  Coefficient  Atom+Function  
  ----- ------------  ---------------      ----- ------------  ---------------
    15      1.113316   2 H  s                54      1.113316   8 H  s         
    19     -1.060951   2 H  pz               58      1.060951   8 H  pz        
    12     -1.015355   1 C  d  0             46     -1.015355   6 C  d  0      
     6     -0.942967   1 C  pz               40      0.942967   6 C  pz        
     9     -0.637024   1 C  pz               43      0.637024   6 C  pz        

 Vector   66  Occ=0.000000D+00  E= 2.377536D+00  Symmetry=eu
              MO Center=  1.8D-13,  6.9D-14,  6.4D-13, r^2= 4.2D+00
   Bfn.  Coefficient  Atom+Function         Bfn.  Coefficient  Atom+Function  
  ----- ------------  ---------------      ----- ------------  ---------------
    30     -0.982473   5 H  s                49      0.982473   7 H  s         
     4      0.932936   1 C  px               38      0.932936   6 C  px        
    32      0.835426   5 H  px               51      0.835426   7 H  px        
    20      0.773271   3 H  s                59     -0.773271   9 H  s         
     7      0.730537   1 C  px               41      0.730537   6 C  px        

 Vector   67  Occ=0.000000D+00  E= 2.377536D+00  Symmetry=eu
              MO Center=  9.0D-14,  5.0D-13, -1.7D-12, r^2= 4.2D+00
   Bfn.  Coefficient  Atom+Function         Bfn.  Coefficient  Atom+Function  
  ----- ------------  ---------------      ----- ------------  ---------------
    25      1.013679   4 H  s                64     -1.013679  10 H  s         
     5      0.932936   1 C  py               39      0.932936   6 C  py        
    28      0.860306   4 H  py               67      0.860306  10 H  py        
     8      0.730537   1 C  py               42      0.730537   6 C  py        
    20     -0.688014   3 H  s                59      0.688014   9 H  s         

 Vector   68  Occ=0.000000D+00  E= 2.395731D+00  Symmetry=a2u
              MO Center=  1.9D-15,  5.2D-15, -2.9D-13, r^2= 7.1D+00
   Bfn.  Coefficient  Atom+Function         Bfn.  Coefficient  Atom+Function  
  ----- ------------  ---------------      ----- ------------  ---------------
    15      1.242118   2 H  s                54     -1.242118   8 H  s         
    19     -1.146605   2 H  pz               58     -1.146605   8 H  pz        
     9     -1.052717   1 C  pz               43     -1.052717   6 C  pz        
    12     -0.965270   1 C  d  0             46      0.965270   6 C  d  0      
     6     -0.861902   1 C  pz               40     -0.861902   6 C  pz        


            General Information
            -------------------
          SCF calculation type: DFT
          Wavefunction type:  closed shell.
          No. of atoms     :    10
          No. of electrons :    20
           Alpha electrons :    10
            Beta electrons :    10
          Charge           :     0
          Spin multiplicity:     1
          Use of symmetry is: on ; symmetry adaption is: on 
          Maximum number of iterations:  30
          This is a Direct SCF calculation.
          AO basis - number of functions:    68
                     number of shells:    36
          Convergence on energy requested:  1.00D-06
          Convergence on density requested:  1.00D-05
          Convergence on gradient requested:  5.00D-04

              XC Information
              --------------
                    Becke 1988 Exchange Functional  1.000          
              Lee-Yang-Parr Correlation Functional  1.000          

             Grid Information
             ----------------
          Grid used for XC integration:  medium    
          Radial quadrature: Mura-Knowles        
          Angular quadrature: Lebedev. 
          Tag              B.-S. Rad. Rad. Pts. Rad. Cut. Ang. Pts.
          ---              ---------- --------- --------- ---------
          C                   0.70       49          12.0       434
          H                   0.35       45          13.0       434
          Grid pruning is: on 
          Number of quadrature shells:   139
          Spatial weights used:  Erf1

          Convergence Information
          -----------------------
          Convergence aids based upon iterative change in 
          total energy or number of iterations. 
          Levelshifting, if invoked, occurs when the 
          HOMO/LUMO gap drops below (HL_TOL):  1.00D-02
          DIIS, if invoked, will attempt to extrapolate 
          using up to (NFOCK): 10 stored Fock matrices.

                    Damping( 0%)  Levelshifting(0.5)       DIIS
                  --------------- ------------------- ---------------
          dE  on:    start            ASAP                start   
          dE off:    2 iters         30 iters            30 iters 


      Screening Tolerance Information
      -------------------------------
          Density screening/tol_rho:  1.00D-10
          AO Gaussian exp screening on grid/accAOfunc:  14
          CD Gaussian exp screening on grid/accCDfunc:  20
          XC Gaussian exp screening on grid/accXCfunc:  20
          Schwarz screening/accCoul:  1.00D-08



                            NWChem DFT Gradient Module
                            --------------------------


                                       ch4_2



  charge          =   0.00
  wavefunction    = closed shell

  Rotation of axis 
  Using symmetry


                         DFT ENERGY GRADIENTS

    atom               coordinates                        gradient
                 x          y          z           x          y          z
   1 C      -0.000000   0.000000   3.382178    0.000000   0.000000  -0.000155
   2 H       0.000000  -0.000000   5.451663    0.000000  -0.000000  -0.008036
   3 H      -1.377839   1.377839   2.687603    0.005375  -0.005375   0.002878
   4 H      -0.504324  -1.882163   2.687603    0.001968   0.007343   0.002878
   5 H       1.882163   0.504324   2.687603   -0.007343  -0.001968   0.002878
   6 C       0.000000   0.000000  -3.382178    0.000000   0.000000   0.000155
   7 H      -1.882163  -0.504324  -2.687603    0.007343   0.001968  -0.002878
   8 H      -0.000000   0.000000  -5.451663   -0.000000   0.000000   0.008036
   9 H       1.377839  -1.377839  -2.687603   -0.005375   0.005375  -0.002878
  10 H       0.504324   1.882163  -2.687603   -0.001968  -0.007343  -0.002878

                 ----------------------------------------
                 |  Time  |  1-e(secs)   |  2-e(secs)   |
                 ----------------------------------------
                 |  CPU   |       0.00   |       0.11   |
                 ----------------------------------------
                 |  WALL  |       0.00   |       0.11   |
                 ----------------------------------------

@ Step       Energy      Delta E   Gmax     Grms     Xrms     Xmax   Walltime
@ ---- ---------------- -------- -------- -------- -------- -------- --------
@    0     -80.95272008  0.0D+00  0.00804  0.00419  0.00000  0.00000      1.2
                                                                    


                                 NWChem DFT Module
                                 -----------------


                                       ch4_2




 Summary of "ao basis" -> "ao basis" (spherical)
 ------------------------------------------------------------------------------
       Tag                 Description            Shells   Functions and Types
 ---------------- ------------------------------  ------  ---------------------
 C                          cc-pvdz                  6       14   3s2p1d
 H                          cc-pvdz                  3        5   2s1p


      Symmetry analysis of basis
      --------------------------

        a1g        13
        a1u         1
        a2g         1
        a2u        13
        eg         20
        eu         20

  Caching 1-el integrals 
  Rotation of axis 

            General Information
            -------------------
          SCF calculation type: DFT
          Wavefunction type:  closed shell.
          No. of atoms     :    10
          No. of electrons :    20
           Alpha electrons :    10
            Beta electrons :    10
          Charge           :     0
          Spin multiplicity:     1
          Use of symmetry is: on ; symmetry adaption is: on 
          Maximum number of iterations:  30
          This is a Direct SCF calculation.
          AO basis - number of functions:    68
                     number of shells:    36
          Convergence on energy requested:  1.00D-06
          Convergence on density requested:  1.00D-05
          Convergence on gradient requested:  5.00D-04

              XC Information
              --------------
                    Becke 1988 Exchange Functional  1.000          
              Lee-Yang-Parr Correlation Functional  1.000          

             Grid Information
             ----------------
          Grid used for XC integration:  medium    
          Radial quadrature: Mura-Knowles        
          Angular quadrature: Lebedev. 
          Tag              B.-S. Rad. Rad. Pts. Rad. Cut. Ang. Pts.
          ---              ---------- --------- --------- ---------
          C                   0.70       49          12.0       434
          H                   0.35       45          13.0       434
          Grid pruning is: on 
          Number of quadrature shells:   139
          Spatial weights used:  Erf1

          Convergence Information
          -----------------------
          Convergence aids based upon iterative change in 
          total energy or number of iterations. 
          Levelshifting, if invoked, occurs when the 
          HOMO/LUMO gap drops below (HL_TOL):  1.00D-02
          DIIS, if invoked, will attempt to extrapolate 
          using up to (NFOCK): 10 stored Fock matrices.

                    Damping( 0%)  Levelshifting(0.5)       DIIS
                  --------------- ------------------- ---------------
          dE  on:    start            ASAP                start   
          dE off:    2 iters         30 iters            30 iters 


      Screening Tolerance Information
      -------------------------------
          Density screening/tol_rho:  1.00D-10
          AO Gaussian exp screening on grid/accAOfunc:  14
          CD Gaussian exp screening on grid/accCDfunc:  20
          XC Gaussian exp screening on grid/accXCfunc:  20
          Schwarz screening/accCoul:  1.00D-08

      Dispersion Parameters
      ---------------------

          s6 scale factor :        1.400000000000
              vdW contrib :       -0.002579109194


 Loading old vectors from job with title :

ch4_2


      Symmetry analysis of molecular orbitals - initial
      -------------------------------------------------

  Numbering of irreducible representations: 

     1 a1g         2 a1u         3 a2g         4 a2u         5 eg      
     6 eu      

  Orbital symmetries:

     1 a2u         2 a1g         3 a1g         4 a2u         5 a1g     
     6 eu          7 eu          8 eg          9 eg         10 a2u     
    11 a1g        12 a2u        13 eu         14 eu         15 a1g     
    16 a2u        17 eg         18 eg         19 a1g        20 eu      



 ----------------------------------------------
         Quadratically convergent ROKS

 Convergence threshold     :          5.000E-04
 Maximum no. of iterations :           30
 Final Fock-matrix accuracy:          1.000E-08
 ----------------------------------------------


 Grid_pts file          = ./ch4_2.gridpts.0
 Record size in doubles =  12289        No. of grid_pts per rec  =   3070
 Max. records in memory =      7        Max. recs in file   = 253312716


              iter       energy          gnorm     gmax       time
             ----- ------------------- --------- --------- --------
                 1      -80.9533348685  3.11D-02  9.50D-03      1.4
                 2      -80.9534079233  4.82D-05  1.37D-05      1.8


         Total DFT energy =      -80.953407923299
      One electron energy =     -188.266452851826
           Coulomb energy =       79.841452591390
    Exchange-Corr. energy =      -13.692147419562
 Nuclear repulsion energy =       41.163739756699

    Dispersion correction =       -0.002579109194

 Numeric. integr. density =       19.999990509150

     Total iterative time =      0.5s



                       DFT Final Molecular Orbital Analysis
                       ------------------------------------

 Vector    1  Occ=2.000000D+00  E=-9.911397D+00  Symmetry=a2u
              MO Center= -1.9D-20,  4.4D-21, -5.3D-16, r^2= 3.2D+00
   Bfn.  Coefficient  Atom+Function         Bfn.  Coefficient  Atom+Function  
  ----- ------------  ---------------      ----- ------------  ---------------
     1      0.712571   1 C  s                35     -0.712571   6 C  s         

 Vector    2  Occ=2.000000D+00  E=-9.911390D+00  Symmetry=a1g
              MO Center=  1.6D-19, -3.4D-18,  3.2D-16, r^2= 3.2D+00
   Bfn.  Coefficient  Atom+Function         Bfn.  Coefficient  Atom+Function  
  ----- ------------  ---------------      ----- ------------  ---------------
     1      0.712457   1 C  s                35      0.712457   6 C  s         

 Vector    3  Occ=2.000000D+00  E=-6.147847D-01  Symmetry=a1g
              MO Center= -2.0D-17,  2.0D-17,  1.5D-16, r^2= 4.2D+00
   Bfn.  Coefficient  Atom+Function         Bfn.  Coefficient  Atom+Function  
  ----- ------------  ---------------      ----- ------------  ---------------
     2      0.269862   1 C  s                36      0.269862   6 C  s         
     3      0.150723   1 C  s                37      0.150723   6 C  s         

 Vector    4  Occ=2.000000D+00  E=-6.095382D-01  Symmetry=a2u
              MO Center=  8.7D-19,  2.8D-17,  1.8D-16, r^2= 4.3D+00
   Bfn.  Coefficient  Atom+Function         Bfn.  Coefficient  Atom+Function  
  ----- ------------  ---------------      ----- ------------  ---------------
     2      0.273998   1 C  s                36     -0.273998   6 C  s         
     3      0.158482   1 C  s                37     -0.158482   6 C  s         

 Vector    5  Occ=2.000000D+00  E=-3.420164D-01  Symmetry=a1g
              MO Center= -1.9D-18,  1.9D-17,  9.1D-18, r^2= 5.8D+00
   Bfn.  Coefficient  Atom+Function         Bfn.  Coefficient  Atom+Function  
  ----- ------------  ---------------      ----- ------------  ---------------
     6      0.306923   1 C  pz               40     -0.306923   6 C  pz        
    15      0.268891   2 H  s                54      0.268891   8 H  s         

 Vector    6  Occ=2.000000D+00  E=-3.383070D-01  Symmetry=eu
              MO Center=  3.0D-17, -1.0D-17,  6.1D-17, r^2= 3.9D+00
   Bfn.  Coefficient  Atom+Function         Bfn.  Coefficient  Atom+Function  
  ----- ------------  ---------------      ----- ------------  ---------------
    20      0.254951   3 H  s                59     -0.254951   9 H  s         
     5      0.227195   1 C  py               39      0.227195   6 C  py        
     4     -0.208662   1 C  px               38     -0.208662   6 C  px        

 Vector    7  Occ=2.000000D+00  E=-3.383070D-01  Symmetry=eu
              MO Center=  9.5D-18, -5.2D-17, -8.3D-17, r^2= 3.9D+00
   Bfn.  Coefficient  Atom+Function         Bfn.  Coefficient  Atom+Function  
  ----- ------------  ---------------      ----- ------------  ---------------
     4      0.227195   1 C  px               30      0.226214   5 H  s         
    38      0.227195   6 C  px               49     -0.226214   7 H  s         
    25     -0.215374   4 H  s                64      0.215374  10 H  s         
     5      0.208662   1 C  py               39      0.208662   6 C  py        

 Vector    8  Occ=2.000000D+00  E=-3.317711D-01  Symmetry=eg
              MO Center=  9.3D-17, -7.4D-17, -4.5D-16, r^2= 3.9D+00
   Bfn.  Coefficient  Atom+Function         Bfn.  Coefficient  Atom+Function  
  ----- ------------  ---------------      ----- ------------  ---------------
     5      0.265638   1 C  py               39     -0.265638   6 C  py        
    20      0.253512   3 H  s                59      0.253512   9 H  s         
    25     -0.173679   4 H  s                64     -0.173679  10 H  s         
     4     -0.172086   1 C  px               38      0.172086   6 C  px        

 Vector    9  Occ=2.000000D+00  E=-3.317711D-01  Symmetry=eg
              MO Center=  1.2D-16, -1.2D-17,  4.4D-16, r^2= 3.9D+00
   Bfn.  Coefficient  Atom+Function         Bfn.  Coefficient  Atom+Function  
  ----- ------------  ---------------      ----- ------------  ---------------
     4      0.265638   1 C  px               38     -0.265638   6 C  px        
    30      0.246639   5 H  s                49      0.246639   7 H  s         
    25     -0.192457   4 H  s                64     -0.192457  10 H  s         
     5      0.172086   1 C  py               39     -0.172086   6 C  py        

 Vector   10  Occ=2.000000D+00  E=-3.287183D-01  Symmetry=a2u
              MO Center= -4.7D-18,  6.9D-18, -4.7D-17, r^2= 5.9D+00
   Bfn.  Coefficient  Atom+Function         Bfn.  Coefficient  Atom+Function  
  ----- ------------  ---------------      ----- ------------  ---------------
     6      0.318672   1 C  pz               40      0.318672   6 C  pz        
    15      0.279132   2 H  s                54     -0.279132   8 H  s         

 Vector   11  Occ=0.000000D+00  E= 3.459132D-02  Symmetry=a1g
              MO Center= -2.2D-16,  1.0D-16,  8.6D-16, r^2= 6.7D+00
   Bfn.  Coefficient  Atom+Function         Bfn.  Coefficient  Atom+Function  
  ----- ------------  ---------------      ----- ------------  ---------------
     3      1.377270   1 C  s                37      1.377270   6 C  s         
    21     -0.522552   3 H  s                26     -0.522552   4 H  s         
    31     -0.522552   5 H  s                50     -0.522552   7 H  s         
    60     -0.522552   9 H  s                65     -0.522552  10 H  s         
    16     -0.441384   2 H  s                55     -0.441384   8 H  s         

 Vector   12  Occ=0.000000D+00  E= 8.308224D-02  Symmetry=a2u
              MO Center=  6.0D-17, -6.9D-17, -3.2D-15, r^2= 9.7D+00
   Bfn.  Coefficient  Atom+Function         Bfn.  Coefficient  Atom+Function  
  ----- ------------  ---------------      ----- ------------  ---------------
     3      1.561729   1 C  s                37     -1.561729   6 C  s         
    16     -0.833679   2 H  s                55      0.833679   8 H  s         
    21     -0.511277   3 H  s                26     -0.511277   4 H  s         
    31     -0.511277   5 H  s                50      0.511277   7 H  s         
    60      0.511277   9 H  s                65      0.511277  10 H  s         

 Vector   13  Occ=0.000000D+00  E= 1.064846D-01  Symmetry=eu
              MO Center= -1.4D-16, -2.9D-16,  4.2D-16, r^2= 5.5D+00
   Bfn.  Coefficient  Atom+Function         Bfn.  Coefficient  Atom+Function  
  ----- ------------  ---------------      ----- ------------  ---------------
    31      1.123651   5 H  s                50     -1.123651   7 H  s         
    26     -1.006658   4 H  s                65      1.006658  10 H  s         
     7     -0.612985   1 C  px               41     -0.612985   6 C  px        
     8     -0.506498   1 C  py               42     -0.506498   6 C  py        
     4     -0.229841   1 C  px               38     -0.229841   6 C  px        

 Vector   14  Occ=0.000000D+00  E= 1.064846D-01  Symmetry=eu
              MO Center=  4.5D-14, -3.7D-14,  2.0D-14, r^2= 5.5D+00
   Bfn.  Coefficient  Atom+Function         Bfn.  Coefficient  Atom+Function  
  ----- ------------  ---------------      ----- ------------  ---------------
    21      1.229934   3 H  s                60     -1.229934   9 H  s         
    26     -0.716286   4 H  s                65      0.716286  10 H  s         
     8     -0.612985   1 C  py               42     -0.612985   6 C  py        
    31     -0.513649   5 H  s                50      0.513649   7 H  s         
     7      0.506498   1 C  px               41      0.506498   6 C  px        

 Vector   15  Occ=0.000000D+00  E= 1.113908D-01  Symmetry=a1g
[...]
     7      0.694881   1 C  px               41      0.694881   6 C  px        
    20      0.469281   3 H  s                59     -0.469281   9 H  s         
    30     -0.424152   5 H  s                49      0.424152   7 H  s         
    10      0.378505   1 C  d -2             44     -0.378505   6 C  d -2      
    13      0.261318   1 C  d  1             47     -0.261318   6 C  d  1      

 Vector   46  Occ=0.000000D+00  E= 1.545685D+00  Symmetry=eu
              MO Center=  7.4D-15,  9.0D-15,  4.4D-14, r^2= 4.7D+00
   Bfn.  Coefficient  Atom+Function         Bfn.  Coefficient  Atom+Function  
  ----- ------------  ---------------      ----- ------------  ---------------
     8      0.694881   1 C  py               42      0.694881   6 C  py        
    25      0.515823   4 H  s                64     -0.515823  10 H  s         
    14      0.378505   1 C  d  2             48     -0.378505   6 C  d  2      
    30     -0.296995   5 H  s                49      0.296995   7 H  s         
    11     -0.261318   1 C  d -1             45      0.261318   6 C  d -1      

 Vector   47  Occ=0.000000D+00  E= 1.560155D+00  Symmetry=a1g
              MO Center= -4.2D-15, -2.8D-15, -7.5D-14, r^2= 5.4D+00
   Bfn.  Coefficient  Atom+Function         Bfn.  Coefficient  Atom+Function  
  ----- ------------  ---------------      ----- ------------  ---------------
     9      0.588188   1 C  pz               43     -0.588188   6 C  pz        
    15     -0.544089   2 H  s                54     -0.544089   8 H  s         
    12      0.487140   1 C  d  0             46      0.487140   6 C  d  0      
    19     -0.282241   2 H  pz               58      0.282241   8 H  pz        
    24     -0.231336   3 H  pz               29     -0.231336   4 H  pz        

 Vector   48  Occ=0.000000D+00  E= 1.563652D+00  Symmetry=eg
              MO Center=  3.2D-15,  2.2D-14,  3.8D-13, r^2= 4.6D+00
   Bfn.  Coefficient  Atom+Function         Bfn.  Coefficient  Atom+Function  
  ----- ------------  ---------------      ----- ------------  ---------------
     7      0.668295   1 C  px               41     -0.668295   6 C  px        
    30     -0.536220   5 H  s                49     -0.536220   7 H  s         
    20      0.420550   3 H  s                59      0.420550   9 H  s         
    13      0.308234   1 C  d  1             47      0.308234   6 C  d  1      
    10      0.294030   1 C  d -2             44      0.294030   6 C  d -2      

 Vector   49  Occ=0.000000D+00  E= 1.563652D+00  Symmetry=eg
              MO Center=  3.6D-15, -2.5D-15, -3.5D-14, r^2= 4.6D+00
   Bfn.  Coefficient  Atom+Function         Bfn.  Coefficient  Atom+Function  
  ----- ------------  ---------------      ----- ------------  ---------------
     8      0.668295   1 C  py               42     -0.668295   6 C  py        
    25      0.552391   4 H  s                64      0.552391  10 H  s         
    20     -0.376369   3 H  s                59     -0.376369   9 H  s         
    11     -0.308234   1 C  d -1             45     -0.308234   6 C  d -1      
    14      0.294030   1 C  d  2             48      0.294030   6 C  d  2      

 Vector   50  Occ=0.000000D+00  E= 1.641529D+00  Symmetry=a2u
              MO Center=  2.5D-15,  4.4D-15,  7.0D-14, r^2= 5.9D+00
   Bfn.  Coefficient  Atom+Function         Bfn.  Coefficient  Atom+Function  
  ----- ------------  ---------------      ----- ------------  ---------------
     9      0.941407   1 C  pz               43      0.941407   6 C  pz        
    12      0.567228   1 C  d  0             15     -0.567402   2 H  s         
    46     -0.567228   6 C  d  0             54      0.567402   8 H  s         
    19     -0.336823   2 H  pz               58     -0.336823   8 H  pz        
    20      0.296471   3 H  s                25      0.296471   4 H  s         

 Vector   51  Occ=0.000000D+00  E= 1.846927D+00  Symmetry=a1g
              MO Center= -1.8D-14, -3.2D-14, -1.1D-14, r^2= 4.0D+00
   Bfn.  Coefficient  Atom+Function         Bfn.  Coefficient  Atom+Function  
  ----- ------------  ---------------      ----- ------------  ---------------
    12     -0.515641   1 C  d  0             46     -0.515641   6 C  d  0      
     9      0.469727   1 C  pz               43     -0.469727   6 C  pz        
    24     -0.427112   3 H  pz               29     -0.427112   4 H  pz        
    34     -0.427112   5 H  pz               53      0.427112   7 H  pz        
    63      0.427112   9 H  pz               68      0.427112  10 H  pz        

 Vector   52  Occ=0.000000D+00  E= 1.849566D+00  Symmetry=eu
              MO Center=  2.8D-14, -1.8D-14, -4.5D-13, r^2= 5.4D+00
   Bfn.  Coefficient  Atom+Function         Bfn.  Coefficient  Atom+Function  
  ----- ------------  ---------------      ----- ------------  ---------------
     8      0.458248   1 C  py               42      0.458248   6 C  py        
    14     -0.421281   1 C  d  2             48      0.421281   6 C  d  2      
    18     -0.411800   2 H  py               57     -0.411800   8 H  py        
    22     -0.367918   3 H  px               61     -0.367918   9 H  px        
    26      0.364596   4 H  s                65     -0.364596  10 H  s         

 Vector   53  Occ=0.000000D+00  E= 1.849566D+00  Symmetry=eu
              MO Center= -8.8D-15, -6.3D-15,  8.0D-14, r^2= 5.4D+00
   Bfn.  Coefficient  Atom+Function         Bfn.  Coefficient  Atom+Function  
  ----- ------------  ---------------      ----- ------------  ---------------
    27     -0.472265   4 H  px               66     -0.472265  10 H  px        
     7      0.458248   1 C  px               41      0.458248   6 C  px        
    10     -0.421281   1 C  d -2             44      0.421281   6 C  d -2      
    17     -0.411800   2 H  px               56     -0.411800   8 H  px        
    33      0.397350   5 H  py               52      0.397350   7 H  py        

 Vector   54  Occ=0.000000D+00  E= 1.867645D+00  Symmetry=eg
              MO Center=  8.0D-15,  3.5D-14,  3.8D-13, r^2= 5.5D+00
   Bfn.  Coefficient  Atom+Function         Bfn.  Coefficient  Atom+Function  
  ----- ------------  ---------------      ----- ------------  ---------------
     8      0.570363   1 C  py               42     -0.570363   6 C  py        
    18     -0.516650   2 H  py               57      0.516650   8 H  py        
    33     -0.468917   5 H  py               52      0.468917   7 H  py        
    26      0.446629   4 H  s                65      0.446629  10 H  s         
    21     -0.347549   3 H  s                60     -0.347549   9 H  s         

 Vector   55  Occ=0.000000D+00  E= 1.867645D+00  Symmetry=eg
              MO Center= -1.0D-14,  1.5D-14, -5.6D-15, r^2= 5.5D+00
   Bfn.  Coefficient  Atom+Function         Bfn.  Coefficient  Atom+Function  
  ----- ------------  ---------------      ----- ------------  ---------------
     7      0.570363   1 C  px               41     -0.570363   6 C  px        
    17     -0.516650   2 H  px               56      0.516650   8 H  px        
    31     -0.458519   5 H  s                50     -0.458519   7 H  s         
    27     -0.455001   4 H  px               66      0.455001  10 H  px        
    13     -0.326613   1 C  d  1             47     -0.326613   6 C  d  1      

 Vector   56  Occ=0.000000D+00  E= 1.935757D+00  Symmetry=a2u
              MO Center=  1.0D-15,  3.1D-15,  1.9D-14, r^2= 3.9D+00
   Bfn.  Coefficient  Atom+Function         Bfn.  Coefficient  Atom+Function  
  ----- ------------  ---------------      ----- ------------  ---------------
     9      0.991629   1 C  pz               43      0.991629   6 C  pz        
    16     -0.576288   2 H  s                55      0.576288   8 H  s         
    24     -0.502779   3 H  pz               29     -0.502779   4 H  pz        
    34     -0.502779   5 H  pz               53     -0.502779   7 H  pz        
    63     -0.502779   9 H  pz               68     -0.502779  10 H  pz        

 Vector   57  Occ=0.000000D+00  E= 2.164744D+00  Symmetry=eu
              MO Center=  3.7D-15,  3.0D-15, -6.3D-12, r^2= 4.8D+00
   Bfn.  Coefficient  Atom+Function         Bfn.  Coefficient  Atom+Function  
  ----- ------------  ---------------      ----- ------------  ---------------
    13      0.714175   1 C  d  1             47     -0.714175   6 C  d  1      
    14     -0.449108   1 C  d  2             48      0.449108   6 C  d  2      
    17      0.421216   2 H  px               56      0.421216   8 H  px        
    34      0.412285   5 H  pz               53      0.412285   7 H  pz        
    23     -0.332544   3 H  py               62     -0.332544   9 H  py        

 Vector   58  Occ=0.000000D+00  E= 2.164744D+00  Symmetry=eu
              MO Center= -1.3D-15,  5.0D-15, -6.2D-12, r^2= 4.8D+00
   Bfn.  Coefficient  Atom+Function         Bfn.  Coefficient  Atom+Function  
  ----- ------------  ---------------      ----- ------------  ---------------
    11      0.714175   1 C  d -1             45     -0.714175   6 C  d -1      
    10     -0.449108   1 C  d -2             44      0.449108   6 C  d -2      
    33      0.426428   5 H  py               52      0.426428   7 H  py        
    18     -0.421216   2 H  py               57     -0.421216   8 H  py        
    24     -0.380302   3 H  pz               63     -0.380302   9 H  pz        

 Vector   59  Occ=0.000000D+00  E= 2.164887D+00  Symmetry=eg
              MO Center= -4.4D-15,  2.7D-15,  6.1D-12, r^2= 4.7D+00
   Bfn.  Coefficient  Atom+Function         Bfn.  Coefficient  Atom+Function  
  ----- ------------  ---------------      ----- ------------  ---------------
    13      0.621635   1 C  d  1             47      0.621635   6 C  d  1      
    14     -0.558653   1 C  d  2             48     -0.558653   6 C  d  2      
    34      0.424880   5 H  pz               53     -0.424880   7 H  pz        
    17      0.388673   2 H  px               56     -0.388673   8 H  px        
    23     -0.327999   3 H  py               62      0.327999   9 H  py        

 Vector   60  Occ=0.000000D+00  E= 2.164887D+00  Symmetry=eg
              MO Center=  6.0D-15, -9.9D-16,  6.3D-12, r^2= 4.7D+00
   Bfn.  Coefficient  Atom+Function         Bfn.  Coefficient  Atom+Function  
  ----- ------------  ---------------      ----- ------------  ---------------
    11      0.621635   1 C  d -1             45      0.621635   6 C  d -1      
    10     -0.558653   1 C  d -2             44     -0.558653   6 C  d -2      
    33      0.436792   5 H  py               52     -0.436792   7 H  py        
    24     -0.410479   3 H  pz               63      0.410479   9 H  pz        
    18     -0.388673   2 H  py               57      0.388673   8 H  py        

 Vector   61  Occ=0.000000D+00  E= 2.302841D+00  Symmetry=a1g
              MO Center= -1.2D-15, -5.4D-15, -6.5D-17, r^2= 4.8D+00
   Bfn.  Coefficient  Atom+Function         Bfn.  Coefficient  Atom+Function  
  ----- ------------  ---------------      ----- ------------  ---------------
     3      1.135244   1 C  s                37      1.135244   6 C  s         
     2      0.968049   1 C  s                36      0.968049   6 C  s         
    28     -0.526070   4 H  py               32      0.526070   5 H  px        
    51     -0.526070   7 H  px               67      0.526070  10 H  py        
    19      0.491656   2 H  pz               58     -0.491656   8 H  pz        

 Vector   62  Occ=0.000000D+00  E= 2.319847D+00  Symmetry=a2u
              MO Center= -6.6D-16, -2.1D-15,  5.0D-15, r^2= 4.3D+00
   Bfn.  Coefficient  Atom+Function         Bfn.  Coefficient  Atom+Function  
  ----- ------------  ---------------      ----- ------------  ---------------
     3      1.338560   1 C  s                37     -1.338560   6 C  s         
     2      0.894345   1 C  s                36     -0.894345   6 C  s         
    28     -0.582056   4 H  py               32      0.582056   5 H  px        
    51      0.582056   7 H  px               67     -0.582056  10 H  py        
    20     -0.470027   3 H  s                25     -0.470027   4 H  s         

 Vector   63  Occ=0.000000D+00  E= 2.337046D+00  Symmetry=eg
              MO Center= -7.6D-14,  2.8D-14,  5.0D-14, r^2= 4.2D+00
   Bfn.  Coefficient  Atom+Function         Bfn.  Coefficient  Atom+Function  
  ----- ------------  ---------------      ----- ------------  ---------------
     4      0.891372   1 C  px               38     -0.891372   6 C  px        
    30     -0.854492   5 H  s                49     -0.854492   7 H  s         
    20      0.810942   3 H  s                59      0.810942   9 H  s         
    32      0.789695   5 H  px               51     -0.789695   7 H  px        
     7      0.669475   1 C  px               41     -0.669475   6 C  px        

 Vector   64  Occ=0.000000D+00  E= 2.337046D+00  Symmetry=eg
              MO Center= -9.6D-14, -2.2D-13,  1.4D-12, r^2= 4.2D+00
   Bfn.  Coefficient  Atom+Function         Bfn.  Coefficient  Atom+Function  
  ----- ------------  ---------------      ----- ------------  ---------------
    25      0.961539   4 H  s                64      0.961539  10 H  s         
     5      0.891372   1 C  py               28      0.888812   4 H  py        
    39     -0.891372   6 C  py               67     -0.888812  10 H  py        
     8      0.669475   1 C  py               42     -0.669475   6 C  py        
    14      0.646950   1 C  d  2             48      0.646950   6 C  d  2      

 Vector   65  Occ=0.000000D+00  E= 2.352530D+00  Symmetry=a1g
              MO Center= -4.9D-15, -8.7D-15,  1.4D-15, r^2= 6.2D+00
   Bfn.  Coefficient  Atom+Function         Bfn.  Coefficient  Atom+Function  
  ----- ------------  ---------------      ----- ------------  ---------------
    15     -1.075632   2 H  s                54     -1.075632   8 H  s         
    19      1.048803   2 H  pz               58     -1.048803   8 H  pz        
    12      1.010523   1 C  d  0             46      1.010523   6 C  d  0      
     6      0.910107   1 C  pz               40     -0.910107   6 C  pz        
     9      0.639688   1 C  pz               43     -0.639688   6 C  pz        

 Vector   66  Occ=0.000000D+00  E= 2.355584D+00  Symmetry=eu
              MO Center=  3.2D-15,  1.2D-15,  3.1D-15, r^2= 4.2D+00
   Bfn.  Coefficient  Atom+Function         Bfn.  Coefficient  Atom+Function  
  ----- ------------  ---------------      ----- ------------  ---------------
    30     -0.920607   5 H  s                49      0.920607   7 H  s         
     4      0.891043   1 C  px               38      0.891043   6 C  px        
    20      0.802858   3 H  s                32      0.801455   5 H  px        
    51      0.801455   7 H  px               59     -0.802858   9 H  s         
     7      0.728479   1 C  px               41      0.728479   6 C  px        

 Vector   67  Occ=0.000000D+00  E= 2.355584D+00  Symmetry=eu
              MO Center=  1.7D-13,  1.8D-13, -1.5D-12, r^2= 4.2D+00
   Bfn.  Coefficient  Atom+Function         Bfn.  Coefficient  Atom+Function  
  ----- ------------  ---------------      ----- ------------  ---------------
    25      0.995043   4 H  s                64     -0.995043  10 H  s         
     5      0.891043   1 C  py               39      0.891043   6 C  py        
    28      0.862401   4 H  py               67      0.862401  10 H  py        
     8      0.728479   1 C  py               42      0.728479   6 C  py        
    14      0.673610   1 C  d  2             48     -0.673610   6 C  d  2      

 Vector   68  Occ=0.000000D+00  E= 2.373986D+00  Symmetry=a2u
              MO Center= -1.7D-15,  1.0D-14, -4.9D-15, r^2= 7.1D+00
   Bfn.  Coefficient  Atom+Function         Bfn.  Coefficient  Atom+Function  
  ----- ------------  ---------------      ----- ------------  ---------------
    15      1.193738   2 H  s                54     -1.193738   8 H  s         
    19     -1.119202   2 H  pz               58     -1.119202   8 H  pz        
     9     -1.069433   1 C  pz               43     -1.069433   6 C  pz        
    12     -0.974410   1 C  d  0             46      0.974410   6 C  d  0      
     6     -0.841303   1 C  pz               40     -0.841303   6 C  pz        


 Task  times  cpu:        0.1s     wall:        0.1s


                                NWChem Input Module
                                -------------------


 Summary of allocated global arrays
-----------------------------------
  No active global arrays



                         GA Statistics for process    0
                         ------------------------------

       create   destroy   get      put      acc     scatter   gather  read&inc
calls: 1238     1238     6.05e+04 8355     4.10e+04   42        0     6015     
number of processes/call 1.16e+00 1.42e+00 1.06e+00 0.00e+00 0.00e+00
bytes total:             5.51e+07 8.87e+06 2.97e+07 4.62e+03 0.00e+00 4.81e+04
bytes remote:            2.96e+07 3.11e+06 1.62e+07 -4.62e+03 0.00e+00 0.00e+00
Max memory consumed for GA by this process: 283320 bytes

MA_summarize_allocated_blocks: starting scan ...
heap block 'gridpts', handle 54, address 0x5613d160c540:
	type of elements:		double precision
	number of elements:		34431210
	address of client space:	0x5613d160c5c0
	index for client space:		14198987
	total number of bytes:		275449816
MA_summarize_allocated_blocks: scan completed: 1 heap block, 0 stack blocks
MA usage statistics:

	allocation statistics:
					      heap	     stack
					      ----	     -----
	current number of blocks	         1	         0
	maximum number of blocks	        25	        57
	current total bytes		 275449816	         0
	maximum total bytes		 276172832	  26171464
	maximum total K-bytes		    276173	     26172
	maximum total M-bytes		       277	        27


                                     CITATION
                                     --------
                Please cite the following reference when publishing
                           results obtained with NWChem:

                 M. Valiev, E.J. Bylaska, N. Govind, K. Kowalski,
              T.P. Straatsma, H.J.J. van Dam, D. Wang, J. Nieplocha,
                        E. Apra, T.L. Windus, W.A. de Jong
                 "NWChem: a comprehensive and scalable open-source
                  solution for large scale molecular simulations"
                      Comput. Phys. Commun. 181, 1477 (2010)
                           doi:10.1016/j.cpc.2010.04.018

                                      AUTHORS
                                      -------
          E. Apra, E. J. Bylaska, W. A. de Jong, N. Govind, K. Kowalski,
       T. P. Straatsma, M. Valiev, H. J. J. van Dam, D. Wang, T. L. Windus,
        J. Hammond, J. Autschbach, K. Bhaskaran-Nair, J. Brabec, K. Lopata,
    S. A. Fischer, S. Krishnamoorthy, M. Jacquelin, W. Ma, M. Klemm, O. Villa,
      Y. Chen, V. Anisimov, F. Aquino, S. Hirata, M. T. Hackler, V. Konjkov,
            D. Mejia-Rodriguez, T. Risthaus, M. Malagoli, A. Marenich,
   A. Otero-de-la-Roza, J. Mullin, P. Nichols, R. Peverati, J. Pittner, Y. Zhao,
        P.-D. Fan, A. Fonari, M. J. Williamson, R. J. Harrison, J. R. Rehr,
      M. Dupuis, D. Silverstein, D. M. A. Smith, J. Nieplocha, V. Tipparaju,
    M. Krishnan, B. E. Van Kuiken, A. Vazquez-Mayagoitia, L. Jensen, M. Swart,
      Q. Wu, T. Van Voorhis, A. A. Auer, M. Nooijen, L. D. Crosby, E. Brown,
      G. Cisneros, G. I. Fann, H. Fruchtl, J. Garza, K. Hirao, R. A. Kendall,
      J. A. Nichols, K. Tsemekhman, K. Wolinski, J. Anchell, D. E. Bernholdt,
      P. Borowski, T. Clark, D. Clerc, H. Dachsel, M. J. O. Deegan, K. Dyall,
    D. Elwood, E. Glendening, M. Gutowski, A. C. Hess, J. Jaffe, B. G. Johnson,
     J. Ju, R. Kobayashi, R. Kutteh, Z. Lin, R. Littlefield, X. Long, B. Meng,
      T. Nakajima, S. Niu, L. Pollack, M. Rosing, K. Glaesemann, G. Sandrone,
      M. Stave, H. Taylor, G. Thomas, J. H. van Lenthe, A. T. Wong, Z. Zhang.

 Total times  cpu:        3.8s     wall:        3.8s
