 argument  1 = /home/list1234/source/nwchem-6.8.1-release/QA/tests/disp_dimer_ch4/disp_dimer_ch4.nw



============================== echo of input deck ==============================
echo
# calculation for methane dimer Grimme JCC 2004
# with BLYP/TZVP2P

title "ch4_2"


start ch4_2

geometry units angstroms noautoz
 C 0.00000000 0.00000000 1.78977169
 H 0.00000000 0.00000000 2.88489619
 H -0.72912121 0.72912121 1.42221856
 H -0.26687689 -0.99599810 1.42221856
 H 0.99599810 0.26687689 1.42221856
 C 0.00000000 0.00000000 -1.78977169
 H -0.99599810 -0.26687689 -1.42221856
 H 0.00000000 0.00000000 -2.88489619
 H 0.72912121 -0.72912121 -1.42221856
 H 0.26687689 0.99599810 -1.42221856
end


basis "ao basis" spherical noprint
# basis set TZVP2P(2d,2p), polarization from aug-cc-pvtz
  C    S
     13575.349682000      0.00022246
      2035.233368000      0.00172327
       463.225623590      0.00892557
       131.200195980      0.03572798
        42.853015891      0.11076260
        15.584185766      0.24295628
  C    S
         6.206713851      0.41440263
         2.576489653      0.23744969
  C    S
         0.576963394      1.00000000
  C    S
         0.229728314      1.00000000
  C    S
         0.095164440      1.00000000
  C    P
        34.697232244      0.00533337
         7.958262283      0.03586411
         2.378082688      0.14215873
         0.814332082      0.34270472
  C    P
         0.288875473      1.00000000
  C    P
         0.100568237      1.00000000
#aug-cc-pVTZ part for C
   C   D
   1.0970000000       1.0000000000
   C   D
  0.31800000000       1.0000000000

    H  S
    34.061341      .60251978E-02
    5.1235746      .45021094E-01
    1.1646626      .20189726
    H  S
    .32723041      1.0000000
    H  S
    .10307241      1.0000000
#aug-cc-pVTZ part for H
   H   P
   1.4070000000       1.0000000000
   H   P
  0.38800000000       1.0000000000

end


basis "cd basis"  spherical noprint
  *   library "Ahlrichs Coulomb Fitting"
end


dft
 xc  becke88 1. lyp 1.
 vectors output ch4_2.movecs
 direct
 disp vdw 1
end
task dft optimize

dft
 disp vdw 3
end
task dft energy
================================================================================


                                         
                                         


              Northwest Computational Chemistry Package (NWChem) 6.8
              ------------------------------------------------------


                    Environmental Molecular Sciences Laboratory
                       Pacific Northwest National Laboratory
                                Richland, WA 99352

                              Copyright (c) 1994-2018
                       Pacific Northwest National Laboratory
                            Battelle Memorial Institute

             NWChem is an open-source computational chemistry package
                        distributed under the terms of the
                      Educational Community License (ECL) 2.0
             A copy of the license is included with this distribution
                              in the LICENSE.TXT file

                                  ACKNOWLEDGMENT
                                  --------------

            This software and its documentation were developed at the
            EMSL at Pacific Northwest National Laboratory, a multiprogram
            national laboratory, operated for the U.S. Department of Energy
            by Battelle under Contract Number DE-AC05-76RL01830. Support
            for this work was provided by the Department of Energy Office
            of Biological and Environmental Research, Office of Basic
            Energy Sciences, and the Office of Advanced Scientific Computing.


           Job information
           ---------------

    hostname        = list1234-B360M-H
    program         = /home/list1234/source/nwchem-6.8.1-release/bin/LINUX64/nwchem
    date            = Sun Jun 30 07:48:16 2019

    compiled        = Sun_Jun_30_05:21:11_2019
    source          = /home/list1234/source/nwchem-6.8.1-release
    nwchem branch   = Development
    nwchem revision = N/A
    ga revision     = 5.6.5
    use scalapack   = T
    input           = /home/list1234/source/nwchem-6.8.1-release/QA/tests/disp_dimer_ch4/disp_dimer_ch4.nw
    prefix          = ch4_2.
    data base       = ./ch4_2.db
    status          = startup
    nproc           =        4
    time left       =     -1s



           Memory information
           ------------------

    heap     =   86247164 doubles =    658.0 Mbytes
    stack    =   86247169 doubles =    658.0 Mbytes
    global   =  172494336 doubles =   1316.0 Mbytes (distinct from heap & stack)
    total    =  344988669 doubles =   2632.1 Mbytes
    verify   = yes
    hardfail = no 


           Directory information
           ---------------------

  0 permanent = .
  0 scratch   = .




                                NWChem Input Module
                                -------------------


                                       ch4_2
                                       -----

 Scaling coordinates for geometry "geometry" by  1.889725989
 (inverse scale =  0.529177249)

 D3D symmetry detected


                             Geometry "geometry" -> ""
                             -------------------------

 Output coordinates in angstroms (scale by  1.889725989 to convert to a.u.)

  No.       Tag          Charge          X              Y              Z
 ---- ---------------- ---------- -------------- -------------- --------------
    1 C                    6.0000    -0.00000000     0.00000000     1.78977169
    2 H                    1.0000     0.00000000    -0.00000000     2.88489619
    3 H                    1.0000    -0.72912121     0.72912121     1.42221856
    4 H                    1.0000    -0.26687689    -0.99599810     1.42221856
    5 H                    1.0000     0.99599810     0.26687689     1.42221856
    6 C                    6.0000     0.00000000     0.00000000    -1.78977169
    7 H                    1.0000    -0.99599810    -0.26687689    -1.42221856
    8 H                    1.0000    -0.00000000     0.00000000    -2.88489619
    9 H                    1.0000     0.72912121    -0.72912121    -1.42221856
   10 H                    1.0000     0.26687689     0.99599810    -1.42221856

      Atomic Mass 
      ----------- 

      C                 12.000000
      H                  1.007825


 Effective nuclear repulsion energy (a.u.)      41.3906222755

            Nuclear Dipole moment (a.u.) 
            ----------------------------
        X                 Y               Z
 ---------------- ---------------- ----------------
    -0.0000000000    -0.0000000000    -0.0000000000

      Symmetry information
      --------------------

 Group name             D3d       
 Group number             33
 Group order              12
 No. of unique centers     3

      Symmetry unique atoms

     1    2    3


            XYZ format geometry
            -------------------
    10
 geometry
 C                    -0.00000000     0.00000000     1.78977169
 H                     0.00000000    -0.00000000     2.88489619
 H                    -0.72912121     0.72912121     1.42221856
 H                    -0.26687689    -0.99599810     1.42221856
 H                     0.99599810     0.26687689     1.42221856
 C                     0.00000000     0.00000000    -1.78977169
 H                    -0.99599810    -0.26687689    -1.42221856
 H                    -0.00000000     0.00000000    -2.88489619
 H                     0.72912121    -0.72912121    -1.42221856
 H                     0.26687689     0.99599810    -1.42221856

 ==============================================================================
                                internuclear distances
 ------------------------------------------------------------------------------
       center one      |      center two      | atomic units |  angstroms
 ------------------------------------------------------------------------------
    2 H                |   1 C                |     2.06949  |     1.09512
    3 H                |   1 C                |     2.06865  |     1.09468
    4 H                |   1 C                |     2.06865  |     1.09468
    5 H                |   1 C                |     2.06865  |     1.09468
    7 H                |   6 C                |     2.06865  |     1.09468
    8 H                |   6 C                |     2.06949  |     1.09512
    9 H                |   6 C                |     2.06865  |     1.09468
   10 H                |   6 C                |     2.06865  |     1.09468
 ------------------------------------------------------------------------------
                         number of included internuclear distances:          8
 ==============================================================================



 ==============================================================================
                                 internuclear angles
 ------------------------------------------------------------------------------
        center 1       |       center 2       |       center 3       |  degrees
 ------------------------------------------------------------------------------
    2 H                |   1 C                |   3 H                |   109.62
    2 H                |   1 C                |   4 H                |   109.62
    2 H                |   1 C                |   5 H                |   109.62
    3 H                |   1 C                |   4 H                |   109.32
    3 H                |   1 C                |   5 H                |   109.32
    4 H                |   1 C                |   5 H                |   109.32
    7 H                |   6 C                |   8 H                |   109.62
    7 H                |   6 C                |   9 H                |   109.32
    7 H                |   6 C                |  10 H                |   109.32
    8 H                |   6 C                |   9 H                |   109.62
    8 H                |   6 C                |  10 H                |   109.62
    9 H                |   6 C                |  10 H                |   109.32
 ------------------------------------------------------------------------------
                            number of included internuclear angles:         12
 ==============================================================================





                           NWChem Geometry Optimization
                           ----------------------------




                                       ch4_2


 maximum gradient threshold         (gmax) =   0.000450
 rms gradient threshold             (grms) =   0.000300
 maximum cartesian step threshold   (xmax) =   0.001800
 rms cartesian step threshold       (xrms) =   0.001200
 fixed trust radius                (trust) =   0.300000
 maximum step size to saddle      (sadstp) =   0.100000
 energy precision                  (eprec) =   5.0D-06
 maximum number of steps          (nptopt) =   20
 initial hessian option           (inhess) =    0
 line search option               (linopt) =    1
 hessian update option            (modupd) =    1
 saddle point option              (modsad) =    0
 initial eigen-mode to follow     (moddir) =    0
 initial variable to follow       (vardir) =    0
 follow first negative mode     (firstneg) =    T
 apply conjugacy                    (opcg) =    F
 source of zmatrix                         =           


          -------------------
          Energy Minimization
          -------------------


 Using diagonal initial Hessian 

          --------
          Step   0
          --------


                         Geometry "geometry" -> "geometry"
                         ---------------------------------

 Output coordinates in angstroms (scale by  1.889725989 to convert to a.u.)

  No.       Tag          Charge          X              Y              Z
 ---- ---------------- ---------- -------------- -------------- --------------
    1 C                    6.0000    -0.00000000     0.00000000     1.78977169
    2 H                    1.0000     0.00000000    -0.00000000     2.88489619
    3 H                    1.0000    -0.72912121     0.72912121     1.42221856
    4 H                    1.0000    -0.26687689    -0.99599810     1.42221856
    5 H                    1.0000     0.99599810     0.26687689     1.42221856
    6 C                    6.0000     0.00000000     0.00000000    -1.78977169
    7 H                    1.0000    -0.99599810    -0.26687689    -1.42221856
    8 H                    1.0000    -0.00000000     0.00000000    -2.88489619
    9 H                    1.0000     0.72912121    -0.72912121    -1.42221856
   10 H                    1.0000     0.26687689     0.99599810    -1.42221856

      Atomic Mass 
      ----------- 

      C                 12.000000
      H                  1.007825


 Effective nuclear repulsion energy (a.u.)      41.3906222755

            Nuclear Dipole moment (a.u.) 
            ----------------------------
        X                 Y               Z
 ---------------- ---------------- ----------------
    -0.0000000000    -0.0000000000    -0.0000000000

      Symmetry information
      --------------------

 Group name             D3d       
 Group number             33
 Group order              12
 No. of unique centers     3

      Symmetry unique atoms

     1    2    3


                                 NWChem DFT Module
                                 -----------------


                                       ch4_2




 Summary of "ao basis" -> "ao basis" (spherical)
 ------------------------------------------------------------------------------
       Tag                 Description            Shells   Functions and Types
 ---------------- ------------------------------  ------  ---------------------
 C                       user specified             10       24   5s3p2d
 H                       user specified              5        9   3s2p


      Symmetry analysis of basis
      --------------------------

        a1g        22
        a1u         2
        a2g         2
        a2u        22
        eg         36
        eu         36

  Caching 1-el integrals 
  Rotation of axis 

            General Information
            -------------------
          SCF calculation type: DFT
          Wavefunction type:  closed shell.
          No. of atoms     :    10
          No. of electrons :    20
           Alpha electrons :    10
            Beta electrons :    10
          Charge           :     0
          Spin multiplicity:     1
          Use of symmetry is: on ; symmetry adaption is: on 
          Maximum number of iterations:  30
          This is a Direct SCF calculation.
          AO basis - number of functions:   120
                     number of shells:    60
          A Charge density fitting basis will be used.
          CD basis - number of functions:   188
                     number of shells:    76
          Convergence on energy requested:  1.00D-06
          Convergence on density requested:  1.00D-05
          Convergence on gradient requested:  5.00D-04

              XC Information
              --------------
                    Becke 1988 Exchange Functional  1.000          
              Lee-Yang-Parr Correlation Functional  1.000          

             Grid Information
             ----------------
          Grid used for XC integration:  medium    
          Radial quadrature: Mura-Knowles        
          Angular quadrature: Lebedev. 
          Tag              B.-S. Rad. Rad. Pts. Rad. Cut. Ang. Pts.
          ---              ---------- --------- --------- ---------
          C                   0.70       49          12.0       434
          H                   0.35       45          14.0       434
          Grid pruning is: on 
          Number of quadrature shells:   139
          Spatial weights used:  Erf1

          Convergence Information
          -----------------------
          Convergence aids based upon iterative change in 
          total energy or number of iterations. 
          Levelshifting, if invoked, occurs when the 
          HOMO/LUMO gap drops below (HL_TOL):  1.00D-02
          DIIS, if invoked, will attempt to extrapolate 
          using up to (NFOCK): 10 stored Fock matrices.

                    Damping( 0%)  Levelshifting(0.5)       DIIS
                  --------------- ------------------- ---------------
          dE  on:    start            ASAP                start   
          dE off:    2 iters         30 iters            30 iters 


      Screening Tolerance Information
      -------------------------------
          Density screening/tol_rho:  1.00D-10
          AO Gaussian exp screening on grid/accAOfunc:  14
          CD Gaussian exp screening on grid/accCDfunc:  20
          XC Gaussian exp screening on grid/accXCfunc:  20
          Schwarz screening/accCoul:  1.00D-08

      Dispersion Parameters
      ---------------------

          s6 scale factor :        1.400000000000
              vdW contrib :       -0.002536153039


      Superposition of Atomic Density Guess
      -------------------------------------

 Sum of atomic energies:         -79.34113001

      Non-variational initial energy
      ------------------------------

 Total energy =     -80.486460
 1-e energy   =    -185.596819
 2-e energy   =      63.719736
 HOMO         =      -0.504988
 LUMO         =       0.062506


      Symmetry analysis of molecular orbitals - initial
      -------------------------------------------------

  Numbering of irreducible representations: 

     1 a1g         2 a1u         3 a2g         4 a2u         5 eg      
     6 eu      

  Orbital symmetries:

     1 a1g         2 a2u         3 a1g         4 a2u         5 a1g     
     6 eu          7 eu          8 eg          9 eg         10 a2u     
    11 a1g        12 a2u        13 eu         14 eu         15 a1g     
    16 eg         17 eg         18 a2u        19 a1g        20 eu      

   Time after variat. SCF:      0.2

      3 Center 2 Electron Integral Information
      ----------------------------------------
          Maximum number of 3-center 2e- integrals is:         2707200.
            This is reduced with Schwarz screening to:         1441960.
            Incore requires a per proc buffer size of:          344229.
          Minimum dble words available (all nodes) is:       172485380
                   This is reduced (for later use) to:       172212863
                      proc 0 Suggested buffer size is:          344229
                         Max Suggested buffer size is:          380701
                              no. integral batches is:            1000

          Incore memory use for 3-center 2e- integrals is turned off. 
   Time prior to 1st pass:      0.2

 Grid_pts file          = ./ch4_2.gridpts.0
 Record size in doubles =  12289        No. of grid_pts per rec  =   3070
 Max. records in memory =      7        Max. recs in file   = 253312716


           Memory utilization after 1st SCF pass: 
           Heap Space remaining (MW):       51.73            51728756
          Stack Space remaining (MW):       86.25            86246220

   convergence    iter        energy       DeltaE   RMS-Dens  Diis-err    time
 ---------------- ----- ----------------- --------- --------- ---------  ------
 d= 0,ls=0.0,diis     1    -80.9758367538 -1.22D+02  3.76D-03  3.68D-01     0.3
 d= 0,ls=0.0,diis     2    -80.9992278422 -2.34D-02  1.34D-03  3.62D-02     0.5
 d= 0,ls=0.0,diis     3    -80.9974762825  1.75D-03  7.26D-04  5.14D-02     0.6
 d= 0,ls=0.0,diis     4    -81.0037519146 -6.28D-03  2.50D-05  1.70D-05     0.8
 d= 0,ls=0.0,diis     5    -81.0037547296 -2.81D-06  4.58D-06  1.02D-06     0.9
 d= 0,ls=0.0,diis     6    -81.0037548747 -1.45D-07  1.24D-06  6.60D-08     1.1


         Total DFT energy =      -81.003754874691
      One electron energy =     -188.758859146514
           Coulomb energy =       80.106510294350
    Exchange-Corr. energy =      -13.739492144964
 Nuclear repulsion energy =       41.390622275475

    Dispersion correction =       -0.002536153039

 Numeric. integr. density =       19.999985368034

     Total iterative time =      0.9s



                  Occupations of the irreducible representations
                  ----------------------------------------------

                     irrep           alpha         beta
                     --------     --------     --------
                     a1g               3.0          3.0
                     a1u               0.0          0.0
                     a2g               0.0          0.0
                     a2u               3.0          3.0
                     eg                2.0          2.0
                     eu                2.0          2.0


                       DFT Final Molecular Orbital Analysis
                       ------------------------------------

 Vector    1  Occ=2.000000D+00  E=-9.887177D+00  Symmetry=a1g
              MO Center= -9.0D-21,  7.6D-21,  1.7D-17, r^2= 3.2D+00
   Bfn.  Coefficient  Atom+Function         Bfn.  Coefficient  Atom+Function  
  ----- ------------  ---------------      ----- ------------  ---------------
     2      0.429432   1 C  s                62      0.429432   6 C  s         
     1      0.330334   1 C  s                61      0.330334   6 C  s         
     3      0.030149   1 C  s                63      0.030149   6 C  s         
     4     -0.028710   1 C  s                64     -0.028710   6 C  s         
     5      0.027845   1 C  s                65      0.027845   6 C  s         

 Vector    2  Occ=2.000000D+00  E=-9.887172D+00  Symmetry=a2u
              MO Center=  2.0D-20,  2.8D-20,  6.0D-16, r^2= 3.2D+00
   Bfn.  Coefficient  Atom+Function         Bfn.  Coefficient  Atom+Function  
  ----- ------------  ---------------      ----- ------------  ---------------
     2      0.429462   1 C  s                62     -0.429462   6 C  s         
     1      0.330330   1 C  s                61     -0.330330   6 C  s         
     5      0.030592   1 C  s                65     -0.030592   6 C  s         
     3      0.029867   1 C  s                63     -0.029867   6 C  s         
     4     -0.027645   1 C  s                64      0.027645   6 C  s         

 Vector    3  Occ=2.000000D+00  E=-6.207841D-01  Symmetry=a1g
              MO Center=  1.6D-17, -1.4D-17, -5.1D-16, r^2= 4.1D+00
   Bfn.  Coefficient  Atom+Function         Bfn.  Coefficient  Atom+Function  
  ----- ------------  ---------------      ----- ------------  ---------------
     3      0.235786   1 C  s                63      0.235786   6 C  s         
     4      0.202919   1 C  s                64      0.202919   6 C  s         
     2     -0.142459   1 C  s                62     -0.142459   6 C  s         
     5      0.073510   1 C  s                65      0.073510   6 C  s         
     1     -0.068031   1 C  s                35      0.068356   3 H  s         

 Vector    4  Occ=2.000000D+00  E=-6.155017D-01  Symmetry=a2u
              MO Center=  1.6D-18,  1.2D-17,  6.0D-16, r^2= 4.3D+00
   Bfn.  Coefficient  Atom+Function         Bfn.  Coefficient  Atom+Function  
  ----- ------------  ---------------      ----- ------------  ---------------
     3      0.239914   1 C  s                63     -0.239914   6 C  s         
     4      0.203631   1 C  s                64     -0.203631   6 C  s         
     2     -0.144337   1 C  s                62      0.144337   6 C  s         
     5      0.072802   1 C  s                65     -0.072802   6 C  s         
    26      0.072275   2 H  s                95     -0.072275   8 H  s         

 Vector    5  Occ=2.000000D+00  E=-3.494646D-01  Symmetry=a1g
              MO Center= -6.5D-15,  2.7D-15, -7.1D-14, r^2= 5.7D+00
   Bfn.  Coefficient  Atom+Function         Bfn.  Coefficient  Atom+Function  
  ----- ------------  ---------------      ----- ------------  ---------------
     8      0.232568   1 C  pz               68     -0.232568   6 C  pz        
    26      0.172607   2 H  s                95      0.172607   8 H  s         
    11      0.162719   1 C  pz               71     -0.162719   6 C  pz        
    25      0.131903   2 H  s                94      0.131903   8 H  s         
    27      0.092672   2 H  s                96      0.092672   8 H  s         

 Vector    6  Occ=2.000000D+00  E=-3.456491D-01  Symmetry=eu
              MO Center=  6.1D-15, -3.7D-15, -4.0D-16, r^2= 3.9D+00
   Bfn.  Coefficient  Atom+Function         Bfn.  Coefficient  Atom+Function  
  ----- ------------  ---------------      ----- ------------  ---------------
     6      0.201200   1 C  px               66      0.201200   6 C  px        
    35     -0.152164   3 H  s               104      0.152164   9 H  s         
     9      0.145271   1 C  px               69      0.145271   6 C  px        
    34     -0.120586   3 H  s               103      0.120586   9 H  s         
     7     -0.118241   1 C  py               67     -0.118241   6 C  py        

 Vector    7  Occ=2.000000D+00  E=-3.456491D-01  Symmetry=eu
              MO Center=  3.1D-15, -1.4D-14,  1.0D-13, r^2= 3.9D+00
   Bfn.  Coefficient  Atom+Function         Bfn.  Coefficient  Atom+Function  
  ----- ------------  ---------------      ----- ------------  ---------------
     7      0.201200   1 C  py               67      0.201200   6 C  py        
    44     -0.151536   4 H  s               113      0.151536  10 H  s         
    10      0.145271   1 C  py               70      0.145271   6 C  py        
    43     -0.120089   4 H  s               112      0.120089  10 H  s         
     6      0.118241   1 C  px               66      0.118241   6 C  px        

 Vector    8  Occ=2.000000D+00  E=-3.391739D-01  Symmetry=eg
              MO Center= -3.0D-14, -7.4D-15, -8.6D-14, r^2= 4.0D+00
   Bfn.  Coefficient  Atom+Function         Bfn.  Coefficient  Atom+Function  
  ----- ------------  ---------------      ----- ------------  ---------------
     6      0.182576   1 C  px               66     -0.182576   6 C  px        
     7      0.154629   1 C  py               67     -0.154629   6 C  py        
    53      0.146578   5 H  s                86      0.146578   7 H  s         
    44     -0.133191   4 H  s               113     -0.133191  10 H  s         
     9      0.130590   1 C  px               69     -0.130590   6 C  px        

 Vector    9  Occ=2.000000D+00  E=-3.391739D-01  Symmetry=eg
              MO Center=  4.8D-14, -4.6D-14, -1.6D-14, r^2= 4.0D+00
   Bfn.  Coefficient  Atom+Function         Bfn.  Coefficient  Atom+Function  
  ----- ------------  ---------------      ----- ------------  ---------------
     7      0.182576   1 C  py               67     -0.182576   6 C  py        
    35      0.161525   3 H  s               104      0.161525   9 H  s         
     6     -0.154629   1 C  px               66      0.154629   6 C  px        
    10      0.130590   1 C  py               70     -0.130590   6 C  py        
    34      0.125777   3 H  s               103      0.125777   9 H  s         

 Vector   10  Occ=2.000000D+00  E=-3.359567D-01  Symmetry=a2u
              MO Center= -2.1D-14,  6.9D-14,  7.1D-14, r^2= 5.8D+00
   Bfn.  Coefficient  Atom+Function         Bfn.  Coefficient  Atom+Function  
  ----- ------------  ---------------      ----- ------------  ---------------
     8      0.240284   1 C  pz               68      0.240284   6 C  pz        
    11      0.178061   1 C  pz               71      0.178061   6 C  pz        
    26      0.165121   2 H  s                95     -0.165121   8 H  s         
    25      0.134379   2 H  s                94     -0.134379   8 H  s         
    27      0.103696   2 H  s                96     -0.103696   8 H  s         

 Vector   11  Occ=0.000000D+00  E= 1.290304D-02  Symmetry=a1g
              MO Center= -1.8D-14, -5.7D-16,  1.8D-13, r^2= 7.6D+00
   Bfn.  Coefficient  Atom+Function         Bfn.  Coefficient  Atom+Function  
  ----- ------------  ---------------      ----- ------------  ---------------
     5      2.772866   1 C  s                65      2.772866   6 C  s         
    36     -1.057508   3 H  s                45     -1.057508   4 H  s         
    54     -1.057508   5 H  s                87     -1.057508   7 H  s         
   105     -1.057508   9 H  s               114     -1.057508  10 H  s         
    27     -0.804996   2 H  s                96     -0.804996   8 H  s         

 Vector   12  Occ=0.000000D+00  E= 6.023609D-02  Symmetry=a2u
              MO Center=  1.4D-14, -9.4D-15, -2.3D-13, r^2= 1.1D+01
   Bfn.  Coefficient  Atom+Function         Bfn.  Coefficient  Atom+Function  
  ----- ------------  ---------------      ----- ------------  ---------------
     5      3.121733   1 C  s                65     -3.121733   6 C  s         
    27     -1.199550   2 H  s                96      1.199550   8 H  s         
    36     -1.133167   3 H  s                45     -1.133167   4 H  s         
    54     -1.133167   5 H  s                87      1.133167   7 H  s         
   105      1.133167   9 H  s               114      1.133167  10 H  s         

 Vector   13  Occ=0.000000D+00  E= 9.337324D-02  Symmetry=eu
              MO Center=  1.4D-14,  6.9D-15, -2.7D-16, r^2= 5.9D+00
   Bfn.  Coefficient  Atom+Function         Bfn.  Coefficient  Atom+Function  
  ----- ------------  ---------------      ----- ------------  ---------------
    54      1.622015   5 H  s                87     -1.622015   7 H  s         
    45     -1.086495   4 H  s               114      1.086495  10 H  s         
    12     -0.793899   1 C  px               72     -0.793899   6 C  px        
    36     -0.535521   3 H  s               105      0.535521   9 H  s         
    13     -0.388856   1 C  py               73     -0.388856   6 C  py        

 Vector   14  Occ=0.000000D+00  E= 9.337324D-02  Symmetry=eu
              MO Center=  8.1D-14,  1.0D-14, -3.8D-14, r^2= 5.9D+00
   Bfn.  Coefficient  Atom+Function         Bfn.  Coefficient  Atom+Function  
  ----- ------------  ---------------      ----- ------------  ---------------
    36      1.563759   3 H  s               105     -1.563759   9 H  s         
    45     -1.245654   4 H  s               114      1.245654  10 H  s         
    13     -0.793899   1 C  py               73     -0.793899   6 C  py        
    12      0.388856   1 C  px               72      0.388856   6 C  px        
    54     -0.318105   5 H  s                87      0.318105   7 H  s         

 Vector   15  Occ=0.000000D+00  E= 9.493766D-02  Symmetry=a1g
              MO Center= -4.7D-14,  9.4D-14,  1.6D-14, r^2= 1.1D+01
   Bfn.  Coefficient  Atom+Function         Bfn.  Coefficient  Atom+Function  
  ----- ------------  ---------------      ----- ------------  ---------------
    27      1.939891   2 H  s                96      1.939891   8 H  s         
    14     -1.029742   1 C  pz               74      1.029742   6 C  pz        
    36     -0.558608   3 H  s                45     -0.558608   4 H  s         
    54     -0.558608   5 H  s                87     -0.558608   7 H  s         
   105     -0.558608   9 H  s               114     -0.558608  10 H  s         

 Vector   16  Occ=0.000000D+00  E= 1.078802D-01  Symmetry=eg
              MO Center= -2.3D-14, -1.1D-13,  5.7D-15, r^2= 6.7D+00
   Bfn.  Coefficient  Atom+Function         Bfn.  Coefficient  Atom+Function  
  ----- ------------  ---------------      ----- ------------  ---------------
    54      1.905994   5 H  s                87      1.905994   7 H  s         
    45     -1.322572   4 H  s               114     -1.322572  10 H  s         
    12     -1.243045   1 C  px               72      1.243045   6 C  px        
    13     -0.650408   1 C  py               73      0.650408   6 C  py        
    36     -0.583423   3 H  s               105     -0.583423   9 H  s         

 Vector   17  Occ=0.000000D+00  E= 1.078802D-01  Symmetry=eg
              MO Center= -2.0D-14,  1.0D-14,  2.9D-14, r^2= 6.7D+00
   Bfn.  Coefficient  Atom+Function         Bfn.  Coefficient  Atom+Function  
  ----- ------------  ---------------      ----- ------------  ---------------
    36      1.864013   3 H  s               105      1.864013   9 H  s         
    45     -1.437265   4 H  s               114     -1.437265  10 H  s         
    13     -1.243045   1 C  py               73      1.243045   6 C  py        
    12      0.650408   1 C  px               72     -0.650408   6 C  px        
    54     -0.426748   5 H  s                87     -0.426748   7 H  s         

 Vector   18  Occ=0.000000D+00  E= 1.127139D-01  Symmetry=a2u
              MO Center= -2.6D-15,  7.1D-15,  4.3D-14, r^2= 1.1D+01
   Bfn.  Coefficient  Atom+Function         Bfn.  Coefficient  Atom+Function  
  ----- ------------  ---------------      ----- ------------  ---------------
    27      2.124525   2 H  s                96     -2.124525   8 H  s         
    14     -1.397742   1 C  pz               74     -1.397742   6 C  pz        
    36     -0.791149   3 H  s                45     -0.791149   4 H  s         
    54     -0.791149   5 H  s                87      0.791149   7 H  s         
   105      0.791149   9 H  s               114      0.791149  10 H  s         

 Vector   19  Occ=0.000000D+00  E= 1.753217D-01  Symmetry=a1g
              MO Center=  4.0D-15, -1.6D-14,  1.3D-14, r^2= 6.5D+00
   Bfn.  Coefficient  Atom+Function         Bfn.  Coefficient  Atom+Function  
  ----- ------------  ---------------      ----- ------------  ---------------
    14      0.843147   1 C  pz               74     -0.843147   6 C  pz        
    26     -0.324767   2 H  s                95     -0.324767   8 H  s         
    11     -0.289687   1 C  pz               71      0.289687   6 C  pz        
     4     -0.227218   1 C  s                64     -0.227218   6 C  s         
    36      0.127642   3 H  s                45      0.127642   4 H  s         

 Vector   20  Occ=0.000000D+00  E= 1.827718D-01  Symmetry=eu
              MO Center= -1.8D-15,  2.1D-14, -7.0D-14, r^2= 8.2D+00
   Bfn.  Coefficient  Atom+Function         Bfn.  Coefficient  Atom+Function  
  ----- ------------  ---------------      ----- ------------  ---------------
    12      1.161756   1 C  px               72      1.161756   6 C  px        
    13     -0.956205   1 C  py               73     -0.956205   6 C  py        
    36      0.805574   3 H  s               105     -0.805574   9 H  s         
    54     -0.470494   5 H  s                87      0.470494   7 H  s         
    35      0.402809   3 H  s               104     -0.402809   9 H  s         

 Vector   21  Occ=0.000000D+00  E= 1.827718D-01  Symmetry=eu
              MO Center=  6.7D-15,  8.5D-15, -1.7D-15, r^2= 8.2D+00
   Bfn.  Coefficient  Atom+Function         Bfn.  Coefficient  Atom+Function  
  ----- ------------  ---------------      ----- ------------  ---------------
    13      1.161756   1 C  py               73      1.161756   6 C  py        
    12      0.956205   1 C  px               72      0.956205   6 C  px        
    45      0.736738   4 H  s               114     -0.736738  10 H  s         
    54     -0.658556   5 H  s                87      0.658556   7 H  s         
    44      0.368389   4 H  s               113     -0.368389  10 H  s         

 Vector   22  Occ=0.000000D+00  E= 1.901007D-01  Symmetry=eg
              MO Center= -2.7D-15, -1.7D-14,  7.6D-14, r^2= 8.6D+00
   Bfn.  Coefficient  Atom+Function         Bfn.  Coefficient  Atom+Function  
  ----- ------------  ---------------      ----- ------------  ---------------
    12      0.929764   1 C  px               72     -0.929764   6 C  px        
    53     -0.368849   5 H  s                86     -0.368849   7 H  s         
     9     -0.295355   1 C  px               69      0.295355   6 C  px        
    54      0.238517   5 H  s                87      0.238517   7 H  s         
    35      0.233112   3 H  s               104      0.233112   9 H  s         

 Vector   23  Occ=0.000000D+00  E= 1.901007D-01  Symmetry=eg
              MO Center= -1.6D-15, -4.3D-15, -3.4D-15, r^2= 8.6D+00
   Bfn.  Coefficient  Atom+Function         Bfn.  Coefficient  Atom+Function  
  ----- ------------  ---------------      ----- ------------  ---------------
    13      0.929764   1 C  py               73     -0.929764   6 C  py        
    44      0.347542   4 H  s               113      0.347542  10 H  s         
    10     -0.295355   1 C  py               70      0.295355   6 C  py        
    35     -0.291322   3 H  s               104     -0.291322   9 H  s         
    45     -0.224739   4 H  s               114     -0.224739  10 H  s         

 Vector   24  Occ=0.000000D+00  E= 3.593892D-01  Symmetry=a2u
              MO Center=  4.5D-16,  4.1D-15, -1.9D-14, r^2= 8.4D+00
   Bfn.  Coefficient  Atom+Function         Bfn.  Coefficient  Atom+Function  
  ----- ------------  ---------------      ----- ------------  ---------------
     5      5.717393   1 C  s                65     -5.717393   6 C  s         
    27     -1.572308   2 H  s                96      1.572308   8 H  s         
     4     -1.390107   1 C  s                36     -1.392636   3 H  s         
    45     -1.392636   4 H  s                54     -1.392636   5 H  s         
    64      1.390107   6 C  s                87      1.392636   7 H  s         

 Vector   25  Occ=0.000000D+00  E= 3.654062D-01  Symmetry=a1g
              MO Center=  4.0D-14,  2.0D-14,  1.8D-12, r^2= 8.9D+00
   Bfn.  Coefficient  Atom+Function         Bfn.  Coefficient  Atom+Function  
  ----- ------------  ---------------      ----- ------------  ---------------
     5      9.534009   1 C  s                65      9.534009   6 C  s         
     4     -2.619048   1 C  s                27     -2.630088   2 H  s         
    64     -2.619048   6 C  s                96     -2.630088   8 H  s         
    36     -2.153344   3 H  s                45     -2.153344   4 H  s         
    54     -2.153344   5 H  s                87     -2.153344   7 H  s         

 Vector   26  Occ=0.000000D+00  E= 4.049287D-01  Symmetry=a2u
              MO Center= -3.8D-15,  5.7D-16, -1.9D-12, r^2= 1.1D+01
   Bfn.  Coefficient  Atom+Function         Bfn.  Coefficient  Atom+Function  
  ----- ------------  ---------------      ----- ------------  ---------------
     5      8.171855   1 C  s                65     -8.171855   6 C  s         
    27     -3.177330   2 H  s                96      3.177330   8 H  s         
     4     -2.165411   1 C  s                64      2.165411   6 C  s         
    36     -1.633753   3 H  s                45     -1.633753   4 H  s         
    54     -1.633753   5 H  s                87      1.633753   7 H  s         

 Vector   27  Occ=0.000000D+00  E= 4.109216D-01  Symmetry=eg
              MO Center=  5.0D-14,  6.0D-14, -7.5D-14, r^2= 5.9D+00
   Bfn.  Coefficient  Atom+Function         Bfn.  Coefficient  Atom+Function  
  ----- ------------  ---------------      ----- ------------  ---------------
    45      1.920830   4 H  s               114      1.920830  10 H  s         
    54     -1.527571   5 H  s                87     -1.527571   7 H  s         
    13      1.142761   1 C  py               73     -1.142761   6 C  py        
    12      0.765777   1 C  px               72     -0.765777   6 C  px        
    36     -0.393259   3 H  s               105     -0.393259   9 H  s         

 Vector   28  Occ=0.000000D+00  E= 4.109216D-01  Symmetry=eg
              MO Center= -1.0D-13,  1.9D-13,  3.1D-13, r^2= 5.9D+00
   Bfn.  Coefficient  Atom+Function         Bfn.  Coefficient  Atom+Function  
  ----- ------------  ---------------      ----- ------------  ---------------
    36      1.990935   3 H  s               105      1.990935   9 H  s         
    54     -1.336040   5 H  s                87     -1.336040   7 H  s         
    12      1.142761   1 C  px               72     -1.142761   6 C  px        
    13     -0.765777   1 C  py               73      0.765777   6 C  py        
    45     -0.654895   4 H  s               114     -0.654895  10 H  s         

 Vector   29  Occ=0.000000D+00  E= 4.197063D-01  Symmetry=eu
              MO Center= -4.7D-14, -1.1D-13, -3.2D-13, r^2= 5.9D+00
   Bfn.  Coefficient  Atom+Function         Bfn.  Coefficient  Atom+Function  
  ----- ------------  ---------------      ----- ------------  ---------------
    36      1.625882   3 H  s               105     -1.625882   9 H  s         
    54     -1.534453   5 H  s                87      1.534453   7 H  s         
    12      1.392963   1 C  px               72      1.392963   6 C  px        
    13     -0.449072   1 C  py               73     -0.449072   6 C  py        
    41     -0.242729   3 H  py              110     -0.242729   9 H  py        

 Vector   30  Occ=0.000000D+00  E= 4.197063D-01  Symmetry=eu
              MO Center= -1.5D-14, -6.2D-14,  9.4D-14, r^2= 5.9D+00
   Bfn.  Coefficient  Atom+Function         Bfn.  Coefficient  Atom+Function  
  ----- ------------  ---------------      ----- ------------  ---------------
    45      1.824620   4 H  s               114     -1.824620  10 H  s         
    13      1.392963   1 C  py               73      1.392963   6 C  py        
    54     -0.991490   5 H  s                87      0.991490   7 H  s         
    36     -0.833130   3 H  s               105      0.833130   9 H  s         
    12      0.449072   1 C  px               72      0.449072   6 C  px        

 Vector   31  Occ=0.000000D+00  E= 4.247473D-01  Symmetry=a2u
              MO Center=  8.8D-14, -8.3D-14,  8.5D-15, r^2= 7.1D+00
   Bfn.  Coefficient  Atom+Function         Bfn.  Coefficient  Atom+Function  
  ----- ------------  ---------------      ----- ------------  ---------------
     5      6.096035   1 C  s                65     -6.096035   6 C  s         
    14     -2.934607   1 C  pz               74     -2.934607   6 C  pz        
    36     -2.375835   3 H  s                45     -2.375835   4 H  s         
    54     -2.375835   5 H  s                87      2.375835   7 H  s         
   105      2.375835   9 H  s               114      2.375835  10 H  s         

 Vector   32  Occ=0.000000D+00  E= 4.365738D-01  Symmetry=a1g
              MO Center= -3.4D-15,  6.3D-15,  8.4D-16, r^2= 7.7D+00
   Bfn.  Coefficient  Atom+Function         Bfn.  Coefficient  Atom+Function  
  ----- ------------  ---------------      ----- ------------  ---------------
    27      2.094202   2 H  s                96      2.094202   8 H  s         
    14     -1.466819   1 C  pz               74      1.466819   6 C  pz        
    36     -0.718605   3 H  s                45     -0.718605   4 H  s         
    54     -0.718605   5 H  s                87     -0.718605   7 H  s         
   105     -0.718605   9 H  s               114     -0.718605  10 H  s         

 Vector   33  Occ=0.000000D+00  E= 4.829155D-01  Symmetry=eu
              MO Center= -3.7D-14, -3.3D-14,  1.3D-13, r^2= 5.7D+00
   Bfn.  Coefficient  Atom+Function         Bfn.  Coefficient  Atom+Function  
  ----- ------------  ---------------      ----- ------------  ---------------
    54      1.411004   5 H  s                87     -1.411004   7 H  s         
    12     -1.008010   1 C  px               72     -1.008010   6 C  px        
    45     -0.727620   4 H  s               114      0.727620  10 H  s         
    36     -0.683384   3 H  s               105      0.683384   9 H  s         
    60      0.316768   5 H  pz               93      0.316768   7 H  pz        

 Vector   34  Occ=0.000000D+00  E= 4.829155D-01  Symmetry=eu
              MO Center=  6.3D-17, -1.2D-14,  1.0D-17, r^2= 5.7D+00
   Bfn.  Coefficient  Atom+Function         Bfn.  Coefficient  Atom+Function  
  ----- ------------  ---------------      ----- ------------  ---------------
    36      1.234735   3 H  s               105     -1.234735   9 H  s         
    45     -1.209195   4 H  s               114      1.209195  10 H  s         
    13     -1.008010   1 C  py               73     -1.008010   6 C  py        
    12      0.289746   1 C  px               72      0.289746   6 C  px        
    42      0.277196   3 H  pz              111      0.277196   9 H  pz        

 Vector   35  Occ=0.000000D+00  E= 4.908070D-01  Symmetry=a1g
              MO Center=  7.9D-16,  1.5D-15,  9.4D-16, r^2= 8.0D+00
   Bfn.  Coefficient  Atom+Function         Bfn.  Coefficient  Atom+Function  
  ----- ------------  ---------------      ----- ------------  ---------------
    27      1.074158   2 H  s                96      1.074158   8 H  s         
    26     -0.767960   2 H  s                95     -0.767960   8 H  s         
    14     -0.489849   1 C  pz               74      0.489849   6 C  pz        
     4     -0.393148   1 C  s                64     -0.393148   6 C  s         
     5      0.384808   1 C  s                65      0.384808   6 C  s         

 Vector   36  Occ=0.000000D+00  E= 5.215610D-01  Symmetry=eg
              MO Center= -1.2D-15, -1.4D-16,  5.9D-15, r^2= 5.5D+00
   Bfn.  Coefficient  Atom+Function         Bfn.  Coefficient  Atom+Function  
  ----- ------------  ---------------      ----- ------------  ---------------
    45      1.133577   4 H  s               114      1.133577  10 H  s         
    36     -0.788542   3 H  s               105     -0.788542   9 H  s         
    13      0.701733   1 C  py               73     -0.701733   6 C  py        
    54     -0.345034   5 H  s                87     -0.345034   7 H  s         
    59     -0.267200   5 H  py               92      0.267200   7 H  py        

 Vector   37  Occ=0.000000D+00  E= 5.215610D-01  Symmetry=eg
              MO Center=  3.1D-14,  1.4D-14, -1.6D-13, r^2= 5.5D+00
   Bfn.  Coefficient  Atom+Function         Bfn.  Coefficient  Atom+Function  
  ----- ------------  ---------------      ----- ------------  ---------------
    54      1.109736   5 H  s                87      1.109736   7 H  s         
    36     -0.853676   3 H  s               105     -0.853676   9 H  s         
    12     -0.701733   1 C  px               72      0.701733   6 C  px        
    49      0.275669   4 H  px              118     -0.275669  10 H  px        
    45     -0.256060   4 H  s               114     -0.256060  10 H  s         

 Vector   38  Occ=0.000000D+00  E= 5.764247D-01  Symmetry=a2u
              MO Center= -6.7D-15,  2.2D-15,  3.3D-14, r^2= 5.8D+00
   Bfn.  Coefficient  Atom+Function         Bfn.  Coefficient  Atom+Function  
  ----- ------------  ---------------      ----- ------------  ---------------
    14      3.007338   1 C  pz               74      3.007338   6 C  pz        
    27     -2.188810   2 H  s                96      2.188810   8 H  s         
     4      1.720498   1 C  s                64     -1.720498   6 C  s         
     5     -1.436562   1 C  s                65      1.436562   6 C  s         
    35      0.668178   3 H  s                44      0.668178   4 H  s         

 Vector   39  Occ=0.000000D+00  E= 8.263082D-01  Symmetry=eu
              MO Center=  6.9D-15,  3.5D-15, -1.7D-14, r^2= 6.0D+00
   Bfn.  Coefficient  Atom+Function         Bfn.  Coefficient  Atom+Function  
  ----- ------------  ---------------      ----- ------------  ---------------
    42      0.525714   3 H  pz              111      0.525714   9 H  pz        
    35      0.488559   3 H  s               104     -0.488559   9 H  s         
    32     -0.407317   2 H  py              101     -0.407317   8 H  py        
    51     -0.351685   4 H  pz              120     -0.351685  10 H  pz        
    44     -0.326830   4 H  s               113      0.326830  10 H  s         

 Vector   40  Occ=0.000000D+00  E= 8.263082D-01  Symmetry=eu
              MO Center= -3.6D-15,  1.1D-14, -5.5D-14, r^2= 6.0D+00
   Bfn.  Coefficient  Atom+Function         Bfn.  Coefficient  Atom+Function  
  ----- ------------  ---------------      ----- ------------  ---------------
    60      0.506566   5 H  pz               93      0.506566   7 H  pz        
    53      0.470765   5 H  s                86     -0.470765   7 H  s         
    31     -0.407317   2 H  px              100     -0.407317   8 H  px        
    51     -0.403997   4 H  pz              120     -0.403997  10 H  pz        
    44     -0.375444   4 H  s               113      0.375444  10 H  s         

 Vector   41  Occ=0.000000D+00  E= 8.380936D-01  Symmetry=a1u
              MO Center= -5.1D-16,  5.4D-16, -6.1D-16, r^2= 4.4D+00
   Bfn.  Coefficient  Atom+Function         Bfn.  Coefficient  Atom+Function  
  ----- ------------  ---------------      ----- ------------  ---------------
    49      0.513190   4 H  px               59      0.513190   5 H  py        
    92      0.513190   7 H  py              118      0.513190  10 H  px        
    40     -0.375681   3 H  px               41     -0.375681   3 H  py        
   109     -0.375681   9 H  px              110     -0.375681   9 H  py        
    50     -0.137509   4 H  py               58     -0.137509   5 H  px        

 Vector   42  Occ=0.000000D+00  E= 8.463839D-01  Symmetry=eg
              MO Center= -1.3D-15, -1.4D-14,  3.3D-15, r^2= 6.8D+00
   Bfn.  Coefficient  Atom+Function         Bfn.  Coefficient  Atom+Function  
  ----- ------------  ---------------      ----- ------------  ---------------
    44     -0.719779   4 H  s               113     -0.719779  10 H  s         
    35      0.658574   3 H  s               104      0.658574   9 H  s         
    32      0.581792   2 H  py              101     -0.581792   8 H  py        
    10     -0.425179   1 C  py               70      0.425179   6 C  py        
    13     -0.394415   1 C  py               73      0.394415   6 C  py        

 Vector   43  Occ=0.000000D+00  E= 8.463839D-01  Symmetry=eg
              MO Center= -8.6D-15, -6.7D-15, -3.0D-14, r^2= 6.8D+00
   Bfn.  Coefficient  Atom+Function         Bfn.  Coefficient  Atom+Function  
  ----- ------------  ---------------      ----- ------------  ---------------
    53      0.795793   5 H  s                86      0.795793   7 H  s         
    31      0.581792   2 H  px              100     -0.581792   8 H  px        
    35     -0.450902   3 H  s               104     -0.450902   9 H  s         
     9     -0.425179   1 C  px               69      0.425179   6 C  px        
    60     -0.416780   5 H  pz               93      0.416780   7 H  pz        

 Vector   44  Occ=0.000000D+00  E= 8.530407D-01  Symmetry=a2g
              MO Center= -3.6D-15,  6.2D-16,  7.4D-16, r^2= 4.4D+00
   Bfn.  Coefficient  Atom+Function         Bfn.  Coefficient  Atom+Function  
  ----- ------------  ---------------      ----- ------------  ---------------
    49      0.513693   4 H  px               59      0.513693   5 H  py        
    92     -0.513693   7 H  py              118     -0.513693  10 H  px        
    40     -0.376050   3 H  px               41     -0.376050   3 H  py        
   109      0.376050   9 H  px              110      0.376050   9 H  py        
    50     -0.137644   4 H  py               58     -0.137644   5 H  px        

 Vector   45  Occ=0.000000D+00  E= 8.620592D-01  Symmetry=a2u
              MO Center=  7.5D-15,  8.5D-15, -3.2D-14, r^2= 5.7D+00
   Bfn.  Coefficient  Atom+Function         Bfn.  Coefficient  Atom+Function  
  ----- ------------  ---------------      ----- ------------  ---------------
    14      1.950598   1 C  pz               74      1.950598   6 C  pz        
    26     -1.789192   2 H  s                95      1.789192   8 H  s         
    27     -1.061878   2 H  s                96      1.061878   8 H  s         
    22      0.902088   1 C  d  0             82     -0.902088   6 C  d  0      
    11      0.881449   1 C  pz               71      0.881449   6 C  pz        

 Vector   46  Occ=0.000000D+00  E= 9.158169D-01  Symmetry=eu
              MO Center= -3.1D-14, -3.7D-14, -3.7D-13, r^2= 6.7D+00
   Bfn.  Coefficient  Atom+Function         Bfn.  Coefficient  Atom+Function  
  ----- ------------  ---------------      ----- ------------  ---------------
    44      1.368901   4 H  s               113     -1.368901  10 H  s         
    13      1.080566   1 C  py               73      1.080566   6 C  py        
    35     -0.858296   3 H  s               104      0.858296   9 H  s         
    10      0.642849   1 C  py               70      0.642849   6 C  py        
    24      0.585133   1 C  d  2             84     -0.585133   6 C  d  2      

 Vector   47  Occ=0.000000D+00  E= 9.158169D-01  Symmetry=eu
              MO Center=  4.1D-15,  3.3D-16,  1.0D-13, r^2= 6.7D+00
   Bfn.  Coefficient  Atom+Function         Bfn.  Coefficient  Atom+Function  
  ----- ------------  ---------------      ----- ------------  ---------------
    53      1.285873   5 H  s                86     -1.285873   7 H  s         
    12     -1.080566   1 C  px               35     -1.085134   3 H  s         
    72     -1.080566   6 C  px              104      1.085134   9 H  s         
     9     -0.642849   1 C  px               69     -0.642849   6 C  px        
    20     -0.585133   1 C  d -2             80      0.585133   6 C  d -2      

 Vector   48  Occ=0.000000D+00  E= 9.297495D-01  Symmetry=eg
              MO Center=  4.2D-14,  3.5D-15,  4.5D-13, r^2= 5.8D+00
   Bfn.  Coefficient  Atom+Function         Bfn.  Coefficient  Atom+Function  
  ----- ------------  ---------------      ----- ------------  ---------------
    44     -1.098112   4 H  s               113     -1.098112  10 H  s         
    35      1.045578   3 H  s               104      1.045578   9 H  s         
    13     -0.773828   1 C  py               73      0.773828   6 C  py        
    10     -0.519600   1 C  py               70      0.519600   6 C  py        
    21      0.498639   1 C  d -1             81      0.498639   6 C  d -1      

 Vector   49  Occ=0.000000D+00  E= 9.297495D-01  Symmetry=eg
              MO Center=  5.4D-15,  9.7D-15, -7.7D-14, r^2= 5.8D+00
   Bfn.  Coefficient  Atom+Function         Bfn.  Coefficient  Atom+Function  
  ----- ------------  ---------------      ----- ------------  ---------------
    53      1.237660   5 H  s                86      1.237660   7 H  s         
    12     -0.773828   1 C  px               72      0.773828   6 C  px        
    35     -0.664326   3 H  s               104     -0.664326   9 H  s         
    44     -0.573334   4 H  s               113     -0.573334  10 H  s         
     9     -0.519600   1 C  px               69      0.519600   6 C  px        

 Vector   50  Occ=0.000000D+00  E= 9.622281D-01  Symmetry=a1g
              MO Center= -1.6D-15,  4.4D-15,  4.8D-14, r^2= 5.2D+00
   Bfn.  Coefficient  Atom+Function         Bfn.  Coefficient  Atom+Function  
  ----- ------------  ---------------      ----- ------------  ---------------
    26      1.986952   2 H  s                95      1.986952   8 H  s         
    22     -1.595343   1 C  d  0             82     -1.595343   6 C  d  0      
    11     -0.814008   1 C  pz               71      0.814008   6 C  pz        
     5      0.752341   1 C  s                65      0.752341   6 C  s         
    35     -0.664935   3 H  s                44     -0.664935   4 H  s         

 Vector   51  Occ=0.000000D+00  E= 1.068560D+00  Symmetry=eg
              MO Center=  4.3D-14, -7.1D-14, -7.6D-13, r^2= 6.3D+00
   Bfn.  Coefficient  Atom+Function         Bfn.  Coefficient  Atom+Function  
  ----- ------------  ---------------      ----- ------------  ---------------
    44      1.663068   4 H  s               113      1.663068  10 H  s         
    53     -1.584444   5 H  s                86     -1.584444   7 H  s         
    24      1.264954   1 C  d  2             84      1.264954   6 C  d  2      
    10      0.845562   1 C  py               70     -0.845562   6 C  py        
     9      0.777502   1 C  px               69     -0.777502   6 C  px        

 Vector   52  Occ=0.000000D+00  E= 1.068560D+00  Symmetry=eg
              MO Center= -6.3D-14,  4.9D-14, -7.4D-13, r^2= 6.3D+00
   Bfn.  Coefficient  Atom+Function         Bfn.  Coefficient  Atom+Function  
  ----- ------------  ---------------      ----- ------------  ---------------
    35      1.874952   3 H  s               104      1.874952   9 H  s         
    20      1.264954   1 C  d -2             80      1.264954   6 C  d -2      
    53     -1.005566   5 H  s                86     -1.005566   7 H  s         
    44     -0.869386   4 H  s               113     -0.869386  10 H  s         
     9      0.845562   1 C  px               69     -0.845562   6 C  px        

 Vector   53  Occ=0.000000D+00  E= 1.075872D+00  Symmetry=eu
              MO Center= -8.9D-15,  9.2D-14,  8.2D-13, r^2= 6.0D+00
   Bfn.  Coefficient  Atom+Function         Bfn.  Coefficient  Atom+Function  
  ----- ------------  ---------------      ----- ------------  ---------------
    24      1.035138   1 C  d  2             44      1.030745   4 H  s         
    84     -1.035138   6 C  d  2            113     -1.030745  10 H  s         
    53     -0.763774   5 H  s                86      0.763774   7 H  s         
    21     -0.587493   1 C  d -1             81      0.587493   6 C  d -1      
    32      0.574133   2 H  py              101      0.574133   8 H  py        

 Vector   54  Occ=0.000000D+00  E= 1.075872D+00  Symmetry=eu
              MO Center=  2.7D-14, -7.3D-14,  6.9D-13, r^2= 6.0D+00
   Bfn.  Coefficient  Atom+Function         Bfn.  Coefficient  Atom+Function  
  ----- ------------  ---------------      ----- ------------  ---------------
    20      1.035138   1 C  d -2             35      1.036066   3 H  s         
    80     -1.035138   6 C  d -2            104     -1.036066   9 H  s         
    53     -0.749237   5 H  s                86      0.749237   7 H  s         
    49      0.672103   4 H  px              118      0.672103  10 H  px        
    23      0.587493   1 C  d  1             83     -0.587493   6 C  d  1      

 Vector   55  Occ=0.000000D+00  E= 1.130685D+00  Symmetry=a1g
              MO Center=  1.1D-16, -4.2D-15, -5.8D-14, r^2= 5.7D+00
   Bfn.  Coefficient  Atom+Function         Bfn.  Coefficient  Atom+Function  
  ----- ------------  ---------------      ----- ------------  ---------------
     4      3.368635   1 C  s                64      3.368635   6 C  s         
    26     -1.761946   2 H  s                95     -1.761946   8 H  s         
     5     -1.520403   1 C  s                65     -1.520403   6 C  s         
    33      1.172795   2 H  pz              102     -1.172795   8 H  pz        
    11      1.054245   1 C  pz               14     -1.058308   1 C  pz        

 Vector   56  Occ=0.000000D+00  E= 1.213161D+00  Symmetry=a2u
              MO Center=  6.6D-15, -5.3D-15, -5.4D-14, r^2= 6.0D+00
   Bfn.  Coefficient  Atom+Function         Bfn.  Coefficient  Atom+Function  
  ----- ------------  ---------------      ----- ------------  ---------------
    14      2.487271   1 C  pz               74      2.487271   6 C  pz        
    27     -1.914777   2 H  s                96      1.914777   8 H  s         
     4      1.806147   1 C  s                64     -1.806147   6 C  s         
     5     -1.757958   1 C  s                65      1.757958   6 C  s         
    22     -1.067575   1 C  d  0             82      1.067575   6 C  d  0      

 Vector   57  Occ=0.000000D+00  E= 1.359599D+00  Symmetry=eu
              MO Center=  3.0D-15,  7.1D-14,  2.7D-12, r^2= 5.7D+00
   Bfn.  Coefficient  Atom+Function         Bfn.  Coefficient  Atom+Function  
  ----- ------------  ---------------      ----- ------------  ---------------
    21      1.556038   1 C  d -1             81     -1.556038   6 C  d -1      
    32     -0.779812   2 H  py              101     -0.779812   8 H  py        
    44     -0.728152   4 H  s               113      0.728152  10 H  s         
    40      0.698135   3 H  px              109      0.698135   9 H  px        
    51      0.641126   4 H  pz              120      0.641126  10 H  pz        

 Vector   58  Occ=0.000000D+00  E= 1.359599D+00  Symmetry=eu
              MO Center=  6.8D-15,  1.6D-14, -7.1D-13, r^2= 5.7D+00
   Bfn.  Coefficient  Atom+Function         Bfn.  Coefficient  Atom+Function  
  ----- ------------  ---------------      ----- ------------  ---------------
    23      1.556038   1 C  d  1             83     -1.556038   6 C  d  1      
    49     -0.786577   4 H  px              118     -0.786577  10 H  px        
    31      0.779812   2 H  px              100      0.779812   8 H  px        
    35      0.667003   3 H  s               104     -0.667003   9 H  s         
    41     -0.635236   3 H  py              110     -0.635236   9 H  py        

 Vector   59  Occ=0.000000D+00  E= 1.363132D+00  Symmetry=eg
              MO Center=  2.4D-13,  1.2D-13, -2.3D-12, r^2= 5.2D+00
   Bfn.  Coefficient  Atom+Function         Bfn.  Coefficient  Atom+Function  
  ----- ------------  ---------------      ----- ------------  ---------------
    44      2.408785   4 H  s               113      2.408785  10 H  s         
    10      2.053590   1 C  py               70     -2.053590   6 C  py        
    53     -1.830535   5 H  s                86     -1.830535   7 H  s         
    24      1.715431   1 C  d  2             84      1.715431   6 C  d  2      
     9      1.268687   1 C  px               69     -1.268687   6 C  px        

 Vector   60  Occ=0.000000D+00  E= 1.363132D+00  Symmetry=eg
              MO Center= -6.4D-15, -1.6D-14,  5.3D-13, r^2= 5.2D+00
   Bfn.  Coefficient  Atom+Function         Bfn.  Coefficient  Atom+Function  
  ----- ------------  ---------------      ----- ------------  ---------------
    35      2.447573   3 H  s               104      2.447573   9 H  s         
     9      2.053590   1 C  px               69     -2.053590   6 C  px        
    53     -1.724566   5 H  s                86     -1.724566   7 H  s         
    20      1.715431   1 C  d -2             80      1.715431   6 C  d -2      
    10     -1.268687   1 C  py               70      1.268687   6 C  py        

 Vector   61  Occ=0.000000D+00  E= 1.381627D+00  Symmetry=a2u
              MO Center= -4.8D-13,  2.8D-13,  1.6D-12, r^2= 5.5D+00
   Bfn.  Coefficient  Atom+Function         Bfn.  Coefficient  Atom+Function  
  ----- ------------  ---------------      ----- ------------  ---------------
     4     10.166047   1 C  s                64    -10.166047   6 C  s         
     5     -2.656557   1 C  s                65      2.656557   6 C  s         
    35     -2.304824   3 H  s                44     -2.304824   4 H  s         
    53     -2.304824   5 H  s                86      2.304824   7 H  s         
   104      2.304824   9 H  s               113      2.304824  10 H  s         

 Vector   62  Occ=0.000000D+00  E= 1.392382D+00  Symmetry=a1g
              MO Center= -1.0D-13, -1.0D-13,  5.6D-12, r^2= 6.0D+00
   Bfn.  Coefficient  Atom+Function         Bfn.  Coefficient  Atom+Function  
  ----- ------------  ---------------      ----- ------------  ---------------
     4      6.503982   1 C  s                64      6.503982   6 C  s         
    11     -3.167194   1 C  pz               71      3.167194   6 C  pz        
    35     -2.510529   3 H  s                44     -2.510529   4 H  s         
    53     -2.510529   5 H  s                86     -2.510529   7 H  s         
   104     -2.510529   9 H  s               113     -2.510529  10 H  s         

 Vector   63  Occ=0.000000D+00  E= 1.396867D+00  Symmetry=a2u
              MO Center=  9.5D-14,  8.6D-15, -7.0D-12, r^2= 7.8D+00
   Bfn.  Coefficient  Atom+Function         Bfn.  Coefficient  Atom+Function  
  ----- ------------  ---------------      ----- ------------  ---------------
    26      4.724522   2 H  s                95     -4.724522   8 H  s         
    11     -3.799728   1 C  pz               71     -3.799728   6 C  pz        
     4     -3.072239   1 C  s                64      3.072239   6 C  s         
    33     -2.783499   2 H  pz              102     -2.783499   8 H  pz        
    22     -1.967317   1 C  d  0             82      1.967317   6 C  d  0      

 Vector   64  Occ=0.000000D+00  E= 1.406203D+00  Symmetry=eg
              MO Center=  2.8D-13, -1.1D-12,  5.7D-13, r^2= 5.3D+00
   Bfn.  Coefficient  Atom+Function         Bfn.  Coefficient  Atom+Function  
  ----- ------------  ---------------      ----- ------------  ---------------
    10      2.876109   1 C  py               70     -2.876109   6 C  py        
    44      2.674833   4 H  s               113      2.674833  10 H  s         
    35     -1.981065   3 H  s               104     -1.981065   9 H  s         
    50      1.736310   4 H  py              119     -1.736310  10 H  py        
    21     -1.688180   1 C  d -1             81     -1.688180   6 C  d -1      

 Vector   65  Occ=0.000000D+00  E= 1.406203D+00  Symmetry=eg
              MO Center=  2.2D-13,  4.0D-15, -2.4D-14, r^2= 5.3D+00
   Bfn.  Coefficient  Atom+Function         Bfn.  Coefficient  Atom+Function  
  ----- ------------  ---------------      ----- ------------  ---------------
     9      2.876109   1 C  px               69     -2.876109   6 C  px        
    53     -2.688084   5 H  s                86     -2.688084   7 H  s         
    35      1.944863   3 H  s               104      1.944863   9 H  s         
    58      1.748305   5 H  px               91     -1.748305   7 H  px        
    23      1.688180   1 C  d  1             83      1.688180   6 C  d  1      

 Vector   66  Occ=0.000000D+00  E= 1.421286D+00  Symmetry=eu
              MO Center=  1.6D-13,  6.2D-13, -1.3D-12, r^2= 5.1D+00
   Bfn.  Coefficient  Atom+Function         Bfn.  Coefficient  Atom+Function  
  ----- ------------  ---------------      ----- ------------  ---------------
    44      3.804464   4 H  s               113     -3.804464  10 H  s         
    10      3.212195   1 C  py               70      3.212195   6 C  py        
    53     -2.924584   5 H  s                86      2.924584   7 H  s         
    50      2.039548   4 H  py              119      2.039548  10 H  py        
     9      2.025875   1 C  px               69      2.025875   6 C  px        

 Vector   67  Occ=0.000000D+00  E= 1.421286D+00  Symmetry=eu
              MO Center= -2.6D-13, -5.0D-14,  5.4D-13, r^2= 5.1D+00
   Bfn.  Coefficient  Atom+Function         Bfn.  Coefficient  Atom+Function  
  ----- ------------  ---------------      ----- ------------  ---------------
    35      3.885017   3 H  s               104     -3.885017   9 H  s         
     9      3.212195   1 C  px               69      3.212195   6 C  px        
    53     -2.704507   5 H  s                86      2.704507   7 H  s         
    10     -2.025875   1 C  py               70     -2.025875   6 C  py        
    20      1.754628   1 C  d -2             80     -1.754628   6 C  d -2      

 Vector   68  Occ=0.000000D+00  E= 1.443833D+00  Symmetry=a1g
              MO Center= -1.4D-13,  9.5D-14,  3.5D-14, r^2= 8.4D+00
   Bfn.  Coefficient  Atom+Function         Bfn.  Coefficient  Atom+Function  
  ----- ------------  ---------------      ----- ------------  ---------------
     4      4.278564   1 C  s                64      4.278564   6 C  s         
    26     -2.901605   2 H  s                95     -2.901605   8 H  s         
    33      2.047796   2 H  pz              102     -2.047796   8 H  pz        
     5      1.729107   1 C  s                65      1.729107   6 C  s         
    27     -1.664827   2 H  s                96     -1.664827   8 H  s         

 Vector   69  Occ=0.000000D+00  E= 1.509284D+00  Symmetry=a2u
              MO Center= -2.4D-14,  1.2D-13, -1.1D-12, r^2= 6.2D+00
   Bfn.  Coefficient  Atom+Function         Bfn.  Coefficient  Atom+Function  
  ----- ------------  ---------------      ----- ------------  ---------------
     5      7.229197   1 C  s                65     -7.229197   6 C  s         
     4     -2.963186   1 C  s                64      2.963186   6 C  s         
     3      2.298096   1 C  s                63     -2.298096   6 C  s         
    36     -1.775952   3 H  s                45     -1.775952   4 H  s         
    54     -1.775952   5 H  s                87      1.775952   7 H  s         

 Vector   70  Occ=0.000000D+00  E= 1.555812D+00  Symmetry=a1g
              MO Center= -3.1D-14,  5.3D-14,  1.1D-12, r^2= 4.1D+00
   Bfn.  Coefficient  Atom+Function         Bfn.  Coefficient  Atom+Function  
  ----- ------------  ---------------      ----- ------------  ---------------
     4      8.132739   1 C  s                64      8.132739   6 C  s         
     5     -6.582890   1 C  s                65     -6.582890   6 C  s         
     3     -2.614057   1 C  s                63     -2.614057   6 C  s         
    26     -1.741103   2 H  s                95     -1.741103   8 H  s         
    36      1.620868   3 H  s                45      1.620868   4 H  s         

 Vector   71  Occ=0.000000D+00  E= 1.882160D+00  Symmetry=eu
              MO Center= -2.0D-13, -1.1D-13,  5.2D-13, r^2= 4.9D+00
   Bfn.  Coefficient  Atom+Function         Bfn.  Coefficient  Atom+Function  
  ----- ------------  ---------------      ----- ------------  ---------------
    10      5.462138   1 C  py               70      5.462138   6 C  py        
    44      4.838963   4 H  s               113     -4.838963  10 H  s         
    53     -3.569468   5 H  s                86      3.569468   7 H  s         
     9      3.197592   1 C  px               69      3.197592   6 C  px        
    24      1.719070   1 C  d  2             84     -1.719070   6 C  d  2      

 Vector   72  Occ=0.000000D+00  E= 1.882160D+00  Symmetry=eu
              MO Center=  1.9D-14, -6.2D-15, -2.0D-14, r^2= 4.9D+00
   Bfn.  Coefficient  Atom+Function         Bfn.  Coefficient  Atom+Function  
  ----- ------------  ---------------      ----- ------------  ---------------
     9      5.462138   1 C  px               69      5.462138   6 C  px        
    35      4.854610   3 H  s               104     -4.854610   9 H  s         
    53     -3.526720   5 H  s                86      3.526720   7 H  s         
    10     -3.197592   1 C  py               70     -3.197592   6 C  py        
    20      1.719070   1 C  d -2             80     -1.719070   6 C  d -2      

 Vector   73  Occ=0.000000D+00  E= 1.892169D+00  Symmetry=a1g
              MO Center=  2.4D-14,  4.4D-14, -6.5D-13, r^2= 5.2D+00
   Bfn.  Coefficient  Atom+Function         Bfn.  Coefficient  Atom+Function  
  ----- ------------  ---------------      ----- ------------  ---------------
    11      6.360650   1 C  pz               71     -6.360650   6 C  pz        
    26     -5.777505   2 H  s                95     -5.777505   8 H  s         
    33      2.316247   2 H  pz              102     -2.316247   8 H  pz        
    22      2.258417   1 C  d  0             82      2.258417   6 C  d  0      
     4      1.998023   1 C  s                64      1.998023   6 C  s         

 Vector   74  Occ=0.000000D+00  E= 1.893203D+00  Symmetry=eg
              MO Center=  1.9D-14, -6.8D-14, -2.3D-12, r^2= 4.9D+00
   Bfn.  Coefficient  Atom+Function         Bfn.  Coefficient  Atom+Function  
  ----- ------------  ---------------      ----- ------------  ---------------
     9      4.873718   1 C  px               69     -4.873718   6 C  px        
    53     -4.547973   5 H  s                86     -4.547973   7 H  s         
    44      4.079837   4 H  s               113      4.079837  10 H  s         
    10      4.036355   1 C  py               70     -4.036355   6 C  py        
    24      1.731412   1 C  d  2             84      1.731412   6 C  d  2      

 Vector   75  Occ=0.000000D+00  E= 1.893203D+00  Symmetry=eg
              MO Center=  1.5D-13,  3.5D-14,  1.8D-12, r^2= 4.9D+00
   Bfn.  Coefficient  Atom+Function         Bfn.  Coefficient  Atom+Function  
  ----- ------------  ---------------      ----- ------------  ---------------
    35     -4.981268   3 H  s               104     -4.981268   9 H  s         
    10      4.873718   1 C  py               70     -4.873718   6 C  py        
     9     -4.036355   1 C  px               69      4.036355   6 C  px        
    44      2.896052   4 H  s               113      2.896052  10 H  s         
    53      2.085216   5 H  s                86      2.085216   7 H  s         

 Vector   76  Occ=0.000000D+00  E= 2.014074D+00  Symmetry=a2u
              MO Center=  2.8D-15, -8.8D-15,  8.2D-13, r^2= 4.3D+00
   Bfn.  Coefficient  Atom+Function         Bfn.  Coefficient  Atom+Function  
  ----- ------------  ---------------      ----- ------------  ---------------
    11      7.015634   1 C  pz               71      7.015634   6 C  pz        
    26     -5.338782   2 H  s                95      5.338782   8 H  s         
     4     -2.871401   1 C  s                64      2.871401   6 C  s         
    35      2.389234   3 H  s                44      2.389234   4 H  s         
    53      2.389234   5 H  s                86     -2.389234   7 H  s         

 Vector   77  Occ=0.000000D+00  E= 2.586976D+00  Symmetry=eg
              MO Center=  8.6D-13, -7.7D-13,  3.6D-12, r^2= 4.2D+00
   Bfn.  Coefficient  Atom+Function         Bfn.  Coefficient  Atom+Function  
  ----- ------------  ---------------      ----- ------------  ---------------
    44      5.193337   4 H  s               113      5.193337  10 H  s         
    53     -4.809291   5 H  s                86     -4.809291   7 H  s         
    10      4.025226   1 C  py               70     -4.025226   6 C  py        
     9      3.523243   1 C  px               69     -3.523243   6 C  px        
    50      1.876234   4 H  py              119     -1.876234  10 H  py        

 Vector   78  Occ=0.000000D+00  E= 2.586976D+00  Symmetry=eg
              MO Center=  1.2D-14,  1.6D-14, -4.0D-14, r^2= 4.2D+00
   Bfn.  Coefficient  Atom+Function         Bfn.  Coefficient  Atom+Function  
  ----- ------------  ---------------      ----- ------------  ---------------
    35      5.775020   3 H  s               104      5.775020   9 H  s         
     9      4.025226   1 C  px               69     -4.025226   6 C  px        
    10     -3.523243   1 C  py               70      3.523243   6 C  py        
    53     -3.220103   5 H  s                86     -3.220103   7 H  s         
    44     -2.554917   4 H  s               113     -2.554917  10 H  s         

 Vector   79  Occ=0.000000D+00  E= 2.606955D+00  Symmetry=eu
              MO Center= -6.2D-13,  7.9D-13, -3.5D-12, r^2= 4.2D+00
   Bfn.  Coefficient  Atom+Function         Bfn.  Coefficient  Atom+Function  
  ----- ------------  ---------------      ----- ------------  ---------------
    44      5.727998   4 H  s               113     -5.727998  10 H  s         
    10      4.730788   1 C  py               70      4.730788   6 C  py        
    53     -4.432748   5 H  s                86      4.432748   7 H  s         
     9      3.019553   1 C  px               69      3.019553   6 C  px        
    50      2.081138   4 H  py              119      2.081138  10 H  py        

 Vector   80  Occ=0.000000D+00  E= 2.606955D+00  Symmetry=eu
              MO Center= -3.3D-13, -1.8D-13, -1.9D-13, r^2= 4.2D+00
   Bfn.  Coefficient  Atom+Function         Bfn.  Coefficient  Atom+Function  
  ----- ------------  ---------------      ----- ------------  ---------------
    35      5.866309   3 H  s               104     -5.866309   9 H  s         
     9      4.730788   1 C  px               69      4.730788   6 C  px        
    53     -4.054874   5 H  s                86      4.054874   7 H  s         
    10     -3.019553   1 C  py               70     -3.019553   6 C  py        
    44     -1.811435   4 H  s               113      1.811435  10 H  s         

 Vector   81  Occ=0.000000D+00  E= 2.626540D+00  Symmetry=a1g
              MO Center=  2.1D-13,  3.3D-13, -9.6D-12, r^2= 7.4D+00
   Bfn.  Coefficient  Atom+Function         Bfn.  Coefficient  Atom+Function  
  ----- ------------  ---------------      ----- ------------  ---------------
    26      6.966616   2 H  s                95      6.966616   8 H  s         
    11     -6.071570   1 C  pz               71      6.071570   6 C  pz        
    33     -2.916607   2 H  pz              102      2.916607   8 H  pz        
    35     -2.070042   3 H  s                44     -2.070042   4 H  s         
    53     -2.070042   5 H  s                86     -2.070042   7 H  s         

 Vector   82  Occ=0.000000D+00  E= 2.654231D+00  Symmetry=a2u
              MO Center=  2.8D-14,  3.1D-14,  9.4D-12, r^2= 8.3D+00
   Bfn.  Coefficient  Atom+Function         Bfn.  Coefficient  Atom+Function  
  ----- ------------  ---------------      ----- ------------  ---------------
    26      6.095871   2 H  s                95     -6.095871   8 H  s         
    11     -4.317980   1 C  pz               71     -4.317980   6 C  pz        
     4     -2.773255   1 C  s                64      2.773255   6 C  s         
    33     -2.423535   2 H  pz              102     -2.423535   8 H  pz        
    22     -1.178769   1 C  d  0             82      1.178769   6 C  d  0      

 Vector   83  Occ=0.000000D+00  E= 2.826210D+00  Symmetry=a1g
              MO Center= -1.2D-13, -1.9D-13, -1.7D-14, r^2= 5.7D+00
   Bfn.  Coefficient  Atom+Function         Bfn.  Coefficient  Atom+Function  
  ----- ------------  ---------------      ----- ------------  ---------------
     4      8.943761   1 C  s                64      8.943761   6 C  s         
    26     -3.033871   2 H  s                95     -3.033871   8 H  s         
    35     -2.834979   3 H  s                44     -2.834979   4 H  s         
    53     -2.834979   5 H  s                86     -2.834979   7 H  s         
   104     -2.834979   9 H  s               113     -2.834979  10 H  s         

 Vector   84  Occ=0.000000D+00  E= 2.890930D+00  Symmetry=a2u
              MO Center= -2.7D-14, -1.1D-13, -7.2D-13, r^2= 5.2D+00
   Bfn.  Coefficient  Atom+Function         Bfn.  Coefficient  Atom+Function  
  ----- ------------  ---------------      ----- ------------  ---------------
     4      4.020423   1 C  s                64     -4.020423   6 C  s         
    26     -2.207207   2 H  s                95      2.207207   8 H  s         
    11      1.533246   1 C  pz               71      1.533246   6 C  pz        
    33      1.434337   2 H  pz              102      1.434337   8 H  pz        
    35     -1.034465   3 H  s                44     -1.034465   4 H  s         

 Vector   85  Occ=0.000000D+00  E= 2.898966D+00  Symmetry=eu
              MO Center=  8.3D-13,  6.5D-13,  5.0D-12, r^2= 4.2D+00
   Bfn.  Coefficient  Atom+Function         Bfn.  Coefficient  Atom+Function  
  ----- ------------  ---------------      ----- ------------  ---------------
     9      0.858542   1 C  px               69      0.858542   6 C  px        
    58      0.570701   5 H  px               91      0.570701   7 H  px        
    10      0.493197   1 C  py               70      0.493197   6 C  py        
    18      0.477455   1 C  d  1             78     -0.477455   6 C  d  1      
    53     -0.425132   5 H  s                86      0.425132   7 H  s         

 Vector   86  Occ=0.000000D+00  E= 2.898966D+00  Symmetry=eu
              MO Center=  4.0D-13,  3.6D-13, -2.3D-12, r^2= 4.2D+00
   Bfn.  Coefficient  Atom+Function         Bfn.  Coefficient  Atom+Function  
  ----- ------------  ---------------      ----- ------------  ---------------
    10      0.858542   1 C  py               70      0.858542   6 C  py        
     9     -0.493197   1 C  px               69     -0.493197   6 C  px        
[...]
  ----- ------------  ---------------      ----- ------------  ---------------
    29      0.616046   2 H  py               98     -0.616046   8 H  py        
    48      0.488122   4 H  pz              117     -0.488122  10 H  pz        
    32     -0.484546   2 H  py              101      0.484546   8 H  py        
    51     -0.375264   4 H  pz              120      0.375264  10 H  pz        
    39     -0.335468   3 H  pz              108      0.335468   9 H  pz        

 Vector  100  Occ=0.000000D+00  E= 3.634501D+00  Symmetry=eg
              MO Center= -3.4D-15, -3.9D-15, -4.4D-14, r^2= 6.0D+00
   Bfn.  Coefficient  Atom+Function         Bfn.  Coefficient  Atom+Function  
  ----- ------------  ---------------      ----- ------------  ---------------
    28      0.616046   2 H  px               97     -0.616046   8 H  px        
    31     -0.484546   2 H  px              100      0.484546   8 H  px        
    57     -0.475500   5 H  pz               90      0.475500   7 H  pz        
    39      0.369953   3 H  pz              108     -0.369953   9 H  pz        
    60      0.365560   5 H  pz               93     -0.365560   7 H  pz        

 Vector  101  Occ=0.000000D+00  E= 3.786327D+00  Symmetry=eu
              MO Center= -1.3D-13,  7.5D-14, -1.2D-12, r^2= 5.5D+00
   Bfn.  Coefficient  Atom+Function         Bfn.  Coefficient  Atom+Function  
  ----- ------------  ---------------      ----- ------------  ---------------
    13      0.598856   1 C  py               73      0.598856   6 C  py        
    56      0.550473   5 H  py               89      0.550473   7 H  py        
    29      0.526663   2 H  py               98      0.526663   8 H  py        
    36     -0.506562   3 H  s               105      0.506562   9 H  s         
    59     -0.466995   5 H  py               92     -0.466995   7 H  py        

 Vector  102  Occ=0.000000D+00  E= 3.786327D+00  Symmetry=eu
              MO Center=  9.9D-16,  2.5D-17, -9.5D-16, r^2= 5.5D+00
   Bfn.  Coefficient  Atom+Function         Bfn.  Coefficient  Atom+Function  
  ----- ------------  ---------------      ----- ------------  ---------------
    12      0.598856   1 C  px               72      0.598856   6 C  px        
    54     -0.540829   5 H  s                87      0.540829   7 H  s         
    28      0.526663   2 H  px               97      0.526663   8 H  px        
    31     -0.455653   2 H  px              100     -0.455653   8 H  px        
    46      0.418680   4 H  px              115      0.418680  10 H  px        

 Vector  103  Occ=0.000000D+00  E= 3.792999D+00  Symmetry=eg
              MO Center=  1.0D-13,  6.1D-14,  8.7D-13, r^2= 5.5D+00
   Bfn.  Coefficient  Atom+Function         Bfn.  Coefficient  Atom+Function  
  ----- ------------  ---------------      ----- ------------  ---------------
    13      0.656268   1 C  py               73     -0.656268   6 C  py        
    29      0.564634   2 H  py               98     -0.564634   8 H  py        
    45      0.544351   4 H  s               114      0.544351  10 H  s         
    56      0.524681   5 H  py               89     -0.524681   7 H  py        
    32     -0.501857   2 H  py              101      0.501857   8 H  py        

 Vector  104  Occ=0.000000D+00  E= 3.792999D+00  Symmetry=eg
              MO Center=  3.4D-14, -1.0D-13,  3.4D-13, r^2= 5.5D+00
   Bfn.  Coefficient  Atom+Function         Bfn.  Coefficient  Atom+Function  
  ----- ------------  ---------------      ----- ------------  ---------------
    12      0.656268   1 C  px               72     -0.656268   6 C  px        
    28      0.564634   2 H  px               54     -0.561897   5 H  s         
    87     -0.561897   7 H  s                97     -0.564634   8 H  px        
    46      0.505993   4 H  px              115     -0.505993  10 H  px        
    31     -0.501857   2 H  px              100      0.501857   8 H  px        

 Vector  105  Occ=0.000000D+00  E= 3.802393D+00  Symmetry=a2u
              MO Center= -2.2D-16, -1.6D-14,  2.6D-14, r^2= 4.2D+00
   Bfn.  Coefficient  Atom+Function         Bfn.  Coefficient  Atom+Function  
  ----- ------------  ---------------      ----- ------------  ---------------
    14      1.291612   1 C  pz               74      1.291612   6 C  pz        
    27     -1.014277   2 H  s                96      1.014277   8 H  s         
    39      0.477948   3 H  pz               48      0.477948   4 H  pz        
    57      0.477948   5 H  pz               90      0.477948   7 H  pz        
   108      0.477948   9 H  pz              117      0.477948  10 H  pz        

 Vector  106  Occ=0.000000D+00  E= 3.856982D+00  Symmetry=eu
              MO Center=  1.0D-14,  1.8D-15, -1.2D-14, r^2= 4.8D+00
   Bfn.  Coefficient  Atom+Function         Bfn.  Coefficient  Atom+Function  
  ----- ------------  ---------------      ----- ------------  ---------------
    23      0.496251   1 C  d  1             83     -0.496251   6 C  d  1      
    28     -0.419817   2 H  px               97     -0.419817   8 H  px        
    31      0.417650   2 H  px              100      0.417650   8 H  px        
    18     -0.408622   1 C  d  1             78      0.408622   6 C  d  1      
    60      0.366072   5 H  pz               93      0.366072   7 H  pz        

 Vector  107  Occ=0.000000D+00  E= 3.856982D+00  Symmetry=eu
              MO Center= -5.9D-15, -2.2D-15, -1.1D-13, r^2= 4.8D+00
   Bfn.  Coefficient  Atom+Function         Bfn.  Coefficient  Atom+Function  
  ----- ------------  ---------------      ----- ------------  ---------------
    21      0.496251   1 C  d -1             81     -0.496251   6 C  d -1      
    29      0.419817   2 H  py               98      0.419817   8 H  py        
    32     -0.417650   2 H  py              101     -0.417650   8 H  py        
    16     -0.408622   1 C  d -1             76      0.408622   6 C  d -1      
    56     -0.386630   5 H  py               59      0.387940   5 H  py        

 Vector  108  Occ=0.000000D+00  E= 3.894470D+00  Symmetry=eg
              MO Center= -1.7D-15, -5.3D-15,  7.7D-14, r^2= 4.3D+00
   Bfn.  Coefficient  Atom+Function         Bfn.  Coefficient  Atom+Function  
  ----- ------------  ---------------      ----- ------------  ---------------
    21      0.480366   1 C  d -1             81      0.480366   6 C  d -1      
    48     -0.428739   4 H  pz              117      0.428739  10 H  pz        
    51      0.422877   4 H  pz              120     -0.422877  10 H  pz        
    59      0.375884   5 H  py               92     -0.375884   7 H  py        
    16     -0.373191   1 C  d -1             56     -0.371531   5 H  py        

 Vector  109  Occ=0.000000D+00  E= 3.894470D+00  Symmetry=eg
              MO Center=  4.0D-15, -8.0D-16,  6.2D-14, r^2= 4.3D+00
   Bfn.  Coefficient  Atom+Function         Bfn.  Coefficient  Atom+Function  
  ----- ------------  ---------------      ----- ------------  ---------------
    23      0.480366   1 C  d  1             83      0.480366   6 C  d  1      
    57     -0.422418   5 H  pz               90      0.422418   7 H  pz        
    60      0.416642   5 H  pz               93     -0.416642   7 H  pz        
    49     -0.384113   4 H  px              118      0.384113  10 H  px        
    46      0.379395   4 H  px              115     -0.379395  10 H  px        

 Vector  110  Occ=0.000000D+00  E= 3.913783D+00  Symmetry=a1g
              MO Center= -8.3D-15, -6.2D-15, -1.0D-13, r^2= 4.2D+00
   Bfn.  Coefficient  Atom+Function         Bfn.  Coefficient  Atom+Function  
  ----- ------------  ---------------      ----- ------------  ---------------
     4      1.738934   1 C  s                64      1.738934   6 C  s         
     5      0.639385   1 C  s                65      0.639385   6 C  s         
    35     -0.626863   3 H  s                44     -0.626863   4 H  s         
    53     -0.626863   5 H  s                86     -0.626863   7 H  s         
   104     -0.626863   9 H  s               113     -0.626863  10 H  s         

 Vector  111  Occ=0.000000D+00  E= 3.960300D+00  Symmetry=a2u
              MO Center=  7.5D-16, -2.4D-15,  1.4D-13, r^2= 4.9D+00
   Bfn.  Coefficient  Atom+Function         Bfn.  Coefficient  Atom+Function  
  ----- ------------  ---------------      ----- ------------  ---------------
     4      2.808906   1 C  s                64     -2.808906   6 C  s         
     5      1.017756   1 C  s                65     -1.017756   6 C  s         
    35     -0.667383   3 H  s                44     -0.667383   4 H  s         
    53     -0.667383   5 H  s                86      0.667383   7 H  s         
   104      0.667383   9 H  s               113      0.667383  10 H  s         

 Vector  112  Occ=0.000000D+00  E= 4.031289D+00  Symmetry=a1g
              MO Center= -3.3D-15, -4.5D-15, -5.1D-14, r^2= 4.5D+00
   Bfn.  Coefficient  Atom+Function         Bfn.  Coefficient  Atom+Function  
  ----- ------------  ---------------      ----- ------------  ---------------
     4      2.054937   1 C  s                64      2.054937   6 C  s         
    26     -1.466303   2 H  s                95     -1.466303   8 H  s         
    11      1.099553   1 C  pz               71     -1.099553   6 C  pz        
    14      0.952881   1 C  pz               74     -0.952881   6 C  pz        
    33      0.841170   2 H  pz              102     -0.841170   8 H  pz        

 Vector  113  Occ=0.000000D+00  E= 4.582121D+00  Symmetry=a1g
              MO Center= -3.8D-14,  1.9D-14,  3.2D-13, r^2= 6.4D+00
   Bfn.  Coefficient  Atom+Function         Bfn.  Coefficient  Atom+Function  
  ----- ------------  ---------------      ----- ------------  ---------------
    26      1.032677   2 H  s                95      1.032677   8 H  s         
    33     -0.960348   2 H  pz              102      0.960348   8 H  pz        
    11     -0.858511   1 C  pz               71      0.858511   6 C  pz        
    30      0.842645   2 H  pz               99     -0.842645   8 H  pz        
    17      0.649734   1 C  d  0             77      0.649734   6 C  d  0      

 Vector  114  Occ=0.000000D+00  E= 4.583003D+00  Symmetry=eg
              MO Center= -3.8D-13, -7.9D-14, -9.0D-13, r^2= 3.8D+00
   Bfn.  Coefficient  Atom+Function         Bfn.  Coefficient  Atom+Function  
  ----- ------------  ---------------      ----- ------------  ---------------
    44      0.756049   4 H  s               113      0.756049  10 H  s         
    53     -0.743601   5 H  s                86     -0.743601   7 H  s         
    50      0.706700   4 H  py              119     -0.706700  10 H  py        
    58      0.694285   5 H  px               91     -0.694285   7 H  px        
    47     -0.639789   4 H  py              116      0.639789  10 H  py        

 Vector  115  Occ=0.000000D+00  E= 4.583003D+00  Symmetry=eg
              MO Center= -8.9D-14, -3.5D-14, -2.5D-13, r^2= 3.8D+00
   Bfn.  Coefficient  Atom+Function         Bfn.  Coefficient  Atom+Function  
  ----- ------------  ---------------      ----- ------------  ---------------
    35      0.865824   3 H  s               104      0.865824   9 H  s         
    40      0.603063   3 H  px               41     -0.601203   3 H  py        
   109     -0.603063   9 H  px              110      0.601203   9 H  py        
    37     -0.545191   3 H  px               38      0.543643   3 H  py        
   106      0.545191   9 H  px              107     -0.543643   9 H  py        

 Vector  116  Occ=0.000000D+00  E= 4.596156D+00  Symmetry=a2u
              MO Center=  1.1D-13, -1.7D-14, -3.2D-13, r^2= 6.4D+00
   Bfn.  Coefficient  Atom+Function         Bfn.  Coefficient  Atom+Function  
  ----- ------------  ---------------      ----- ------------  ---------------
    26      1.050389   2 H  s                95     -1.050389   8 H  s         
    33     -0.966919   2 H  pz              102     -0.966919   8 H  pz        
    30      0.844864   2 H  pz               99      0.844864   8 H  pz        
    11     -0.662479   1 C  pz               17      0.665262   1 C  d  0      
    71     -0.662479   6 C  pz               77     -0.665262   6 C  d  0      

 Vector  117  Occ=0.000000D+00  E= 4.605031D+00  Symmetry=eu
              MO Center=  3.4D-13, -8.8D-16,  1.4D-12, r^2= 3.8D+00
   Bfn.  Coefficient  Atom+Function         Bfn.  Coefficient  Atom+Function  
  ----- ------------  ---------------      ----- ------------  ---------------
    53      1.005300   5 H  s                86     -1.005300   7 H  s         
    58     -0.846468   5 H  px               91     -0.846468   7 H  px        
     9     -0.760320   1 C  px               69     -0.760320   6 C  px        
    55      0.723732   5 H  px               88      0.723732   7 H  px        
    44     -0.589288   4 H  s               113      0.589288  10 H  s         

 Vector  118  Occ=0.000000D+00  E= 4.605031D+00  Symmetry=eu
              MO Center=  5.7D-14,  1.2D-13, -2.4D-13, r^2= 3.8D+00
   Bfn.  Coefficient  Atom+Function         Bfn.  Coefficient  Atom+Function  
  ----- ------------  ---------------      ----- ------------  ---------------
    35      0.920636   3 H  s               104     -0.920636   9 H  s         
    44     -0.820595   4 H  s               113      0.820595  10 H  s         
    10     -0.760320   1 C  py               70     -0.760320   6 C  py        
    50     -0.716164   4 H  py              119     -0.716164  10 H  py        
    41     -0.612711   3 H  py               47      0.610496   4 H  py        

 Vector  119  Occ=0.000000D+00  E= 2.168956D+01  Symmetry=a2u
              MO Center=  3.0D-16,  2.7D-16,  2.7D-16, r^2= 3.4D+00
   Bfn.  Coefficient  Atom+Function         Bfn.  Coefficient  Atom+Function  
  ----- ------------  ---------------      ----- ------------  ---------------
     5     -1.796644   1 C  s                65      1.796644   6 C  s         
     4      1.700140   1 C  s                64     -1.700140   6 C  s         
     2      1.224743   1 C  s                62     -1.224743   6 C  s         
     3     -1.199052   1 C  s                63      1.199052   6 C  s         
     1     -0.980847   1 C  s                61      0.980847   6 C  s         

 Vector  120  Occ=0.000000D+00  E= 2.173559D+01  Symmetry=a1g
              MO Center=  5.0D-16,  1.3D-16,  8.8D-16, r^2= 3.4D+00
   Bfn.  Coefficient  Atom+Function         Bfn.  Coefficient  Atom+Function  
  ----- ------------  ---------------      ----- ------------  ---------------
     4      1.793536   1 C  s                64      1.793536   6 C  s         
     5     -1.662420   1 C  s                65     -1.662420   6 C  s         
     2      1.227758   1 C  s                 3     -1.224206   1 C  s         
    62      1.227758   6 C  s                63     -1.224206   6 C  s         
     1     -0.981272   1 C  s                61     -0.981272   6 C  s         


 center of mass
 --------------
 x =   0.00000000 y =   0.00000000 z =   0.00000000

 moments of inertia (a.u.)
 ------------------
         389.795541351438           0.000000000000           0.000000000000
           0.000000000000         389.795541351438          -0.000000000000
           0.000000000000          -0.000000000000          22.954314901988

     Multipole analysis of the density
     ---------------------------------

     L   x y z        total         alpha         beta         nuclear
     -   - - -        -----         -----         ----         -------
     0   0 0 0     -0.000000    -10.000000    -10.000000     20.000000

     1   1 0 0     -0.000000     -0.000000     -0.000000      0.000000
     1   0 1 0     -0.000000     -0.000000     -0.000000      0.000000
     1   0 0 1     -0.000000     -0.000000     -0.000000      0.000000

     2   2 0 0    -12.782554    -12.085300    -12.085300     11.388046
     2   1 1 0     -0.000000     -0.000000     -0.000000     -0.000000
     2   1 0 1     -0.000000     -0.000000     -0.000000     -0.000000
     2   0 2 0    -12.782554    -12.085300    -12.085300     11.388046
     2   0 1 1      0.000000      0.000000      0.000000      0.000000
     2   0 0 2    -12.909508   -126.533305   -126.533305    240.157101


 Task  times  cpu:        0.5s     wall:        0.5s


                                NWChem Input Module
                                -------------------


 Summary of allocated global arrays
-----------------------------------
  No active global arrays



                         GA Statistics for process    0
                         ------------------------------

       create   destroy   get      put      acc     scatter   gather  read&inc
calls:  480      480     2.66e+04 1.19e+04 1.70e+04    0        0     2913     
number of processes/call 1.37e+00 1.34e+00 1.04e+00 0.00e+00 0.00e+00
bytes total:             8.52e+07 1.97e+07 4.85e+07 0.00e+00 0.00e+00 2.33e+04
bytes remote:            5.35e+07 9.63e+06 3.08e+07 0.00e+00 0.00e+00 0.00e+00
Max memory consumed for GA by this process: 1152000 bytes

MA_summarize_allocated_blocks: starting scan ...
heap block 'gridpts', handle 82, address 0x55bad1536800:
	type of elements:		double precision
	number of elements:		34424047
	address of client space:	0x55bad1536880
	index for client space:		10047267
	total number of bytes:		275392512
MA_summarize_allocated_blocks: scan completed: 1 heap block, 0 stack blocks
MA usage statistics:

	allocation statistics:
					      heap	     stack
					      ----	     -----
	current number of blocks	         1	         0
	maximum number of blocks	        29	        60
	current total bytes		 275392512	         0
	maximum total bytes		 276469584	  29572968
	maximum total K-bytes		    276470	     29573
	maximum total M-bytes		       277	        30


                                     CITATION
                                     --------
                Please cite the following reference when publishing
                           results obtained with NWChem:

                 M. Valiev, E.J. Bylaska, N. Govind, K. Kowalski,
              T.P. Straatsma, H.J.J. van Dam, D. Wang, J. Nieplocha,
                        E. Apra, T.L. Windus, W.A. de Jong
                 "NWChem: a comprehensive and scalable open-source
                  solution for large scale molecular simulations"
                      Comput. Phys. Commun. 181, 1477 (2010)
                           doi:10.1016/j.cpc.2010.04.018

                                      AUTHORS
                                      -------
          E. Apra, E. J. Bylaska, W. A. de Jong, N. Govind, K. Kowalski,
       T. P. Straatsma, M. Valiev, H. J. J. van Dam, D. Wang, T. L. Windus,
        J. Hammond, J. Autschbach, K. Bhaskaran-Nair, J. Brabec, K. Lopata,
    S. A. Fischer, S. Krishnamoorthy, M. Jacquelin, W. Ma, M. Klemm, O. Villa,
      Y. Chen, V. Anisimov, F. Aquino, S. Hirata, M. T. Hackler, V. Konjkov,
            D. Mejia-Rodriguez, T. Risthaus, M. Malagoli, A. Marenich,
   A. Otero-de-la-Roza, J. Mullin, P. Nichols, R. Peverati, J. Pittner, Y. Zhao,
        P.-D. Fan, A. Fonari, M. J. Williamson, R. J. Harrison, J. R. Rehr,
      M. Dupuis, D. Silverstein, D. M. A. Smith, J. Nieplocha, V. Tipparaju,
    M. Krishnan, B. E. Van Kuiken, A. Vazquez-Mayagoitia, L. Jensen, M. Swart,
      Q. Wu, T. Van Voorhis, A. A. Auer, M. Nooijen, L. D. Crosby, E. Brown,
      G. Cisneros, G. I. Fann, H. Fruchtl, J. Garza, K. Hirao, R. A. Kendall,
      J. A. Nichols, K. Tsemekhman, K. Wolinski, J. Anchell, D. E. Bernholdt,
      P. Borowski, T. Clark, D. Clerc, H. Dachsel, M. J. O. Deegan, K. Dyall,
    D. Elwood, E. Glendening, M. Gutowski, A. C. Hess, J. Jaffe, B. G. Johnson,
     J. Ju, R. Kobayashi, R. Kutteh, Z. Lin, R. Littlefield, X. Long, B. Meng,
      T. Nakajima, S. Niu, L. Pollack, M. Rosing, K. Glaesemann, G. Sandrone,
      M. Stave, H. Taylor, G. Thomas, J. H. van Lenthe, A. T. Wong, Z. Zhang.

 Total times  cpu:        2.8s     wall:        2.8s
