 argument  1 = /home/list1234/source/nwchem-6.8.1-release/QA/tests/geom_zmatrix/geom_zmatrix.nw



============================== echo of input deck ==============================
start geom_zmatrix
echo
  geometry autosym units angstrom noautoz print
         zmatrix
            O
            H    1 r2
            H    1 r2    2 a3
            O    1 r3    2 a4    3 a4 -1
            H    4 r2    1 a4    2 d1
            H    4 r2    1 a4    3 d1
            variables
            r2 0.962
            r3 2.000000
            a3 105.1
            a4 127.45
            d1 90.000000
         end
        end
basis
* library 6-31G*
end
print low
task dft

GEOMETRY
  ZMATRIX
    C
    O  1 dst1
    C  1 dst2 2 ang1
    H  1 dst3 2 ang2 3 ang3 1
    H  1 dst4 2 ang4 3 ang5 -1
    H  2 dst5 1 ang6 3 tor1
    H  3 dst6 1 ang7 2 tor2
    H  3 dst7 1 ang8 7 ang9 1
    H  3 dst8 1 ang10 7 ang11 -1
    VARIABLES
     ang10  109.47042118
     dst8  1.08998960
     ang5  109.47042118
     ang4  109.46955544
     ang11  109.46955544
     dst6  1.09000000
     ang3  109.47042118
     ang8  109.47042118
     ang2  109.46955544
     dst5  0.98005555
     dst3  1.08998960
     dst1  1.42000000
     ang6  109.47213930
     ang9  109.46955544
     dst2  1.53000204
     ang7  109.47119359
     dst4  1.08998960
     dst7  1.08998960
     ang1  109.47119359
     tor2  180.00000000
     tor1  180.00000000
  END
END


task dft
================================================================================


                                         
                                         


              Northwest Computational Chemistry Package (NWChem) 6.8
              ------------------------------------------------------


                    Environmental Molecular Sciences Laboratory
                       Pacific Northwest National Laboratory
                                Richland, WA 99352

                              Copyright (c) 1994-2018
                       Pacific Northwest National Laboratory
                            Battelle Memorial Institute

             NWChem is an open-source computational chemistry package
                        distributed under the terms of the
                      Educational Community License (ECL) 2.0
             A copy of the license is included with this distribution
                              in the LICENSE.TXT file

                                  ACKNOWLEDGMENT
                                  --------------

            This software and its documentation were developed at the
            EMSL at Pacific Northwest National Laboratory, a multiprogram
            national laboratory, operated for the U.S. Department of Energy
            by Battelle under Contract Number DE-AC05-76RL01830. Support
            for this work was provided by the Department of Energy Office
            of Biological and Environmental Research, Office of Basic
            Energy Sciences, and the Office of Advanced Scientific Computing.


           Job information
           ---------------

    hostname        = list1234-B360M-H
    program         = /home/list1234/source/nwchem-6.8.1-release/bin/LINUX64/nwchem
    date            = Sun Jun 30 05:39:46 2019

    compiled        = Sun_Jun_30_05:21:11_2019
    source          = /home/list1234/source/nwchem-6.8.1-release
    nwchem branch   = Development
    nwchem revision = N/A
    ga revision     = 5.6.5
    use scalapack   = T
    input           = /home/list1234/source/nwchem-6.8.1-release/QA/tests/geom_zmatrix/geom_zmatrix.nw
    prefix          = geom_zmatrix.
    data base       = ./geom_zmatrix.db
    status          = startup
    nproc           =        4
    time left       =     -1s



           Memory information
           ------------------

    heap     =   86247166 doubles =    658.0 Mbytes
    stack    =   86247163 doubles =    658.0 Mbytes
    global   =  172494336 doubles =   1316.0 Mbytes (distinct from heap & stack)
    total    =  344988665 doubles =   2632.1 Mbytes
    verify   = yes
    hardfail = no 


           Directory information
           ---------------------

  0 permanent = .
  0 scratch   = .




                                NWChem Input Module
                                -------------------



 Scaling coordinates for geometry "geometry" by  1.889725989
 (inverse scale =  0.529177249)

 D2D symmetry detected


                             Geometry "geometry" -> ""
                             -------------------------

 Output coordinates in angstroms (scale by  1.889725989 to convert to a.u.)

  No.       Tag          Charge          X              Y              Z
 ---- ---------------- ---------- -------------- -------------- --------------
    1 O                    8.0000     0.00000000     0.00000000     1.00000000
    2 H                    1.0000    -0.54002924     0.54002924     1.58496225
    3 H                    1.0000     0.54002924    -0.54002924     1.58496225
    4 O                    8.0000     0.00000000     0.00000000    -1.00000000
    5 H                    1.0000     0.54002924     0.54002924    -1.58496225
    6 H                    1.0000    -0.54002924    -0.54002924    -1.58496225

      Atomic Mass 
      ----------- 

      O                 15.994910
      H                  1.007825


 Effective nuclear repulsion energy (a.u.)      42.1435904691

            Nuclear Dipole moment (a.u.) 
            ----------------------------
        X                 Y               Z
 ---------------- ---------------- ----------------
    -0.0000000000     0.0000000000     0.0000000000

      Symmetry information
      --------------------

 Group name             D2d       
 Group number             32
 Group order               8
 No. of unique centers     2

      Symmetry unique atoms

     1    2



                                Z-matrix (user)
                                -------- 

 Units are Angstrom for bonds and degrees for angles

  Constrained variables are marked with a plus sign (+).


      Type          Name      I     J     K     L     M      Value
      ----------- --------  ----- ----- ----- ----- ----- ----------
    1+Stretch      r2          2     1                       0.96200
    2+Stretch      r2          3     1                       0.96200
    3 Bend         a3          3     1     2               105.10000
    4 Stretch      r3          4     1                       2.00000
    5+Bend         a4          4     1     2               127.45000
    6+Bend(2)      a4          4     1     3    -1         127.45000
    7+Stretch      r2          5     4                       0.96200
    8+Bend         a4          5     4     1               127.45000
    9+Torsion      d1          5     4     1     2          90.00000
   10+Stretch      r2          6     4                       0.96200
   11+Bend         a4          6     4     1               127.45000
   12+Torsion      d1          6     4     1     3          90.00000

 ==============================================================================
                                internuclear distances
 ------------------------------------------------------------------------------
       center one      |      center two      | atomic units |  angstroms
 ------------------------------------------------------------------------------
    2 H                |   1 O                |     1.81792  |     0.96200
    3 H                |   1 O                |     1.81792  |     0.96200
    5 H                |   4 O                |     1.81792  |     0.96200
    6 H                |   4 O                |     1.81792  |     0.96200
 ------------------------------------------------------------------------------
                         number of included internuclear distances:          4
 ==============================================================================



 ==============================================================================
                                 internuclear angles
 ------------------------------------------------------------------------------
        center 1       |       center 2       |       center 3       |  degrees
 ------------------------------------------------------------------------------
    2 H                |   1 O                |   3 H                |   105.10
    5 H                |   4 O                |   6 H                |   105.10
 ------------------------------------------------------------------------------
                            number of included internuclear angles:          2
 ==============================================================================





 Summary of "ao basis" -> "" (cartesian)
 ------------------------------------------------------------------------------
       Tag                 Description            Shells   Functions and Types
 ---------------- ------------------------------  ------  ---------------------
 *                           6-31G*                   on all atoms 



                                 NWChem DFT Module
                                 -----------------


                      Basis "ao basis" -> "ao basis" (cartesian)
                      -----
  O (Oxygen)
  ----------
            Exponent  Coefficients 
       -------------- ---------------------------------------------------------
  1 S  5.48467170E+03  0.001831
  1 S  8.25234950E+02  0.013950
  1 S  1.88046960E+02  0.068445
  1 S  5.29645000E+01  0.232714
  1 S  1.68975700E+01  0.470193
  1 S  5.79963530E+00  0.358521

  2 S  1.55396160E+01 -0.110778
  2 S  3.59993360E+00 -0.148026
  2 S  1.01376180E+00  1.130767

  3 P  1.55396160E+01  0.070874
  3 P  3.59993360E+00  0.339753
  3 P  1.01376180E+00  0.727159

  4 S  2.70005800E-01  1.000000

  5 P  2.70005800E-01  1.000000

  6 D  8.00000000E-01  1.000000

  H (Hydrogen)
  ------------
            Exponent  Coefficients 
       -------------- ---------------------------------------------------------
  1 S  1.87311370E+01  0.033495
  1 S  2.82539370E+00  0.234727
  1 S  6.40121700E-01  0.813757

  2 S  1.61277800E-01  1.000000



 Summary of "ao basis" -> "ao basis" (cartesian)
 ------------------------------------------------------------------------------
       Tag                 Description            Shells   Functions and Types
 ---------------- ------------------------------  ------  ---------------------
 O                           6-31G*                  6       15   3s2p1d
 H                           6-31G*                  2        2   2s



  Caching 1-el integrals 
   Time after variat. SCF:      0.1
   Time prior to 1st pass:      0.1


         Total DFT energy =     -151.654032038788
      One electron energy =     -294.181087710322
           Coulomb energy =      117.948703080364
    Exchange-Corr. energy =      -17.565237877977
 Nuclear repulsion energy =       42.143590469147

 Numeric. integr. density =       20.000002065269

     Total iterative time =      0.2s



                  Occupations of the irreducible representations
                  ----------------------------------------------

                     irrep           alpha         beta
                     --------     --------     --------
                     a1                3.0          3.0
                     a2                0.0          0.0
                     b1                0.0          0.0
                     b2                3.0          3.0
                     e                 4.0          4.0



                                NWChem Input Module
                                -------------------



 Scaling coordinates for geometry "geometry" by  1.889725989
 (inverse scale =  0.529177249)



                         Geometry "geometry" -> "        "
                         ---------------------------------

 Output coordinates in angstroms (scale by  1.889725989 to convert to a.u.)

  No.       Tag          Charge          X              Y              Z
 ---- ---------------- ---------- -------------- -------------- --------------
    1 C                    6.0000    -0.54068938    -0.06592616     0.00000000
    2 O                    8.0000     0.34483642    -1.17599105     0.00000000
    3 C                    6.0000     0.26892361     1.23231613     0.00000000
    4 H                    1.0000    -1.16890266    -0.10233220     0.89000000
    5 H                    1.0000    -1.16890266    -0.10233220    -0.89000000
    6 H                    1.0000    -0.17375420    -2.00759953     0.00000000
    7 H                    1.0000    -0.41081098     2.08440819     0.00000000
    8 H                    1.0000     0.89713689     1.26872217    -0.89000000
    9 H                    1.0000     0.89713689     1.26872217     0.89000000

      Atomic Mass 
      ----------- 

      C                 12.000000
      O                 15.994910
      H                  1.007825


 Effective nuclear repulsion energy (a.u.)      81.5448752882

            Nuclear Dipole moment (a.u.) 
            ----------------------------
        X                 Y               Z
 ---------------- ---------------- ----------------
     0.0000000000    -0.0000000000     0.0000000000

      Symmetry information
      --------------------

 Group name             Cs        
 Group number              2
 Group order               2
 No. of unique centers     7

      Symmetry unique atoms

     1    2    3    4    6    7    8



                                Z-matrix (user)
                                -------- 

 Units are Angstrom for bonds and degrees for angles

      Type          Name      I     J     K     L     M      Value
      ----------- --------  ----- ----- ----- ----- ----- ----------
    1 Stretch      dst1        2     1                       1.42000
    2 Stretch      dst2        3     1                       1.53000
    3 Bend         ang1        3     1     2               109.47119
    4 Stretch      dst3        4     1                       1.08999
    5 Bend         ang2        4     1     2               109.46956
    6 Bend(2)      ang3        4     1     3     1         109.47042
    7 Stretch      dst4        5     1                       1.08999
    8 Bend         ang4        5     1     2               109.46956
    9 Bend(2)      ang5        5     1     3    -1         109.47042
   10 Stretch      dst5        6     2                       0.98006
   11 Bend         ang6        6     2     1               109.47214
   12 Torsion      tor1        6     2     1     3         180.00000
   13 Stretch      dst6        7     3                       1.09000
   14 Bend         ang7        7     3     1               109.47119
   15 Torsion      tor2        7     3     1     2         180.00000
   16 Stretch      dst7        8     3                       1.08999
   17 Bend         ang8        8     3     1               109.47042
   18 Bend(2)      ang9        8     3     7     1         109.46956
   19 Stretch      dst8        9     3                       1.08999
   20 Bend         ang10       9     3     1               109.47042
   21 Bend(2)      ang11       9     3     7    -1         109.46956


            XYZ format geometry
            -------------------
     9
 geometry
 C                    -0.54068938    -0.06592616     0.00000000
 O                     0.34483642    -1.17599105     0.00000000
 C                     0.26892361     1.23231613     0.00000000
 H                    -1.16890266    -0.10233220     0.89000000
 H                    -1.16890266    -0.10233220    -0.89000000
 H                    -0.17375420    -2.00759953     0.00000000
 H                    -0.41081098     2.08440819     0.00000000
 H                     0.89713689     1.26872217    -0.89000000
 H                     0.89713689     1.26872217     0.89000000

 ==============================================================================
                                internuclear distances
 ------------------------------------------------------------------------------
       center one      |      center two      | atomic units |  angstroms
 ------------------------------------------------------------------------------
    2 O                |   1 C                |     2.68341  |     1.42000
    3 C                |   1 C                |     2.89128  |     1.53000
    4 H                |   1 C                |     2.05978  |     1.08999
    5 H                |   1 C                |     2.05978  |     1.08999
    6 H                |   2 O                |     1.85204  |     0.98006
    7 H                |   3 C                |     2.05980  |     1.09000
    8 H                |   3 C                |     2.05978  |     1.08999
    9 H                |   3 C                |     2.05978  |     1.08999
 ------------------------------------------------------------------------------
                         number of included internuclear distances:          8
 ==============================================================================



 ==============================================================================
                                 internuclear angles
 ------------------------------------------------------------------------------
        center 1       |       center 2       |       center 3       |  degrees
 ------------------------------------------------------------------------------
    2 O                |   1 C                |   3 C                |   109.47
    2 O                |   1 C                |   4 H                |   109.47
    2 O                |   1 C                |   5 H                |   109.47
    3 C                |   1 C                |   4 H                |   109.47
    3 C                |   1 C                |   5 H                |   109.47
    4 H                |   1 C                |   5 H                |   109.48
    1 C                |   2 O                |   6 H                |   109.47
    1 C                |   3 C                |   7 H                |   109.47
    1 C                |   3 C                |   8 H                |   109.47
    1 C                |   3 C                |   9 H                |   109.47
    7 H                |   3 C                |   8 H                |   109.47
    7 H                |   3 C                |   9 H                |   109.47
    8 H                |   3 C                |   9 H                |   109.48
 ------------------------------------------------------------------------------
                            number of included internuclear angles:         13
 ==============================================================================




                                 NWChem DFT Module
                                 -----------------



  Caching 1-el integrals 

 !! nbf/nmo/basis-name mismatch 
           nbf=  57 nbf_file=  38
           nmo=  57 nmo_file=  38
           basis="ao basis" basis_file="ao basis"

  Either an incorrect movecs file was specified, or linear dependence has changed,
  or the basis name was changed. 

  Load of old vectors failed.   Forcing atomic density guess

   Time after variat. SCF:      0.3
   Time prior to 1st pass:      0.3
  Resetting Diis


         Total DFT energy =     -153.719366095840
      One electron energy =     -371.328725239868
           Coulomb energy =      156.376597819182
    Exchange-Corr. energy =      -20.312113963343
 Nuclear repulsion energy =       81.544875288190

 Numeric. integr. density =       25.999998758854

     Total iterative time =      0.8s



                  Occupations of the irreducible representations
                  ----------------------------------------------

                     irrep           alpha         beta
                     --------     --------     --------
                     a'               10.0         10.0
                     a"                3.0          3.0



                                NWChem Input Module
                                -------------------




                                     CITATION
                                     --------
                Please cite the following reference when publishing
                           results obtained with NWChem:

                 M. Valiev, E.J. Bylaska, N. Govind, K. Kowalski,
              T.P. Straatsma, H.J.J. van Dam, D. Wang, J. Nieplocha,
                        E. Apra, T.L. Windus, W.A. de Jong
                 "NWChem: a comprehensive and scalable open-source
                  solution for large scale molecular simulations"
                      Comput. Phys. Commun. 181, 1477 (2010)
                           doi:10.1016/j.cpc.2010.04.018

                                      AUTHORS
                                      -------
          E. Apra, E. J. Bylaska, W. A. de Jong, N. Govind, K. Kowalski,
       T. P. Straatsma, M. Valiev, H. J. J. van Dam, D. Wang, T. L. Windus,
        J. Hammond, J. Autschbach, K. Bhaskaran-Nair, J. Brabec, K. Lopata,
    S. A. Fischer, S. Krishnamoorthy, M. Jacquelin, W. Ma, M. Klemm, O. Villa,
      Y. Chen, V. Anisimov, F. Aquino, S. Hirata, M. T. Hackler, V. Konjkov,
            D. Mejia-Rodriguez, T. Risthaus, M. Malagoli, A. Marenich,
   A. Otero-de-la-Roza, J. Mullin, P. Nichols, R. Peverati, J. Pittner, Y. Zhao,
        P.-D. Fan, A. Fonari, M. J. Williamson, R. J. Harrison, J. R. Rehr,
      M. Dupuis, D. Silverstein, D. M. A. Smith, J. Nieplocha, V. Tipparaju,
    M. Krishnan, B. E. Van Kuiken, A. Vazquez-Mayagoitia, L. Jensen, M. Swart,
      Q. Wu, T. Van Voorhis, A. A. Auer, M. Nooijen, L. D. Crosby, E. Brown,
      G. Cisneros, G. I. Fann, H. Fruchtl, J. Garza, K. Hirao, R. A. Kendall,
      J. A. Nichols, K. Tsemekhman, K. Wolinski, J. Anchell, D. E. Bernholdt,
      P. Borowski, T. Clark, D. Clerc, H. Dachsel, M. J. O. Deegan, K. Dyall,
    D. Elwood, E. Glendening, M. Gutowski, A. C. Hess, J. Jaffe, B. G. Johnson,
     J. Ju, R. Kobayashi, R. Kutteh, Z. Lin, R. Littlefield, X. Long, B. Meng,
      T. Nakajima, S. Niu, L. Pollack, M. Rosing, K. Glaesemann, G. Sandrone,
      M. Stave, H. Taylor, G. Thomas, J. H. van Lenthe, A. T. Wong, Z. Zhang.

 Total times  cpu:        1.1s     wall:        1.1s
