 argument  1 = /home/list1234/source/nwchem-6.8.1-release/QA/tests/geom_load_xyz/geom_load_xyz.nw



============================== echo of input deck ==============================
echo
start h2o

basis
  * library 6-31g*
end
#First test load entire system from xyz file
geometry noautosym noautoz nocenter
 load geom_load_xyz.xyz
end

dft
vectors input atomic
end
task dft gradient

#The same system but now specified explicitly
geometry noautosym noautoz nocenter
O    -3.307   3.534   6.622
H    -3.197   4.424   6.180
H    -3.992   2.998   6.128
end

dft
vectors input atomic
end
task dft gradient

#The same system but now specified via mixed input
#using id selection
geometry noautosym noautoz nocenter
load geom_load_xyz.xyz select id 1
H    -3.197   4.424   6.180
H    -3.992   2.998   6.128
end

dft
vectors input atomic
end
task dft gradient

#The same system but now specified via mixed input
#using id selection
geometry noautosym noautoz nocenter
load geom_load_xyz.xyz select id 1
H    -3.197   4.424   6.180
load geom_load_xyz.xyz select id 3
end

dft
vectors input atomic
end
task dft gradient

#The same system but now specified via mixed input
#using id RANGE selection
geometry noautosym noautoz nocenter
load geom_load_xyz.xyz select id 1:2
H    -3.992   2.998   6.128
end

dft
vectors input atomic
end
task dft gradient


#The same system but now specified via mixed input
#using id RANGE selection
geometry noautosym noautoz nocenter
O    -3.307   3.534   6.622
load geom_load_xyz.xyz select name H
end

dft
vectors input atomic
end
task dft gradient


#load frame 3 from multi-structure xyz file
geometry noautosym noautoz nocenter
 load frame 3 geom_load_xyz.xyz
end

dft
vectors input atomic
end
task dft gradient


#load frame 3 from multi-structure xyz file
#using selection within the frame
geometry noautosym noautoz nocenter
 load frame 3 select name O geom_load_xyz.xyz
 load frame 3 select id 2:3 geom_load_xyz.xyz
end

dft
vectors input atomic
end
task dft gradient


================================================================================


                                         
                                         


              Northwest Computational Chemistry Package (NWChem) 6.8
              ------------------------------------------------------


                    Environmental Molecular Sciences Laboratory
                       Pacific Northwest National Laboratory
                                Richland, WA 99352

                              Copyright (c) 1994-2018
                       Pacific Northwest National Laboratory
                            Battelle Memorial Institute

             NWChem is an open-source computational chemistry package
                        distributed under the terms of the
                      Educational Community License (ECL) 2.0
             A copy of the license is included with this distribution
                              in the LICENSE.TXT file

                                  ACKNOWLEDGMENT
                                  --------------

            This software and its documentation were developed at the
            EMSL at Pacific Northwest National Laboratory, a multiprogram
            national laboratory, operated for the U.S. Department of Energy
            by Battelle under Contract Number DE-AC05-76RL01830. Support
            for this work was provided by the Department of Energy Office
            of Biological and Environmental Research, Office of Basic
            Energy Sciences, and the Office of Advanced Scientific Computing.


           Job information
           ---------------

    hostname        = list1234-B360M-H
    program         = /home/list1234/source/nwchem-6.8.1-release/bin/LINUX64/nwchem
    date            = Sun Jun 30 07:58:24 2019

    compiled        = Sun_Jun_30_05:21:11_2019
    source          = /home/list1234/source/nwchem-6.8.1-release
    nwchem branch   = Development
    nwchem revision = N/A
    ga revision     = 5.6.5
    use scalapack   = T
    input           = /home/list1234/source/nwchem-6.8.1-release/QA/tests/geom_load_xyz/geom_load_xyz.nw
    prefix          = h2o.
    data base       = ./h2o.db
    status          = startup
    nproc           =        4
    time left       =     -1s



           Memory information
           ------------------

    heap     =   86247164 doubles =    658.0 Mbytes
    stack    =   86247169 doubles =    658.0 Mbytes
    global   =  172494336 doubles =   1316.0 Mbytes (distinct from heap & stack)
    total    =  344988669 doubles =   2632.1 Mbytes
    verify   = yes
    hardfail = no 


           Directory information
           ---------------------

  0 permanent = .
  0 scratch   = .




                                NWChem Input Module
                                -------------------




 Summary of "ao basis" -> "" (cartesian)
 ------------------------------------------------------------------------------
       Tag                 Description            Shells   Functions and Types
 ---------------- ------------------------------  ------  ---------------------
 *                           6-31g*                   on all atoms 



 Scaling coordinates for geometry "geometry" by  1.889725989
 (inverse scale =  0.529177249)



                             Geometry "geometry" -> ""
                             -------------------------

 Output coordinates in angstroms (scale by  1.889725989 to convert to a.u.)

  No.       Tag          Charge          X              Y              Z
 ---- ---------------- ---------- -------------- -------------- --------------
    1 O                    8.0000    -3.30700000     3.53400000     6.62200000
    2 H                    1.0000    -3.19700000     4.42400000     6.18000000
    3 H                    1.0000    -3.99200000     2.99800000     6.12800000

      Atomic Mass 
      ----------- 

      O                 15.994910
      H                  1.007825


 Effective nuclear repulsion energy (a.u.)       8.7905407885

            Nuclear Dipole moment (a.u.) 
            ----------------------------
        X                 Y               Z
 ---------------- ---------------- ----------------
   -63.5798308858    67.4518794364   123.3688714385


            XYZ format geometry
            -------------------
     3
 geometry
 O                    -3.30700000     3.53400000     6.62200000
 H                    -3.19700000     4.42400000     6.18000000
 H                    -3.99200000     2.99800000     6.12800000

 ==============================================================================
                                internuclear distances
 ------------------------------------------------------------------------------
       center one      |      center two      | atomic units |  angstroms
 ------------------------------------------------------------------------------
    2 H                |   1 O                |     1.88931  |     0.99978
    3 H                |   1 O                |     1.89025  |     1.00028
 ------------------------------------------------------------------------------
                         number of included internuclear distances:          2
 ==============================================================================



 ==============================================================================
                                 internuclear angles
 ------------------------------------------------------------------------------
        center 1       |       center 2       |       center 3       |  degrees
 ------------------------------------------------------------------------------
    2 H                |   1 O                |   3 H                |   109.51
 ------------------------------------------------------------------------------
                            number of included internuclear angles:          1
 ==============================================================================




                                 NWChem DFT Module
                                 -----------------


                      Basis "ao basis" -> "ao basis" (cartesian)
                      -----
  O (Oxygen)
  ----------
            Exponent  Coefficients 
       -------------- ---------------------------------------------------------
  1 S  5.48467170E+03  0.001831
  1 S  8.25234950E+02  0.013950
  1 S  1.88046960E+02  0.068445
  1 S  5.29645000E+01  0.232714
  1 S  1.68975700E+01  0.470193
  1 S  5.79963530E+00  0.358521

  2 S  1.55396160E+01 -0.110778
  2 S  3.59993360E+00 -0.148026
  2 S  1.01376180E+00  1.130767

  3 P  1.55396160E+01  0.070874
  3 P  3.59993360E+00  0.339753
  3 P  1.01376180E+00  0.727159

  4 S  2.70005800E-01  1.000000

  5 P  2.70005800E-01  1.000000

  6 D  8.00000000E-01  1.000000

  H (Hydrogen)
  ------------
            Exponent  Coefficients 
       -------------- ---------------------------------------------------------
  1 S  1.87311370E+01  0.033495
  1 S  2.82539370E+00  0.234727
  1 S  6.40121700E-01  0.813757

  2 S  1.61277800E-01  1.000000



 Summary of "ao basis" -> "ao basis" (cartesian)
 ------------------------------------------------------------------------------
       Tag                 Description            Shells   Functions and Types
 ---------------- ------------------------------  ------  ---------------------
 O                           6-31g*                  6       15   3s2p1d
 H                           6-31g*                  2        2   2s




 Summary of "ao basis" -> "ao basis" (cartesian)
 ------------------------------------------------------------------------------
       Tag                 Description            Shells   Functions and Types
 ---------------- ------------------------------  ------  ---------------------
 O                           6-31g*                  6       15   3s2p1d
 H                           6-31g*                  2        2   2s


  Caching 1-el integrals 

            General Information
            -------------------
          SCF calculation type: DFT
          Wavefunction type:  closed shell.
          No. of atoms     :     3
          No. of electrons :    10
           Alpha electrons :     5
            Beta electrons :     5
          Charge           :     0
          Spin multiplicity:     1
          Use of symmetry is: off; symmetry adaption is: off
          Maximum number of iterations:  30
          AO basis - number of functions:    19
                     number of shells:    10
          Convergence on energy requested:  1.00D-06
          Convergence on density requested:  1.00D-05
          Convergence on gradient requested:  5.00D-04

              XC Information
              --------------
                        Slater Exchange Functional  1.000 local    
                      VWN V Correlation Functional  1.000 local    

             Grid Information
             ----------------
          Grid used for XC integration:  medium    
          Radial quadrature: Mura-Knowles        
          Angular quadrature: Lebedev. 
          Tag              B.-S. Rad. Rad. Pts. Rad. Cut. Ang. Pts.
          ---              ---------- --------- --------- ---------
          O                   0.60       49           5.0       434
          H                   0.35       45           6.0       434
          Grid pruning is: on 
          Number of quadrature shells:   139
          Spatial weights used:  Erf1

          Convergence Information
          -----------------------
          Convergence aids based upon iterative change in 
          total energy or number of iterations. 
          Levelshifting, if invoked, occurs when the 
          HOMO/LUMO gap drops below (HL_TOL):  1.00D-02
          DIIS, if invoked, will attempt to extrapolate 
          using up to (NFOCK): 10 stored Fock matrices.

                    Damping( 0%)  Levelshifting(0.5)       DIIS
                  --------------- ------------------- ---------------
          dE  on:    start            ASAP                start   
          dE off:    2 iters         30 iters            30 iters 


      Screening Tolerance Information
      -------------------------------
          Density screening/tol_rho:  1.00D-10
          AO Gaussian exp screening on grid/accAOfunc:  14
          CD Gaussian exp screening on grid/accCDfunc:  20
          XC Gaussian exp screening on grid/accXCfunc:  20
          Schwarz screening/accCoul:  1.00D-08


      Superposition of Atomic Density Guess
      -------------------------------------

 Sum of atomic energies:         -75.75081731

      Non-variational initial energy
      ------------------------------

 Total energy =     -75.832658
 1-e energy   =    -121.076298
 2-e energy   =      36.453099
 HOMO         =      -0.457501
 LUMO         =       0.099590

   Time after variat. SCF:      0.1
   Time prior to 1st pass:      0.1

 Grid_pts file          = ./h2o.gridpts.0
 Record size in doubles =  12289        No. of grid_pts per rec  =   3070
 Max. records in memory =      7        Max. recs in file   = 253312716


           Memory utilization after 1st SCF pass: 
           Heap Space remaining (MW):       51.72            51719436
          Stack Space remaining (MW):       86.25            86246932

   convergence    iter        energy       DeltaE   RMS-Dens  Diis-err    time
 ---------------- ----- ----------------- --------- --------- ---------  ------
 d= 0,ls=0.0,diis     1    -75.8038275750 -8.46D+01  5.27D-02  5.66D-01     0.1
 d= 0,ls=0.0,diis     2    -75.7594839477  4.43D-02  3.41D-02  8.93D-01     0.1
 d= 0,ls=0.0,diis     3    -75.8374514767 -7.80D-02  5.74D-03  6.20D-02     0.1
 d= 0,ls=0.0,diis     4    -75.8428815593 -5.43D-03  6.98D-04  4.37D-04     0.1
 d= 0,ls=0.0,diis     5    -75.8429270149 -4.55D-05  6.96D-05  1.10D-06     0.1
 d= 0,ls=0.0,diis     6    -75.8429271647 -1.50D-07  7.34D-06  6.26D-08     0.1


         Total DFT energy =      -75.842927164709
      One electron energy =     -122.364014047384
           Coulomb energy =       46.462370810435
    Exchange-Corr. energy =       -8.731824716268
 Nuclear repulsion energy =        8.790540788508

 Numeric. integr. density =       10.000000749497

     Total iterative time =      0.1s



                       DFT Final Molecular Orbital Analysis
                       ------------------------------------

 Vector    1  Occ=2.000000D+00  E=-1.860269D+01
              MO Center= -3.3D+00,  3.5D+00,  6.6D+00, r^2= 1.5D-02
   Bfn.  Coefficient  Atom+Function         Bfn.  Coefficient  Atom+Function  
  ----- ------------  ---------------      ----- ------------  ---------------
     1      0.990685  1 O  s                  2      0.030542  1 O  s          

 Vector    2  Occ=2.000000D+00  E=-8.816179D-01
              MO Center= -3.4D+00,  3.6D+00,  6.5D+00, r^2= 5.2D-01
   Bfn.  Coefficient  Atom+Function         Bfn.  Coefficient  Atom+Function  
  ----- ------------  ---------------      ----- ------------  ---------------
     2      0.460376  1 O  s                  6      0.455717  1 O  s          
     1     -0.211272  1 O  s                 16      0.130755  2 H  s          
    18      0.130578  3 H  s                  5     -0.104691  1 O  pz         
     3     -0.064234  1 O  px                 9     -0.053412  1 O  pz         
     4      0.039745  1 O  py                 7     -0.032791  1 O  px         

 Vector    3  Occ=2.000000D+00  E=-4.609120D-01
              MO Center= -3.4D+00,  3.6D+00,  6.4D+00, r^2= 8.3D-01
   Bfn.  Coefficient  Atom+Function         Bfn.  Coefficient  Atom+Function  
  ----- ------------  ---------------      ----- ------------  ---------------
     4      0.449497  1 O  py                 3      0.250500  1 O  px         
     8      0.235187  1 O  py                16      0.231361  2 H  s          
    18     -0.231355  3 H  s                 17      0.147317  2 H  s          
    19     -0.147395  3 H  s                  7      0.131091  1 O  px         
    14     -0.044927  1 O  dyz               12     -0.026412  1 O  dxz        

 Vector    4  Occ=2.000000D+00  E=-2.988041D-01
              MO Center= -3.3D+00,  3.5D+00,  6.7D+00, r^2= 7.1D-01
   Bfn.  Coefficient  Atom+Function         Bfn.  Coefficient  Atom+Function  
  ----- ------------  ---------------      ----- ------------  ---------------
     5      0.449225  1 O  pz                 6      0.405503  1 O  s          
     9      0.312361  1 O  pz                 3      0.275882  1 O  px         
     7      0.191839  1 O  px                 2      0.170067  1 O  s          
     4     -0.170060  1 O  py                16     -0.133897  2 H  s          
    18     -0.133942  3 H  s                 17     -0.122926  2 H  s          

 Vector    5  Occ=2.000000D+00  E=-2.257207D-01
              MO Center= -3.3D+00,  3.5D+00,  6.6D+00, r^2= 6.0D-01
   Bfn.  Coefficient  Atom+Function         Bfn.  Coefficient  Atom+Function  
  ----- ------------  ---------------      ----- ------------  ---------------
     3      0.459249  1 O  px                 5     -0.373802  1 O  pz         
     7      0.366935  1 O  px                 9     -0.298663  1 O  pz         
     4     -0.242402  1 O  py                 8     -0.193676  1 O  py         
    15      0.027881  1 O  dzz        

 Vector    6  Occ=0.000000D+00  E= 2.964554D-02
              MO Center= -3.6D+00,  3.7D+00,  6.1D+00, r^2= 2.4D+00
   Bfn.  Coefficient  Atom+Function         Bfn.  Coefficient  Atom+Function  
  ----- ------------  ---------------      ----- ------------  ---------------
     6      1.148839  1 O  s                 17     -0.917149  2 H  s          
    19     -0.919077  3 H  s                  9     -0.356095  1 O  pz         
     5     -0.243505  1 O  pz                 7     -0.219038  1 O  px         
     2      0.152375  1 O  s                  3     -0.149819  1 O  px         
     8      0.134140  1 O  py                16     -0.125058  2 H  s          

 Vector    7  Occ=0.000000D+00  E= 1.116007D-01
              MO Center= -3.6D+00,  3.7D+00,  6.1D+00, r^2= 2.4D+00
   Bfn.  Coefficient  Atom+Function         Bfn.  Coefficient  Atom+Function  
  ----- ------------  ---------------      ----- ------------  ---------------
    17      1.173332  2 H  s                 19     -1.170577  3 H  s          
     8     -0.633778  1 O  py                 4     -0.390671  1 O  py         
     7     -0.352902  1 O  px                 3     -0.217578  1 O  px         
    16      0.126911  2 H  s                 18     -0.126850  3 H  s          

 Vector    8  Occ=0.000000D+00  E= 7.450569D-01
              MO Center= -3.5D+00,  3.6D+00,  6.4D+00, r^2= 1.7D+00
   Bfn.  Coefficient  Atom+Function         Bfn.  Coefficient  Atom+Function  
  ----- ------------  ---------------      ----- ------------  ---------------
    18     -0.841685  3 H  s                 16      0.829249  2 H  s          
    19      0.754503  3 H  s                 17     -0.743709  2 H  s          
    14     -0.255104  1 O  dyz                8     -0.226320  1 O  py         
     4     -0.203904  1 O  py                12     -0.150824  1 O  dxz        
     7     -0.124759  1 O  px                 3     -0.116417  1 O  px         

 Vector    9  Occ=0.000000D+00  E= 7.661777D-01
              MO Center= -3.5D+00,  3.7D+00,  6.3D+00, r^2= 1.4D+00
   Bfn.  Coefficient  Atom+Function         Bfn.  Coefficient  Atom+Function  
  ----- ------------  ---------------      ----- ------------  ---------------
    16      0.783066  2 H  s                 18      0.769603  3 H  s          
    17     -0.631673  2 H  s                 19     -0.620912  3 H  s          
     5      0.446251  1 O  pz                 3      0.273234  1 O  px         
     6      0.251693  1 O  s                 11      0.214682  1 O  dxy        
     9     -0.200805  1 O  pz                 2     -0.173891  1 O  s          

 Vector   10  Occ=0.000000D+00  E= 8.303469D-01
              MO Center= -3.3D+00,  3.5D+00,  6.6D+00, r^2= 1.1D+00
   Bfn.  Coefficient  Atom+Function         Bfn.  Coefficient  Atom+Function  
  ----- ------------  ---------------      ----- ------------  ---------------
     7     -0.743682  1 O  px                 3      0.690915  1 O  px         
     9      0.605314  1 O  pz                 5     -0.562364  1 O  pz         
     8      0.392532  1 O  py                 4     -0.364680  1 O  py         

 Vector   11  Occ=0.000000D+00  E= 8.396156D-01
              MO Center= -3.2D+00,  3.4D+00,  6.9D+00, r^2= 1.3D+00
   Bfn.  Coefficient  Atom+Function         Bfn.  Coefficient  Atom+Function  
  ----- ------------  ---------------      ----- ------------  ---------------
     6      1.156904  1 O  s                  9      0.744867  1 O  pz         
     2     -0.702071  1 O  s                  5     -0.575066  1 O  pz         
     7      0.457048  1 O  px                 3     -0.353044  1 O  px         
    16      0.352933  2 H  s                 18      0.352391  3 H  s          
     8     -0.282727  1 O  py                17     -0.257139  2 H  s          

 Vector   12  Occ=0.000000D+00  E= 9.962659D-01
              MO Center= -3.3D+00,  3.5D+00,  6.7D+00, r^2= 1.5D+00
   Bfn.  Coefficient  Atom+Function         Bfn.  Coefficient  Atom+Function  
  ----- ------------  ---------------      ----- ------------  ---------------
     8      1.462219  1 O  py                17     -0.849988  2 H  s          
    19      0.849375  3 H  s                  4     -0.838566  1 O  py         
     7      0.815295  1 O  px                 3     -0.467535  1 O  px         
    14      0.073353  1 O  dyz               18      0.062896  3 H  s          
    16     -0.061981  2 H  s                  9      0.053448  1 O  pz         

 Vector   13  Occ=0.000000D+00  E= 1.110906D+00
              MO Center= -3.5D+00,  3.7D+00,  6.2D+00, r^2= 1.5D+00
   Bfn.  Coefficient  Atom+Function         Bfn.  Coefficient  Atom+Function  
  ----- ------------  ---------------      ----- ------------  ---------------
     6      3.580084  1 O  s                  2     -1.509051  1 O  s          
     9     -0.796103  1 O  pz                17     -0.785746  2 H  s          
    19     -0.783920  3 H  s                 13     -0.576362  1 O  dyy        
     7     -0.488484  1 O  px                10     -0.405547  1 O  dxx        
    15     -0.357407  1 O  dzz                5      0.313262  1 O  pz         

 Vector   14  Occ=0.000000D+00  E= 1.679738D+00
              MO Center= -3.3D+00,  3.5D+00,  6.6D+00, r^2= 6.1D-01
   Bfn.  Coefficient  Atom+Function         Bfn.  Coefficient  Atom+Function  
  ----- ------------  ---------------      ----- ------------  ---------------
    14      0.904108  1 O  dyz               11     -0.766399  1 O  dxy        
    10     -0.604646  1 O  dxx               13      0.572975  1 O  dyy        
    12      0.453236  1 O  dxz               15      0.031671  1 O  dzz        

 Vector   15  Occ=0.000000D+00  E= 1.683721D+00
              MO Center= -3.3D+00,  3.5D+00,  6.7D+00, r^2= 6.2D-01
   Bfn.  Coefficient  Atom+Function         Bfn.  Coefficient  Atom+Function  
  ----- ------------  ---------------      ----- ------------  ---------------
    12      1.175077  1 O  dxz               14     -0.729698  1 O  dyz        
    15      0.518861  1 O  dzz               11     -0.505355  1 O  dxy        
    13     -0.355672  1 O  dyy                6     -0.248754  1 O  s          
     9      0.112172  1 O  pz                10     -0.094726  1 O  dxx        
     2      0.092219  1 O  s                 16      0.088728  2 H  s          

 Vector   16  Occ=0.000000D+00  E= 1.724225D+00
              MO Center= -3.3D+00,  3.5D+00,  6.6D+00, r^2= 6.1D-01
   Bfn.  Coefficient  Atom+Function         Bfn.  Coefficient  Atom+Function  
  ----- ------------  ---------------      ----- ------------  ---------------
    15      0.820058  1 O  dzz               11      0.707627  1 O  dxy        
    10     -0.619011  1 O  dxx               12     -0.503676  1 O  dxz        
    14      0.221759  1 O  dyz               13     -0.201047  1 O  dyy        

 Vector   17  Occ=0.000000D+00  E= 2.180857D+00
              MO Center= -3.4D+00,  3.6D+00,  6.5D+00, r^2= 8.2D-01
   Bfn.  Coefficient  Atom+Function         Bfn.  Coefficient  Atom+Function  
  ----- ------------  ---------------      ----- ------------  ---------------
     6      1.348250  1 O  s                 11      1.292041  1 O  dxy        
    12      0.888765  1 O  dxz               16     -0.748071  2 H  s          
    18     -0.749789  3 H  s                  9     -0.509321  1 O  pz         
     2     -0.490013  1 O  s                 13      0.465530  1 O  dyy        
    14     -0.404988  1 O  dyz               15     -0.393389  1 O  dzz        

 Vector   18  Occ=0.000000D+00  E= 2.450896D+00
              MO Center= -3.3D+00,  3.6D+00,  6.6D+00, r^2= 8.7D-01
   Bfn.  Coefficient  Atom+Function         Bfn.  Coefficient  Atom+Function  
  ----- ------------  ---------------      ----- ------------  ---------------
    14      1.485789  1 O  dyz               16      0.885679  2 H  s          
    18     -0.882641  3 H  s                 12      0.871615  1 O  dxz        
     8     -0.753629  1 O  py                11      0.605017  1 O  dxy        
    13     -0.570803  1 O  dyy               10      0.516062  1 O  dxx        
     7     -0.419218  1 O  px                 4      0.069560  1 O  py         

 Vector   19  Occ=0.000000D+00  E= 3.464663D+00
              MO Center= -3.3D+00,  3.5D+00,  6.6D+00, r^2= 1.0D+00
   Bfn.  Coefficient  Atom+Function         Bfn.  Coefficient  Atom+Function  
  ----- ------------  ---------------      ----- ------------  ---------------
     6      3.655934  1 O  s                 10     -1.554788  1 O  dxx        
    15     -1.558023  1 O  dzz               13     -1.524726  1 O  dyy        
    17     -0.545152  2 H  s                 19     -0.544578  3 H  s          
     1     -0.469885  1 O  s                  2      0.291901  1 O  s          
     9     -0.253211  1 O  pz                 7     -0.155479  1 O  px         


 center of mass
 --------------
 x =  -6.31012679 y =   6.71572511 z =  12.41478888

 moments of inertia (a.u.)
 ------------------
           5.264483121088          -1.714747808904          -0.934495717631
          -1.714747808904           3.070673426407           0.396088219096
          -0.934495717631           0.396088219096           5.525224641738

     Multipole analysis of the density
     ---------------------------------

     L   x y z        total         alpha         beta         nuclear
     -   - - -        -----         -----         ----         -------
     0   0 0 0     -0.000000     -5.000000     -5.000000     10.000000

     1   1 0 0     -0.403350     31.588241     31.588241    -63.579831
     1   0 1 0      0.248527    -33.601676    -33.601676     67.451879
     1   0 0 1     -0.656715    -62.012793    -62.012793    123.368871

     2   2 0 0      0.482085   -202.679089   -202.679089    405.840264
     2   1 1 0     -3.369765    211.877348    211.877348   -427.124461
     2   1 0 1     -0.422112    391.556247    391.556247   -783.534606
     2   0 2 0     -0.113599   -229.449522   -229.449522    458.785445
     2   0 1 1     -1.503834   -416.654579   -416.654579    831.805325
     2   0 0 2    -21.094051   -772.169080   -772.169080   1523.244110


            General Information
            -------------------
          SCF calculation type: DFT
          Wavefunction type:  closed shell.
          No. of atoms     :     3
          No. of electrons :    10
           Alpha electrons :     5
            Beta electrons :     5
          Charge           :     0
          Spin multiplicity:     1
          Use of symmetry is: off; symmetry adaption is: off
          Maximum number of iterations:  30
          AO basis - number of functions:    19
                     number of shells:    10
          Convergence on energy requested:  1.00D-06
          Convergence on density requested:  1.00D-05
          Convergence on gradient requested:  5.00D-04

              XC Information
              --------------
                        Slater Exchange Functional  1.000 local    
                      VWN V Correlation Functional  1.000 local    

             Grid Information
             ----------------
          Grid used for XC integration:  medium    
          Radial quadrature: Mura-Knowles        
          Angular quadrature: Lebedev. 
          Tag              B.-S. Rad. Rad. Pts. Rad. Cut. Ang. Pts.
          ---              ---------- --------- --------- ---------
          O                   0.60       49           5.0       434
          H                   0.35       45           6.0       434
          Grid pruning is: on 
          Number of quadrature shells:   139
          Spatial weights used:  Erf1

          Convergence Information
          -----------------------
          Convergence aids based upon iterative change in 
          total energy or number of iterations. 
          Levelshifting, if invoked, occurs when the 
          HOMO/LUMO gap drops below (HL_TOL):  1.00D-02
          DIIS, if invoked, will attempt to extrapolate 
          using up to (NFOCK): 10 stored Fock matrices.

                    Damping( 0%)  Levelshifting(0.5)       DIIS
                  --------------- ------------------- ---------------
          dE  on:    start            ASAP                start   
          dE off:    2 iters         30 iters            30 iters 


      Screening Tolerance Information
      -------------------------------
          Density screening/tol_rho:  1.00D-10
          AO Gaussian exp screening on grid/accAOfunc:  14
          CD Gaussian exp screening on grid/accCDfunc:  20
          XC Gaussian exp screening on grid/accXCfunc:  20
          Schwarz screening/accCoul:  1.00D-08



                            NWChem DFT Gradient Module
                            --------------------------



  charge          =   0.00
  wavefunction    = closed shell



                         DFT ENERGY GRADIENTS

    atom               coordinates                        gradient
                 x          y          z           x          y          z
   1 O      -6.249324   6.678292  12.513765    0.005427  -0.002960   0.008587
   2 H      -6.041454   8.360148  11.678507    0.009367   0.023011  -0.003414
   3 H      -7.543786   5.665399  11.580241   -0.014794  -0.020051  -0.005173

                 ----------------------------------------
                 |  Time  |  1-e(secs)   |  2-e(secs)   |
                 ----------------------------------------
                 |  CPU   |       0.00   |       0.01   |
                 ----------------------------------------
                 |  WALL  |       0.00   |       0.01   |
                 ----------------------------------------

 Task  times  cpu:        0.2s     wall:        0.2s


                                NWChem Input Module
                                -------------------



 Scaling coordinates for geometry "geometry" by  1.889725989
 (inverse scale =  0.529177249)



                         Geometry "geometry" -> "        "
                         ---------------------------------

 Output coordinates in angstroms (scale by  1.889725989 to convert to a.u.)

  No.       Tag          Charge          X              Y              Z
 ---- ---------------- ---------- -------------- -------------- --------------
    1 O                    8.0000    -3.30700000     3.53400000     6.62200000
    2 H                    1.0000    -3.19700000     4.42400000     6.18000000
    3 H                    1.0000    -3.99200000     2.99800000     6.12800000

      Atomic Mass 
      ----------- 

      O                 15.994910
      H                  1.007825


 Effective nuclear repulsion energy (a.u.)       8.7905407885

            Nuclear Dipole moment (a.u.) 
            ----------------------------
        X                 Y               Z
 ---------------- ---------------- ----------------
   -63.5798308858    67.4518794364   123.3688714385


            XYZ format geometry
            -------------------
     3
 geometry
 O                    -3.30700000     3.53400000     6.62200000
 H                    -3.19700000     4.42400000     6.18000000
 H                    -3.99200000     2.99800000     6.12800000

 ==============================================================================
                                internuclear distances
 ------------------------------------------------------------------------------
       center one      |      center two      | atomic units |  angstroms
 ------------------------------------------------------------------------------
    2 H                |   1 O                |     1.88931  |     0.99978
    3 H                |   1 O                |     1.89025  |     1.00028
 ------------------------------------------------------------------------------
                         number of included internuclear distances:          2
 ==============================================================================



 ==============================================================================
                                 internuclear angles
 ------------------------------------------------------------------------------
        center 1       |       center 2       |       center 3       |  degrees
 ------------------------------------------------------------------------------
    2 H                |   1 O                |   3 H                |   109.51
 ------------------------------------------------------------------------------
                            number of included internuclear angles:          1
 ==============================================================================




                                 NWChem DFT Module
                                 -----------------




 Summary of "ao basis" -> "ao basis" (cartesian)
 ------------------------------------------------------------------------------
       Tag                 Description            Shells   Functions and Types
 ---------------- ------------------------------  ------  ---------------------
 O                           6-31g*                  6       15   3s2p1d
 H                           6-31g*                  2        2   2s


  Caching 1-el integrals 

            General Information
            -------------------
          SCF calculation type: DFT
          Wavefunction type:  closed shell.
          No. of atoms     :     3
          No. of electrons :    10
           Alpha electrons :     5
            Beta electrons :     5
          Charge           :     0
          Spin multiplicity:     1
          Use of symmetry is: off; symmetry adaption is: off
          Maximum number of iterations:  30
          AO basis - number of functions:    19
                     number of shells:    10
          Convergence on energy requested:  1.00D-06
          Convergence on density requested:  1.00D-05
          Convergence on gradient requested:  5.00D-04

              XC Information
              --------------
                        Slater Exchange Functional  1.000 local    
                      VWN V Correlation Functional  1.000 local    

             Grid Information
             ----------------
          Grid used for XC integration:  medium    
          Radial quadrature: Mura-Knowles        
          Angular quadrature: Lebedev. 
          Tag              B.-S. Rad. Rad. Pts. Rad. Cut. Ang. Pts.
          ---              ---------- --------- --------- ---------
          O                   0.60       49           5.0       434
          H                   0.35       45           6.0       434
          Grid pruning is: on 
          Number of quadrature shells:   139
          Spatial weights used:  Erf1

          Convergence Information
          -----------------------
          Convergence aids based upon iterative change in 
          total energy or number of iterations. 
          Levelshifting, if invoked, occurs when the 
          HOMO/LUMO gap drops below (HL_TOL):  1.00D-02
          DIIS, if invoked, will attempt to extrapolate 
          using up to (NFOCK): 10 stored Fock matrices.

                    Damping( 0%)  Levelshifting(0.5)       DIIS
                  --------------- ------------------- ---------------
          dE  on:    start            ASAP                start   
          dE off:    2 iters         30 iters            30 iters 


      Screening Tolerance Information
      -------------------------------
          Density screening/tol_rho:  1.00D-10
          AO Gaussian exp screening on grid/accAOfunc:  14
          CD Gaussian exp screening on grid/accCDfunc:  20
          XC Gaussian exp screening on grid/accXCfunc:  20
          Schwarz screening/accCoul:  1.00D-08


      Superposition of Atomic Density Guess
      -------------------------------------

 Sum of atomic energies:         -75.75081731

      Non-variational initial energy
      ------------------------------

 Total energy =     -75.832658
 1-e energy   =    -121.076298
 2-e energy   =      36.453099
 HOMO         =      -0.457501
 LUMO         =       0.099590

   Time after variat. SCF:      0.2
   Time prior to 1st pass:      0.2

 Grid_pts file          = ./h2o.gridpts.0
 Record size in doubles =  12289        No. of grid_pts per rec  =   3070
 Max. records in memory =      7        Max. recs in file   = 253312716


           Memory utilization after 1st SCF pass: 
           Heap Space remaining (MW):       51.72            51719436
          Stack Space remaining (MW):       86.25            86246932

   convergence    iter        energy       DeltaE   RMS-Dens  Diis-err    time
 ---------------- ----- ----------------- --------- --------- ---------  ------
 d= 0,ls=0.0,diis     1    -75.8038275758 -8.46D+01  5.27D-02  5.66D-01     0.3
 d= 0,ls=0.0,diis     2    -75.7594839456  4.43D-02  3.41D-02  8.93D-01     0.3
 d= 0,ls=0.0,diis     3    -75.8374514767 -7.80D-02  5.74D-03  6.20D-02     0.3
 d= 0,ls=0.0,diis     4    -75.8428815594 -5.43D-03  6.98D-04  4.37D-04     0.3
 d= 0,ls=0.0,diis     5    -75.8429270149 -4.55D-05  6.96D-05  1.10D-06     0.3
 d= 0,ls=0.0,diis     6    -75.8429271648 -1.50D-07  7.34D-06  6.26D-08     0.3


         Total DFT energy =      -75.842927164767
      One electron energy =     -122.364014047509
           Coulomb energy =       46.462370810525
    Exchange-Corr. energy =       -8.731824716290
 Nuclear repulsion energy =        8.790540788508

 Numeric. integr. density =       10.000000749428

     Total iterative time =      0.1s



                       DFT Final Molecular Orbital Analysis
                       ------------------------------------

 Vector    1  Occ=2.000000D+00  E=-1.860269D+01
              MO Center= -3.3D+00,  3.5D+00,  6.6D+00, r^2= 1.5D-02
   Bfn.  Coefficient  Atom+Function         Bfn.  Coefficient  Atom+Function  
  ----- ------------  ---------------      ----- ------------  ---------------
     1      0.990685  1 O  s                  2      0.030542  1 O  s          

 Vector    2  Occ=2.000000D+00  E=-8.816179D-01
              MO Center= -3.4D+00,  3.6D+00,  6.5D+00, r^2= 5.2D-01
   Bfn.  Coefficient  Atom+Function         Bfn.  Coefficient  Atom+Function  
  ----- ------------  ---------------      ----- ------------  ---------------
     2      0.460376  1 O  s                  6      0.455717  1 O  s          
     1     -0.211272  1 O  s                 16      0.130755  2 H  s          
    18      0.130578  3 H  s                  5     -0.104691  1 O  pz         
     3     -0.064234  1 O  px                 9     -0.053412  1 O  pz         
     4      0.039745  1 O  py                 7     -0.032791  1 O  px         

 Vector    3  Occ=2.000000D+00  E=-4.609120D-01
              MO Center= -3.4D+00,  3.6D+00,  6.4D+00, r^2= 8.3D-01
   Bfn.  Coefficient  Atom+Function         Bfn.  Coefficient  Atom+Function  
  ----- ------------  ---------------      ----- ------------  ---------------
     4      0.449497  1 O  py                 3      0.250500  1 O  px         
     8      0.235187  1 O  py                16      0.231361  2 H  s          
    18     -0.231355  3 H  s                 17      0.147317  2 H  s          
    19     -0.147395  3 H  s                  7      0.131091  1 O  px         
    14     -0.044927  1 O  dyz               12     -0.026412  1 O  dxz        

 Vector    4  Occ=2.000000D+00  E=-2.988041D-01
              MO Center= -3.3D+00,  3.5D+00,  6.7D+00, r^2= 7.1D-01
   Bfn.  Coefficient  Atom+Function         Bfn.  Coefficient  Atom+Function  
  ----- ------------  ---------------      ----- ------------  ---------------
     5      0.449225  1 O  pz                 6      0.405503  1 O  s          
     9      0.312361  1 O  pz                 3      0.275882  1 O  px         
     7      0.191839  1 O  px                 2      0.170067  1 O  s          
     4     -0.170060  1 O  py                16     -0.133897  2 H  s          
    18     -0.133942  3 H  s                 17     -0.122926  2 H  s          

 Vector    5  Occ=2.000000D+00  E=-2.257207D-01
              MO Center= -3.3D+00,  3.5D+00,  6.6D+00, r^2= 6.0D-01
   Bfn.  Coefficient  Atom+Function         Bfn.  Coefficient  Atom+Function  
  ----- ------------  ---------------      ----- ------------  ---------------
     3      0.459249  1 O  px                 5     -0.373802  1 O  pz         
     7      0.366935  1 O  px                 9     -0.298663  1 O  pz         
     4     -0.242402  1 O  py                 8     -0.193676  1 O  py         
    15      0.027881  1 O  dzz        

 Vector    6  Occ=0.000000D+00  E= 2.964554D-02
              MO Center= -3.6D+00,  3.7D+00,  6.1D+00, r^2= 2.4D+00
   Bfn.  Coefficient  Atom+Function         Bfn.  Coefficient  Atom+Function  
  ----- ------------  ---------------      ----- ------------  ---------------
     6      1.148839  1 O  s                 17     -0.917149  2 H  s          
    19     -0.919077  3 H  s                  9     -0.356095  1 O  pz         
     5     -0.243505  1 O  pz                 7     -0.219038  1 O  px         
     2      0.152375  1 O  s                  3     -0.149819  1 O  px         
     8      0.134140  1 O  py                16     -0.125058  2 H  s          

 Vector    7  Occ=0.000000D+00  E= 1.116007D-01
              MO Center= -3.6D+00,  3.7D+00,  6.1D+00, r^2= 2.4D+00
   Bfn.  Coefficient  Atom+Function         Bfn.  Coefficient  Atom+Function  
  ----- ------------  ---------------      ----- ------------  ---------------
    17      1.173332  2 H  s                 19     -1.170577  3 H  s          
     8     -0.633778  1 O  py                 4     -0.390671  1 O  py         
     7     -0.352902  1 O  px                 3     -0.217578  1 O  px         
    16      0.126911  2 H  s                 18     -0.126850  3 H  s          

 Vector    8  Occ=0.000000D+00  E= 7.450569D-01
              MO Center= -3.5D+00,  3.6D+00,  6.4D+00, r^2= 1.7D+00
   Bfn.  Coefficient  Atom+Function         Bfn.  Coefficient  Atom+Function  
  ----- ------------  ---------------      ----- ------------  ---------------
    18     -0.841685  3 H  s                 16      0.829249  2 H  s          
    19      0.754503  3 H  s                 17     -0.743709  2 H  s          
    14     -0.255104  1 O  dyz                8     -0.226320  1 O  py         
     4     -0.203904  1 O  py                12     -0.150824  1 O  dxz        
     7     -0.124759  1 O  px                 3     -0.116417  1 O  px         

 Vector    9  Occ=0.000000D+00  E= 7.661777D-01
              MO Center= -3.5D+00,  3.7D+00,  6.3D+00, r^2= 1.4D+00
   Bfn.  Coefficient  Atom+Function         Bfn.  Coefficient  Atom+Function  
  ----- ------------  ---------------      ----- ------------  ---------------
    16      0.783066  2 H  s                 18      0.769603  3 H  s          
    17     -0.631673  2 H  s                 19     -0.620912  3 H  s          
     5      0.446251  1 O  pz                 3      0.273234  1 O  px         
     6      0.251693  1 O  s                 11      0.214682  1 O  dxy        
     9     -0.200805  1 O  pz                 2     -0.173891  1 O  s          

 Vector   10  Occ=0.000000D+00  E= 8.303469D-01
              MO Center= -3.3D+00,  3.5D+00,  6.6D+00, r^2= 1.1D+00
   Bfn.  Coefficient  Atom+Function         Bfn.  Coefficient  Atom+Function  
  ----- ------------  ---------------      ----- ------------  ---------------
     7     -0.743682  1 O  px                 3      0.690915  1 O  px         
     9      0.605314  1 O  pz                 5     -0.562364  1 O  pz         
     8      0.392532  1 O  py                 4     -0.364680  1 O  py         

 Vector   11  Occ=0.000000D+00  E= 8.396156D-01
              MO Center= -3.2D+00,  3.4D+00,  6.9D+00, r^2= 1.3D+00
   Bfn.  Coefficient  Atom+Function         Bfn.  Coefficient  Atom+Function  
  ----- ------------  ---------------      ----- ------------  ---------------
     6      1.156904  1 O  s                  9      0.744867  1 O  pz         
     2     -0.702071  1 O  s                  5     -0.575066  1 O  pz         
     7      0.457048  1 O  px                 3     -0.353044  1 O  px         
    16      0.352933  2 H  s                 18      0.352391  3 H  s          
     8     -0.282727  1 O  py                17     -0.257139  2 H  s          

 Vector   12  Occ=0.000000D+00  E= 9.962659D-01
              MO Center= -3.3D+00,  3.5D+00,  6.7D+00, r^2= 1.5D+00
   Bfn.  Coefficient  Atom+Function         Bfn.  Coefficient  Atom+Function  
  ----- ------------  ---------------      ----- ------------  ---------------
     8      1.462219  1 O  py                17     -0.849988  2 H  s          
    19      0.849375  3 H  s                  4     -0.838566  1 O  py         
     7      0.815295  1 O  px                 3     -0.467535  1 O  px         
    14      0.073353  1 O  dyz               18      0.062896  3 H  s          
    16     -0.061981  2 H  s                  9      0.053448  1 O  pz         

 Vector   13  Occ=0.000000D+00  E= 1.110906D+00
              MO Center= -3.5D+00,  3.7D+00,  6.2D+00, r^2= 1.5D+00
   Bfn.  Coefficient  Atom+Function         Bfn.  Coefficient  Atom+Function  
  ----- ------------  ---------------      ----- ------------  ---------------
     6      3.580084  1 O  s                  2     -1.509051  1 O  s          
     9     -0.796103  1 O  pz                17     -0.785746  2 H  s          
    19     -0.783920  3 H  s                 13     -0.576362  1 O  dyy        
     7     -0.488484  1 O  px                10     -0.405547  1 O  dxx        
    15     -0.357407  1 O  dzz                5      0.313262  1 O  pz         

 Vector   14  Occ=0.000000D+00  E= 1.679738D+00
              MO Center= -3.3D+00,  3.5D+00,  6.6D+00, r^2= 6.1D-01
   Bfn.  Coefficient  Atom+Function         Bfn.  Coefficient  Atom+Function  
  ----- ------------  ---------------      ----- ------------  ---------------
    14      0.904108  1 O  dyz               11     -0.766399  1 O  dxy        
    10     -0.604646  1 O  dxx               13      0.572975  1 O  dyy        
    12      0.453236  1 O  dxz               15      0.031671  1 O  dzz        

 Vector   15  Occ=0.000000D+00  E= 1.683721D+00
              MO Center= -3.3D+00,  3.5D+00,  6.7D+00, r^2= 6.2D-01
   Bfn.  Coefficient  Atom+Function         Bfn.  Coefficient  Atom+Function  
  ----- ------------  ---------------      ----- ------------  ---------------
    12      1.175077  1 O  dxz               14     -0.729698  1 O  dyz        
    15      0.518861  1 O  dzz               11     -0.505355  1 O  dxy        
    13     -0.355672  1 O  dyy                6     -0.248754  1 O  s          
     9      0.112172  1 O  pz                10     -0.094726  1 O  dxx        
     2      0.092219  1 O  s                 16      0.088728  2 H  s          

 Vector   16  Occ=0.000000D+00  E= 1.724225D+00
              MO Center= -3.3D+00,  3.5D+00,  6.6D+00, r^2= 6.1D-01
   Bfn.  Coefficient  Atom+Function         Bfn.  Coefficient  Atom+Function  
  ----- ------------  ---------------      ----- ------------  ---------------
    15      0.820058  1 O  dzz               11      0.707627  1 O  dxy        
    10     -0.619011  1 O  dxx               12     -0.503676  1 O  dxz        
    14      0.221759  1 O  dyz               13     -0.201047  1 O  dyy        

 Vector   17  Occ=0.000000D+00  E= 2.180857D+00
              MO Center= -3.4D+00,  3.6D+00,  6.5D+00, r^2= 8.2D-01
   Bfn.  Coefficient  Atom+Function         Bfn.  Coefficient  Atom+Function  
  ----- ------------  ---------------      ----- ------------  ---------------
     6      1.348250  1 O  s                 11      1.292041  1 O  dxy        
    12      0.888765  1 O  dxz               16     -0.748071  2 H  s          
    18     -0.749789  3 H  s                  9     -0.509321  1 O  pz         
     2     -0.490013  1 O  s                 13      0.465530  1 O  dyy        
    14     -0.404988  1 O  dyz               15     -0.393389  1 O  dzz        

 Vector   18  Occ=0.000000D+00  E= 2.450896D+00
              MO Center= -3.3D+00,  3.6D+00,  6.6D+00, r^2= 8.7D-01
   Bfn.  Coefficient  Atom+Function         Bfn.  Coefficient  Atom+Function  
  ----- ------------  ---------------      ----- ------------  ---------------
    14      1.485789  1 O  dyz               16      0.885679  2 H  s          
    18     -0.882641  3 H  s                 12      0.871615  1 O  dxz        
     8     -0.753629  1 O  py                11      0.605017  1 O  dxy        
    13     -0.570803  1 O  dyy               10      0.516062  1 O  dxx        
     7     -0.419218  1 O  px                 4      0.069560  1 O  py         

 Vector   19  Occ=0.000000D+00  E= 3.464663D+00
              MO Center= -3.3D+00,  3.5D+00,  6.6D+00, r^2= 1.0D+00
   Bfn.  Coefficient  Atom+Function         Bfn.  Coefficient  Atom+Function  
  ----- ------------  ---------------      ----- ------------  ---------------
     6      3.655934  1 O  s                 10     -1.554788  1 O  dxx        
    15     -1.558023  1 O  dzz               13     -1.524726  1 O  dyy        
    17     -0.545152  2 H  s                 19     -0.544578  3 H  s          
     1     -0.469885  1 O  s                  2      0.291901  1 O  s          
     9     -0.253211  1 O  pz                 7     -0.155479  1 O  px         


 center of mass
 --------------
 x =  -6.31012679 y =   6.71572511 z =  12.41478888

 moments of inertia (a.u.)
 ------------------
           5.264483121088          -1.714747808904          -0.934495717631
          -1.714747808904           3.070673426407           0.396088219096
          -0.934495717631           0.396088219096           5.525224641738

     Multipole analysis of the density
     ---------------------------------

     L   x y z        total         alpha         beta         nuclear
     -   - - -        -----         -----         ----         -------
     0   0 0 0     -0.000000     -5.000000     -5.000000     10.000000

     1   1 0 0     -0.403350     31.588241     31.588241    -63.579831
     1   0 1 0      0.248527    -33.601676    -33.601676     67.451879
     1   0 0 1     -0.656715    -62.012793    -62.012793    123.368871

     2   2 0 0      0.482085   -202.679089   -202.679089    405.840264
     2   1 1 0     -3.369765    211.877348    211.877348   -427.124461
     2   1 0 1     -0.422112    391.556247    391.556247   -783.534606
     2   0 2 0     -0.113599   -229.449522   -229.449522    458.785445
     2   0 1 1     -1.503834   -416.654579   -416.654579    831.805325
     2   0 0 2    -21.094051   -772.169080   -772.169080   1523.244110


            General Information
            -------------------
          SCF calculation type: DFT
          Wavefunction type:  closed shell.
          No. of atoms     :     3
          No. of electrons :    10
           Alpha electrons :     5
            Beta electrons :     5
          Charge           :     0
          Spin multiplicity:     1
          Use of symmetry is: off; symmetry adaption is: off
          Maximum number of iterations:  30
          AO basis - number of functions:    19
                     number of shells:    10
          Convergence on energy requested:  1.00D-06
          Convergence on density requested:  1.00D-05
          Convergence on gradient requested:  5.00D-04

              XC Information
              --------------
                        Slater Exchange Functional  1.000 local    
                      VWN V Correlation Functional  1.000 local    

             Grid Information
             ----------------
          Grid used for XC integration:  medium    
          Radial quadrature: Mura-Knowles        
          Angular quadrature: Lebedev. 
          Tag              B.-S. Rad. Rad. Pts. Rad. Cut. Ang. Pts.
          ---              ---------- --------- --------- ---------
          O                   0.60       49           5.0       434
          H                   0.35       45           6.0       434
          Grid pruning is: on 
          Number of quadrature shells:   139
          Spatial weights used:  Erf1

          Convergence Information
          -----------------------
          Convergence aids based upon iterative change in 
          total energy or number of iterations. 
          Levelshifting, if invoked, occurs when the 
          HOMO/LUMO gap drops below (HL_TOL):  1.00D-02
          DIIS, if invoked, will attempt to extrapolate 
          using up to (NFOCK): 10 stored Fock matrices.

                    Damping( 0%)  Levelshifting(0.5)       DIIS
                  --------------- ------------------- ---------------
          dE  on:    start            ASAP                start   
          dE off:    2 iters         30 iters            30 iters 


      Screening Tolerance Information
      -------------------------------
          Density screening/tol_rho:  1.00D-10
          AO Gaussian exp screening on grid/accAOfunc:  14
          CD Gaussian exp screening on grid/accCDfunc:  20
          XC Gaussian exp screening on grid/accXCfunc:  20
          Schwarz screening/accCoul:  1.00D-08



                            NWChem DFT Gradient Module
                            --------------------------



  charge          =   0.00
  wavefunction    = closed shell



                         DFT ENERGY GRADIENTS

    atom               coordinates                        gradient
                 x          y          z           x          y          z
   1 O      -6.249324   6.678292  12.513765    0.005427  -0.002960   0.008587
   2 H      -6.041454   8.360148  11.678507    0.009367   0.023011  -0.003414
   3 H      -7.543786   5.665399  11.580241   -0.014794  -0.020051  -0.005173

                 ----------------------------------------
                 |  Time  |  1-e(secs)   |  2-e(secs)   |
                 ----------------------------------------
                 |  CPU   |       0.00   |       0.01   |
                 ----------------------------------------
                 |  WALL  |       0.00   |       0.01   |
                 ----------------------------------------

 Task  times  cpu:        0.2s     wall:        0.2s


                                NWChem Input Module
                                -------------------



 Scaling coordinates for geometry "geometry" by  1.889725989
 (inverse scale =  0.529177249)



                         Geometry "geometry" -> "        "
                         ---------------------------------

 Output coordinates in angstroms (scale by  1.889725989 to convert to a.u.)

  No.       Tag          Charge          X              Y              Z
 ---- ---------------- ---------- -------------- -------------- --------------
    1 O                    8.0000    -3.30700000     3.53400000     6.62200000
    2 H                    1.0000    -3.19700000     4.42400000     6.18000000
    3 H                    1.0000    -3.99200000     2.99800000     6.12800000

      Atomic Mass 
      ----------- 

      O                 15.994910
      H                  1.007825


 Effective nuclear repulsion energy (a.u.)       8.7905407885

            Nuclear Dipole moment (a.u.) 
            ----------------------------
        X                 Y               Z
 ---------------- ---------------- ----------------
   -63.5798308858    67.4518794364   123.3688714385


            XYZ format geometry
            -------------------
     3
 geometry
 O                    -3.30700000     3.53400000     6.62200000
 H                    -3.19700000     4.42400000     6.18000000
 H                    -3.99200000     2.99800000     6.12800000

 ==============================================================================
                                internuclear distances
 ------------------------------------------------------------------------------
       center one      |      center two      | atomic units |  angstroms
 ------------------------------------------------------------------------------
    2 H                |   1 O                |     1.88931  |     0.99978
    3 H                |   1 O                |     1.89025  |     1.00028
 ------------------------------------------------------------------------------
                         number of included internuclear distances:          2
 ==============================================================================



 ==============================================================================
                                 internuclear angles
 ------------------------------------------------------------------------------
        center 1       |       center 2       |       center 3       |  degrees
 ------------------------------------------------------------------------------
    2 H                |   1 O                |   3 H                |   109.51
 ------------------------------------------------------------------------------
                            number of included internuclear angles:          1
 ==============================================================================




                                 NWChem DFT Module
                                 -----------------




 Summary of "ao basis" -> "ao basis" (cartesian)
 ------------------------------------------------------------------------------
       Tag                 Description            Shells   Functions and Types
 ---------------- ------------------------------  ------  ---------------------
 O                           6-31g*                  6       15   3s2p1d
 H                           6-31g*                  2        2   2s


  Caching 1-el integrals 

            General Information
            -------------------
          SCF calculation type: DFT
          Wavefunction type:  closed shell.
          No. of atoms     :     3
          No. of electrons :    10
           Alpha electrons :     5
            Beta electrons :     5
          Charge           :     0
          Spin multiplicity:     1
          Use of symmetry is: off; symmetry adaption is: off
          Maximum number of iterations:  30
          AO basis - number of functions:    19
                     number of shells:    10
          Convergence on energy requested:  1.00D-06
          Convergence on density requested:  1.00D-05
          Convergence on gradient requested:  5.00D-04

              XC Information
              --------------
                        Slater Exchange Functional  1.000 local    
                      VWN V Correlation Functional  1.000 local    

             Grid Information
             ----------------
          Grid used for XC integration:  medium    
          Radial quadrature: Mura-Knowles        
          Angular quadrature: Lebedev. 
          Tag              B.-S. Rad. Rad. Pts. Rad. Cut. Ang. Pts.
          ---              ---------- --------- --------- ---------
          O                   0.60       49           5.0       434
          H                   0.35       45           6.0       434
          Grid pruning is: on 
          Number of quadrature shells:   139
          Spatial weights used:  Erf1

          Convergence Information
          -----------------------
          Convergence aids based upon iterative change in 
          total energy or number of iterations. 
          Levelshifting, if invoked, occurs when the 
          HOMO/LUMO gap drops below (HL_TOL):  1.00D-02
          DIIS, if invoked, will attempt to extrapolate 
          using up to (NFOCK): 10 stored Fock matrices.

                    Damping( 0%)  Levelshifting(0.5)       DIIS
                  --------------- ------------------- ---------------
          dE  on:    start            ASAP                start   
          dE off:    2 iters         30 iters            30 iters 


      Screening Tolerance Information
      -------------------------------
          Density screening/tol_rho:  1.00D-10
          AO Gaussian exp screening on grid/accAOfunc:  14
          CD Gaussian exp screening on grid/accCDfunc:  20
          XC Gaussian exp screening on grid/accXCfunc:  20
          Schwarz screening/accCoul:  1.00D-08


      Superposition of Atomic Density Guess
      -------------------------------------

 Sum of atomic energies:         -75.75081731

      Non-variational initial energy
      ------------------------------

 Total energy =     -75.832658
 1-e energy   =    -121.076298
 2-e energy   =      36.453099
 HOMO         =      -0.457501
 LUMO         =       0.099590

   Time after variat. SCF:      0.4
   Time prior to 1st pass:      0.4

 Grid_pts file          = ./h2o.gridpts.0
 Record size in doubles =  12289        No. of grid_pts per rec  =   3070
 Max. records in memory =      7        Max. recs in file   = 253312716


           Memory utilization after 1st SCF pass: 
           Heap Space remaining (MW):       51.72            51719436
          Stack Space remaining (MW):       86.25            86246932

   convergence    iter        energy       DeltaE   RMS-Dens  Diis-err    time
 ---------------- ----- ----------------- --------- --------- ---------  ------
 d= 0,ls=0.0,diis     1    -75.8038275757 -8.46D+01  5.27D-02  5.66D-01     0.4
 d= 0,ls=0.0,diis     2    -75.7594839456  4.43D-02  3.41D-02  8.93D-01     0.4
 d= 0,ls=0.0,diis     3    -75.8374514767 -7.80D-02  5.74D-03  6.20D-02     0.5
 d= 0,ls=0.0,diis     4    -75.8428815593 -5.43D-03  6.98D-04  4.37D-04     0.5
 d= 0,ls=0.0,diis     5    -75.8429270149 -4.55D-05  6.96D-05  1.10D-06     0.5
 d= 0,ls=0.0,diis     6    -75.8429271647 -1.50D-07  7.34D-06  6.26D-08     0.5


         Total DFT energy =      -75.842927164708
      One electron energy =     -122.364014047494
           Coulomb energy =       46.462370810562
    Exchange-Corr. energy =       -8.731824716283
 Nuclear repulsion energy =        8.790540788508

 Numeric. integr. density =       10.000000749428

     Total iterative time =      0.1s



                       DFT Final Molecular Orbital Analysis
                       ------------------------------------

 Vector    1  Occ=2.000000D+00  E=-1.860269D+01
              MO Center= -3.3D+00,  3.5D+00,  6.6D+00, r^2= 1.5D-02
   Bfn.  Coefficient  Atom+Function         Bfn.  Coefficient  Atom+Function  
  ----- ------------  ---------------      ----- ------------  ---------------
     1      0.990685  1 O  s                  2      0.030542  1 O  s          

 Vector    2  Occ=2.000000D+00  E=-8.816179D-01
              MO Center= -3.4D+00,  3.6D+00,  6.5D+00, r^2= 5.2D-01
   Bfn.  Coefficient  Atom+Function         Bfn.  Coefficient  Atom+Function  
  ----- ------------  ---------------      ----- ------------  ---------------
     2      0.460376  1 O  s                  6      0.455717  1 O  s          
     1     -0.211272  1 O  s                 16      0.130755  2 H  s          
    18      0.130578  3 H  s                  5     -0.104691  1 O  pz         
     3     -0.064234  1 O  px                 9     -0.053412  1 O  pz         
     4      0.039745  1 O  py                 7     -0.032791  1 O  px         

 Vector    3  Occ=2.000000D+00  E=-4.609120D-01
              MO Center= -3.4D+00,  3.6D+00,  6.4D+00, r^2= 8.3D-01
   Bfn.  Coefficient  Atom+Function         Bfn.  Coefficient  Atom+Function  
  ----- ------------  ---------------      ----- ------------  ---------------
     4      0.449497  1 O  py                 3      0.250500  1 O  px         
     8      0.235187  1 O  py                16      0.231361  2 H  s          
    18     -0.231355  3 H  s                 17      0.147317  2 H  s          
    19     -0.147395  3 H  s                  7      0.131091  1 O  px         
    14     -0.044927  1 O  dyz               12     -0.026412  1 O  dxz        

 Vector    4  Occ=2.000000D+00  E=-2.988041D-01
              MO Center= -3.3D+00,  3.5D+00,  6.7D+00, r^2= 7.1D-01
   Bfn.  Coefficient  Atom+Function         Bfn.  Coefficient  Atom+Function  
  ----- ------------  ---------------      ----- ------------  ---------------
     5      0.449225  1 O  pz                 6      0.405503  1 O  s          
     9      0.312361  1 O  pz                 3      0.275882  1 O  px         
     7      0.191839  1 O  px                 2      0.170067  1 O  s          
     4     -0.170060  1 O  py                16     -0.133897  2 H  s          
    18     -0.133942  3 H  s                 17     -0.122926  2 H  s          

 Vector    5  Occ=2.000000D+00  E=-2.257207D-01
              MO Center= -3.3D+00,  3.5D+00,  6.6D+00, r^2= 6.0D-01
   Bfn.  Coefficient  Atom+Function         Bfn.  Coefficient  Atom+Function  
  ----- ------------  ---------------      ----- ------------  ---------------
     3      0.459249  1 O  px                 5     -0.373802  1 O  pz         
     7      0.366935  1 O  px                 9     -0.298663  1 O  pz         
     4     -0.242402  1 O  py                 8     -0.193676  1 O  py         
    15      0.027881  1 O  dzz        

 Vector    6  Occ=0.000000D+00  E= 2.964554D-02
              MO Center= -3.6D+00,  3.7D+00,  6.1D+00, r^2= 2.4D+00
   Bfn.  Coefficient  Atom+Function         Bfn.  Coefficient  Atom+Function  
  ----- ------------  ---------------      ----- ------------  ---------------
     6      1.148839  1 O  s                 17     -0.917149  2 H  s          
    19     -0.919077  3 H  s                  9     -0.356095  1 O  pz         
     5     -0.243505  1 O  pz                 7     -0.219038  1 O  px         
     2      0.152375  1 O  s                  3     -0.149819  1 O  px         
     8      0.134140  1 O  py                16     -0.125058  2 H  s          

 Vector    7  Occ=0.000000D+00  E= 1.116007D-01
              MO Center= -3.6D+00,  3.7D+00,  6.1D+00, r^2= 2.4D+00
   Bfn.  Coefficient  Atom+Function         Bfn.  Coefficient  Atom+Function  
  ----- ------------  ---------------      ----- ------------  ---------------
    17      1.173332  2 H  s                 19     -1.170577  3 H  s          
     8     -0.633778  1 O  py                 4     -0.390671  1 O  py         
     7     -0.352902  1 O  px                 3     -0.217578  1 O  px         
    16      0.126911  2 H  s                 18     -0.126850  3 H  s          

 Vector    8  Occ=0.000000D+00  E= 7.450569D-01
              MO Center= -3.5D+00,  3.6D+00,  6.4D+00, r^2= 1.7D+00
   Bfn.  Coefficient  Atom+Function         Bfn.  Coefficient  Atom+Function  
  ----- ------------  ---------------      ----- ------------  ---------------
    18     -0.841685  3 H  s                 16      0.829249  2 H  s          
    19      0.754503  3 H  s                 17     -0.743709  2 H  s          
    14     -0.255104  1 O  dyz                8     -0.226320  1 O  py         
     4     -0.203904  1 O  py                12     -0.150824  1 O  dxz        
     7     -0.124759  1 O  px                 3     -0.116417  1 O  px         

 Vector    9  Occ=0.000000D+00  E= 7.661777D-01
              MO Center= -3.5D+00,  3.7D+00,  6.3D+00, r^2= 1.4D+00
   Bfn.  Coefficient  Atom+Function         Bfn.  Coefficient  Atom+Function  
  ----- ------------  ---------------      ----- ------------  ---------------
    16      0.783066  2 H  s                 18      0.769603  3 H  s          
    17     -0.631673  2 H  s                 19     -0.620912  3 H  s          
     5      0.446251  1 O  pz                 3      0.273234  1 O  px         
     6      0.251693  1 O  s                 11      0.214682  1 O  dxy        
     9     -0.200805  1 O  pz                 2     -0.173891  1 O  s          

 Vector   10  Occ=0.000000D+00  E= 8.303469D-01
              MO Center= -3.3D+00,  3.5D+00,  6.6D+00, r^2= 1.1D+00
   Bfn.  Coefficient  Atom+Function         Bfn.  Coefficient  Atom+Function  
  ----- ------------  ---------------      ----- ------------  ---------------
     7     -0.743682  1 O  px                 3      0.690915  1 O  px         
     9      0.605314  1 O  pz                 5     -0.562364  1 O  pz         
     8      0.392532  1 O  py                 4     -0.364680  1 O  py         

 Vector   11  Occ=0.000000D+00  E= 8.396156D-01
              MO Center= -3.2D+00,  3.4D+00,  6.9D+00, r^2= 1.3D+00
   Bfn.  Coefficient  Atom+Function         Bfn.  Coefficient  Atom+Function  
  ----- ------------  ---------------      ----- ------------  ---------------
     6      1.156904  1 O  s                  9      0.744867  1 O  pz         
     2     -0.702071  1 O  s                  5     -0.575066  1 O  pz         
     7      0.457048  1 O  px                 3     -0.353044  1 O  px         
    16      0.352933  2 H  s                 18      0.352391  3 H  s          
     8     -0.282727  1 O  py                17     -0.257139  2 H  s          

 Vector   12  Occ=0.000000D+00  E= 9.962659D-01
              MO Center= -3.3D+00,  3.5D+00,  6.7D+00, r^2= 1.5D+00
   Bfn.  Coefficient  Atom+Function         Bfn.  Coefficient  Atom+Function  
  ----- ------------  ---------------      ----- ------------  ---------------
     8      1.462219  1 O  py                17     -0.849988  2 H  s          
    19      0.849375  3 H  s                  4     -0.838566  1 O  py         
     7      0.815295  1 O  px                 3     -0.467535  1 O  px         
    14      0.073353  1 O  dyz               18      0.062896  3 H  s          
    16     -0.061981  2 H  s                  9      0.053448  1 O  pz         

 Vector   13  Occ=0.000000D+00  E= 1.110906D+00
              MO Center= -3.5D+00,  3.7D+00,  6.2D+00, r^2= 1.5D+00
   Bfn.  Coefficient  Atom+Function         Bfn.  Coefficient  Atom+Function  
  ----- ------------  ---------------      ----- ------------  ---------------
     6      3.580084  1 O  s                  2     -1.509051  1 O  s          
     9     -0.796103  1 O  pz                17     -0.785746  2 H  s          
    19     -0.783920  3 H  s                 13     -0.576362  1 O  dyy        
     7     -0.488484  1 O  px                10     -0.405547  1 O  dxx        
    15     -0.357407  1 O  dzz                5      0.313262  1 O  pz         

 Vector   14  Occ=0.000000D+00  E= 1.679738D+00
              MO Center= -3.3D+00,  3.5D+00,  6.6D+00, r^2= 6.1D-01
   Bfn.  Coefficient  Atom+Function         Bfn.  Coefficient  Atom+Function  
  ----- ------------  ---------------      ----- ------------  ---------------
    14      0.904108  1 O  dyz               11     -0.766399  1 O  dxy        
    10     -0.604646  1 O  dxx               13      0.572975  1 O  dyy        
    12      0.453236  1 O  dxz               15      0.031671  1 O  dzz        

 Vector   15  Occ=0.000000D+00  E= 1.683721D+00
              MO Center= -3.3D+00,  3.5D+00,  6.7D+00, r^2= 6.2D-01
   Bfn.  Coefficient  Atom+Function         Bfn.  Coefficient  Atom+Function  
  ----- ------------  ---------------      ----- ------------  ---------------
    12      1.175077  1 O  dxz               14     -0.729698  1 O  dyz        
    15      0.518861  1 O  dzz               11     -0.505355  1 O  dxy        
    13     -0.355672  1 O  dyy                6     -0.248754  1 O  s          
     9      0.112172  1 O  pz                10     -0.094726  1 O  dxx        
     2      0.092219  1 O  s                 16      0.088728  2 H  s          

 Vector   16  Occ=0.000000D+00  E= 1.724225D+00
              MO Center= -3.3D+00,  3.5D+00,  6.6D+00, r^2= 6.1D-01
   Bfn.  Coefficient  Atom+Function         Bfn.  Coefficient  Atom+Function  
  ----- ------------  ---------------      ----- ------------  ---------------
    15      0.820058  1 O  dzz               11      0.707627  1 O  dxy        
    10     -0.619011  1 O  dxx               12     -0.503676  1 O  dxz        
    14      0.221759  1 O  dyz               13     -0.201047  1 O  dyy        

 Vector   17  Occ=0.000000D+00  E= 2.180857D+00
              MO Center= -3.4D+00,  3.6D+00,  6.5D+00, r^2= 8.2D-01
   Bfn.  Coefficient  Atom+Function         Bfn.  Coefficient  Atom+Function  
  ----- ------------  ---------------      ----- ------------  ---------------
     6      1.348250  1 O  s                 11      1.292041  1 O  dxy        
    12      0.888765  1 O  dxz               16     -0.748071  2 H  s          
    18     -0.749789  3 H  s                  9     -0.509321  1 O  pz         
     2     -0.490013  1 O  s                 13      0.465530  1 O  dyy        
    14     -0.404988  1 O  dyz               15     -0.393389  1 O  dzz        

 Vector   18  Occ=0.000000D+00  E= 2.450896D+00
              MO Center= -3.3D+00,  3.6D+00,  6.6D+00, r^2= 8.7D-01
   Bfn.  Coefficient  Atom+Function         Bfn.  Coefficient  Atom+Function  
  ----- ------------  ---------------      ----- ------------  ---------------
    14      1.485789  1 O  dyz               16      0.885679  2 H  s          
    18     -0.882641  3 H  s                 12      0.871615  1 O  dxz        
     8     -0.753629  1 O  py                11      0.605017  1 O  dxy        
    13     -0.570803  1 O  dyy               10      0.516062  1 O  dxx        
     7     -0.419218  1 O  px                 4      0.069560  1 O  py         

 Vector   19  Occ=0.000000D+00  E= 3.464663D+00
              MO Center= -3.3D+00,  3.5D+00,  6.6D+00, r^2= 1.0D+00
   Bfn.  Coefficient  Atom+Function         Bfn.  Coefficient  Atom+Function  
  ----- ------------  ---------------      ----- ------------  ---------------
     6      3.655934  1 O  s                 10     -1.554788  1 O  dxx        
    15     -1.558023  1 O  dzz               13     -1.524726  1 O  dyy        
    17     -0.545152  2 H  s                 19     -0.544578  3 H  s          
     1     -0.469885  1 O  s                  2      0.291901  1 O  s          
     9     -0.253211  1 O  pz                 7     -0.155479  1 O  px         


 center of mass
 --------------
 x =  -6.31012679 y =   6.71572511 z =  12.41478888

 moments of inertia (a.u.)
 ------------------
           5.264483121088          -1.714747808904          -0.934495717631
          -1.714747808904           3.070673426407           0.396088219096
          -0.934495717631           0.396088219096           5.525224641738

     Multipole analysis of the density
     ---------------------------------

     L   x y z        total         alpha         beta         nuclear
     -   - - -        -----         -----         ----         -------
     0   0 0 0     -0.000000     -5.000000     -5.000000     10.000000

     1   1 0 0     -0.403350     31.588241     31.588241    -63.579831
     1   0 1 0      0.248527    -33.601676    -33.601676     67.451879
     1   0 0 1     -0.656715    -62.012793    -62.012793    123.368871

     2   2 0 0      0.482085   -202.679089   -202.679089    405.840264
     2   1 1 0     -3.369765    211.877348    211.877348   -427.124461
     2   1 0 1     -0.422112    391.556247    391.556247   -783.534606
     2   0 2 0     -0.113599   -229.449522   -229.449522    458.785445
     2   0 1 1     -1.503834   -416.654579   -416.654579    831.805325
     2   0 0 2    -21.094051   -772.169080   -772.169080   1523.244110


            General Information
            -------------------
          SCF calculation type: DFT
          Wavefunction type:  closed shell.
          No. of atoms     :     3
          No. of electrons :    10
           Alpha electrons :     5
            Beta electrons :     5
          Charge           :     0
          Spin multiplicity:     1
          Use of symmetry is: off; symmetry adaption is: off
          Maximum number of iterations:  30
          AO basis - number of functions:    19
                     number of shells:    10
          Convergence on energy requested:  1.00D-06
          Convergence on density requested:  1.00D-05
          Convergence on gradient requested:  5.00D-04

              XC Information
              --------------
                        Slater Exchange Functional  1.000 local    
                      VWN V Correlation Functional  1.000 local    

             Grid Information
             ----------------
          Grid used for XC integration:  medium    
          Radial quadrature: Mura-Knowles        
          Angular quadrature: Lebedev. 
          Tag              B.-S. Rad. Rad. Pts. Rad. Cut. Ang. Pts.
          ---              ---------- --------- --------- ---------
          O                   0.60       49           5.0       434
          H                   0.35       45           6.0       434
          Grid pruning is: on 
          Number of quadrature shells:   139
          Spatial weights used:  Erf1

          Convergence Information
          -----------------------
          Convergence aids based upon iterative change in 
          total energy or number of iterations. 
          Levelshifting, if invoked, occurs when the 
          HOMO/LUMO gap drops below (HL_TOL):  1.00D-02
          DIIS, if invoked, will attempt to extrapolate 
          using up to (NFOCK): 10 stored Fock matrices.

                    Damping( 0%)  Levelshifting(0.5)       DIIS
                  --------------- ------------------- ---------------
          dE  on:    start            ASAP                start   
          dE off:    2 iters         30 iters            30 iters 


      Screening Tolerance Information
      -------------------------------
          Density screening/tol_rho:  1.00D-10
          AO Gaussian exp screening on grid/accAOfunc:  14
          CD Gaussian exp screening on grid/accCDfunc:  20
          XC Gaussian exp screening on grid/accXCfunc:  20
          Schwarz screening/accCoul:  1.00D-08



                            NWChem DFT Gradient Module
                            --------------------------



  charge          =   0.00
  wavefunction    = closed shell



                         DFT ENERGY GRADIENTS

    atom               coordinates                        gradient
                 x          y          z           x          y          z
   1 O      -6.249324   6.678292  12.513765    0.005427  -0.002960   0.008587
   2 H      -6.041454   8.360148  11.678507    0.009367   0.023011  -0.003414
   3 H      -7.543786   5.665399  11.580241   -0.014794  -0.020051  -0.005173

[...]
     1      0.990685  1 O  s                  2      0.030542  1 O  s          

 Vector    2  Occ=2.000000D+00  E=-8.815388D-01
              MO Center=  5.3D-01, -6.6D+00,  9.9D+00, r^2= 5.2D-01
   Bfn.  Coefficient  Atom+Function         Bfn.  Coefficient  Atom+Function  
  ----- ------------  ---------------      ----- ------------  ---------------
     2      0.460381  1 O  s                  6      0.455813  1 O  s          
     1     -0.211278  1 O  s                 16      0.130742  2 H  s          
    18      0.130493  3 H  s                  5     -0.100608  1 O  pz         
     3     -0.079947  1 O  px                 9     -0.051352  1 O  pz         
     7     -0.040801  1 O  px                12      0.025745  1 O  dxz        

 Vector    3  Occ=2.000000D+00  E=-4.607897D-01
              MO Center=  5.2D-01, -6.6D+00,  9.9D+00, r^2= 8.3D-01
   Bfn.  Coefficient  Atom+Function         Bfn.  Coefficient  Atom+Function  
  ----- ------------  ---------------      ----- ------------  ---------------
     4      0.511442  1 O  py                 8      0.267684  1 O  py         
    16     -0.231328  2 H  s                 18      0.231319  3 H  s          
    17     -0.147382  2 H  s                 19      0.147491  3 H  s          
     3      0.055904  1 O  px                14     -0.049605  1 O  dyz        
    11     -0.038919  1 O  dxy                7      0.029227  1 O  px         

 Vector    4  Occ=2.000000D+00  E=-2.988435D-01
              MO Center=  7.0D-01, -6.6D+00,  1.0D+01, r^2= 7.1D-01
   Bfn.  Coefficient  Atom+Function         Bfn.  Coefficient  Atom+Function  
  ----- ------------  ---------------      ----- ------------  ---------------
     5      0.431670  1 O  pz                 6      0.405548  1 O  s          
     3      0.342958  1 O  px                 9      0.300124  1 O  pz         
     7      0.238444  1 O  px                 2      0.170095  1 O  s          
    16     -0.133936  2 H  s                 18     -0.134000  3 H  s          
    17     -0.122995  2 H  s                 19     -0.123143  3 H  s          

 Vector    5  Occ=2.000000D+00  E=-2.257080D-01
              MO Center=  6.4D-01, -6.6D+00,  1.0D+01, r^2= 6.0D-01
   Bfn.  Coefficient  Atom+Function         Bfn.  Coefficient  Atom+Function  
  ----- ------------  ---------------      ----- ------------  ---------------
     3      0.497605  1 O  px                 5     -0.400249  1 O  pz         
     7      0.397569  1 O  px                 9     -0.319784  1 O  pz         
     4     -0.039964  1 O  py                 8     -0.031930  1 O  py         
    15      0.028686  1 O  dzz               10     -0.028338  1 O  dxx        

 Vector    6  Occ=0.000000D+00  E= 2.955616D-02
              MO Center=  2.4D-01, -6.5D+00,  9.5D+00, r^2= 2.4D+00
   Bfn.  Coefficient  Atom+Function         Bfn.  Coefficient  Atom+Function  
  ----- ------------  ---------------      ----- ------------  ---------------
     6      1.148226  1 O  s                 17     -0.916472  2 H  s          
    19     -0.919186  3 H  s                  9     -0.342243  1 O  pz         
     7     -0.271825  1 O  px                 5     -0.234101  1 O  pz         
     3     -0.185925  1 O  px                 2      0.152361  1 O  s          
    16     -0.125024  2 H  s                 18     -0.125622  3 H  s          

 Vector    7  Occ=0.000000D+00  E= 1.114842D-01
              MO Center=  2.6D-01, -6.5D+00,  9.6D+00, r^2= 2.4D+00
   Bfn.  Coefficient  Atom+Function         Bfn.  Coefficient  Atom+Function  
  ----- ------------  ---------------      ----- ------------  ---------------
    17      1.173375  2 H  s                 19     -1.169497  3 H  s          
     8      0.720740  1 O  py                 4      0.444509  1 O  py         
    16      0.127042  2 H  s                 18     -0.126955  3 H  s          
     7      0.079174  1 O  px                 3      0.048772  1 O  px         
     9      0.026467  1 O  pz         

 Vector    8  Occ=0.000000D+00  E= 7.448532D-01
              MO Center=  4.5D-01, -6.5D+00,  9.8D+00, r^2= 1.7D+00
   Bfn.  Coefficient  Atom+Function         Bfn.  Coefficient  Atom+Function  
  ----- ------------  ---------------      ----- ------------  ---------------
    18     -0.844090  3 H  s                 16      0.826660  2 H  s          
    19      0.757365  3 H  s                 17     -0.742223  2 H  s          
    14      0.281780  1 O  dyz                8      0.255616  1 O  py         
     4      0.234012  1 O  py                11      0.220558  1 O  dxy        
    12      0.037874  1 O  dxz               13     -0.036400  1 O  dyy        

 Vector    9  Occ=0.000000D+00  E= 7.660376D-01
              MO Center=  3.8D-01, -6.6D+00,  9.7D+00, r^2= 1.4D+00
   Bfn.  Coefficient  Atom+Function         Bfn.  Coefficient  Atom+Function  
  ----- ------------  ---------------      ----- ------------  ---------------
    16      0.785643  2 H  s                 18      0.766772  3 H  s          
    17     -0.634202  2 H  s                 19     -0.619105  3 H  s          
     5      0.429052  1 O  pz                 3      0.341076  1 O  px         
     6      0.252733  1 O  s                  9     -0.193067  1 O  pz         
     2     -0.174081  1 O  s                 13      0.158009  1 O  dyy        

 Vector   10  Occ=0.000000D+00  E= 8.303446D-01
              MO Center=  6.5D-01, -6.6D+00,  1.0D+01, r^2= 1.1D+00
   Bfn.  Coefficient  Atom+Function         Bfn.  Coefficient  Atom+Function  
  ----- ------------  ---------------      ----- ------------  ---------------
     7     -0.805787  1 O  px                 3      0.748605  1 O  px         
     9      0.648134  1 O  pz                 5     -0.602140  1 O  pz         
     8      0.064715  1 O  py                 4     -0.060123  1 O  py         

 Vector   11  Occ=0.000000D+00  E= 8.396320D-01
              MO Center=  8.3D-01, -6.6D+00,  1.0D+01, r^2= 1.3D+00
   Bfn.  Coefficient  Atom+Function         Bfn.  Coefficient  Atom+Function  
  ----- ------------  ---------------      ----- ------------  ---------------
     6      1.158626  1 O  s                  9      0.715514  1 O  pz         
     2     -0.702772  1 O  s                  7      0.568565  1 O  px         
     5     -0.552504  1 O  pz                 3     -0.438989  1 O  px         
    16      0.352958  2 H  s                 18      0.352196  3 H  s          
    10     -0.258704  1 O  dxx               17     -0.257436  2 H  s          

 Vector   12  Occ=0.000000D+00  E= 9.961953D-01
              MO Center=  6.8D-01, -6.6D+00,  1.0D+01, r^2= 1.5D+00
   Bfn.  Coefficient  Atom+Function         Bfn.  Coefficient  Atom+Function  
  ----- ------------  ---------------      ----- ------------  ---------------
     8      1.663725  1 O  py                 4     -0.954253  1 O  py         
    17      0.849473  2 H  s                 19     -0.848608  3 H  s          
     7      0.181305  1 O  px                 3     -0.104027  1 O  px         
    14      0.081150  1 O  dyz               11      0.063576  1 O  dxy        
    18     -0.063239  3 H  s                 16      0.061953  2 H  s          

 Vector   13  Occ=0.000000D+00  E= 1.110916D+00
              MO Center=  3.5D-01, -6.5D+00,  9.7D+00, r^2= 1.5D+00
   Bfn.  Coefficient  Atom+Function         Bfn.  Coefficient  Atom+Function  
  ----- ------------  ---------------      ----- ------------  ---------------
     6      3.578672  1 O  s                  2     -1.508534  1 O  s          
    17     -0.785466  2 H  s                 19     -0.782899  3 H  s          
     9     -0.765512  1 O  pz                13     -0.647890  1 O  dyy        
     7     -0.608296  1 O  px                15     -0.353150  1 O  dzz        
    10     -0.337978  1 O  dxx                5      0.301271  1 O  pz         

 Vector   14  Occ=0.000000D+00  E= 1.679816D+00
              MO Center=  6.5D-01, -6.6D+00,  1.0D+01, r^2= 6.1D-01
   Bfn.  Coefficient  Atom+Function         Bfn.  Coefficient  Atom+Function  
  ----- ------------  ---------------      ----- ------------  ---------------
    11      1.326314  1 O  dxy               14     -1.080217  1 O  dyz        
    10      0.146718  1 O  dxx               13     -0.107466  1 O  dyy        
    12     -0.069214  1 O  dxz               15     -0.039251  1 O  dzz        

 Vector   15  Occ=0.000000D+00  E= 1.683697D+00
              MO Center=  6.9D-01, -6.6D+00,  1.0D+01, r^2= 6.2D-01
   Bfn.  Coefficient  Atom+Function         Bfn.  Coefficient  Atom+Function  
  ----- ------------  ---------------      ----- ------------  ---------------
    12      1.405706  1 O  dxz               13     -0.495923  1 O  dyy        
    15      0.445746  1 O  dzz                6     -0.248647  1 O  s          
    14     -0.222135  1 O  dyz               11     -0.187792  1 O  dxy        
    10      0.118639  1 O  dxx                9      0.107801  1 O  pz         
     2      0.092213  1 O  s                 16      0.088676  2 H  s          

 Vector   16  Occ=0.000000D+00  E= 1.724235D+00
              MO Center=  6.7D-01, -6.6D+00,  1.0D+01, r^2= 6.1D-01
   Bfn.  Coefficient  Atom+Function         Bfn.  Coefficient  Atom+Function  
  ----- ------------  ---------------      ----- ------------  ---------------
    15     -0.843805  1 O  dzz               10      0.833393  1 O  dxx        
    12      0.378713  1 O  dxz               11     -0.196571  1 O  dxy        
     7      0.026315  1 O  px         

 Vector   17  Occ=0.000000D+00  E= 2.180500D+00
              MO Center=  5.9D-01, -6.6D+00,  1.0D+01, r^2= 8.2D-01
   Bfn.  Coefficient  Atom+Function         Bfn.  Coefficient  Atom+Function  
  ----- ------------  ---------------      ----- ------------  ---------------
     6      1.347469  1 O  s                 12      1.005894  1 O  dxz        
    13      0.803339  1 O  dyy               16     -0.747279  2 H  s          
    18     -0.749696  3 H  s                 10     -0.654797  1 O  dxx        
     2     -0.490043  1 O  s                  9     -0.489317  1 O  pz         
    15     -0.444341  1 O  dzz                7     -0.388675  1 O  px         

 Vector   18  Occ=0.000000D+00  E= 2.450474D+00
              MO Center=  6.1D-01, -6.6D+00,  1.0D+01, r^2= 8.7D-01
   Bfn.  Coefficient  Atom+Function         Bfn.  Coefficient  Atom+Function  
  ----- ------------  ---------------      ----- ------------  ---------------
    14      1.639211  1 O  dyz               11      1.286700  1 O  dxy        
    16     -0.885771  2 H  s                 18      0.881497  3 H  s          
     8     -0.856127  1 O  py                12      0.228887  1 O  dxz        
    13     -0.200321  1 O  dyy               10      0.141372  1 O  dxx        
     7     -0.094602  1 O  px                 4      0.079379  1 O  py         

 Vector   19  Occ=0.000000D+00  E= 3.464493D+00
              MO Center=  6.5D-01, -6.6D+00,  1.0D+01, r^2= 1.0D+00
   Bfn.  Coefficient  Atom+Function         Bfn.  Coefficient  Atom+Function  
  ----- ------------  ---------------      ----- ------------  ---------------
     6      3.655266  1 O  s                 10     -1.565638  1 O  dxx        
    15     -1.559468  1 O  dzz               13     -1.512083  1 O  dyy        
    17     -0.545010  2 H  s                 19     -0.544202  3 H  s          
     1     -0.469857  1 O  s                  2      0.292055  1 O  s          
     9     -0.243407  1 O  pz                 7     -0.193391  1 O  px         


 center of mass
 --------------
 x =   1.16027366 y = -12.43588748 z =  18.92681198

 moments of inertia (a.u.)
 ------------------
           6.060340645440          -0.390111087883          -1.046859193365
          -0.390111087883           2.173896567309          -0.009743051316
          -1.046859193365          -0.009743051316           5.633187668308

     Multipole analysis of the density
     ---------------------------------

     L   x y z        total         alpha         beta         nuclear
     -   - - -        -----         -----         ----         -------
     0   0 0 0     -0.000000     -5.000000     -5.000000     10.000000

     1   1 0 0     -0.501519     -5.754586     -5.754586     11.007654
     1   0 1 0      0.077611     62.172051     62.172051   -124.266491
     1   0 0 1     -0.631258    -94.575161    -94.575161    188.519065

     2   2 0 0     -6.198707     -9.550869     -9.550869     12.903030
     2   1 1 0      6.536173     71.462431     71.462431   -136.388688
     2   1 0 1     -9.733331   -109.093057   -109.093057    208.452784
     2   0 2 0     -4.906407   -776.921707   -776.921707   1548.937007
     2   0 1 1      9.332672   1175.983781   1175.983781  -2342.634890
     2   0 0 2    -28.732850  -1791.919827  -1791.919827   3555.106804


            General Information
            -------------------
          SCF calculation type: DFT
          Wavefunction type:  closed shell.
          No. of atoms     :     3
          No. of electrons :    10
           Alpha electrons :     5
            Beta electrons :     5
          Charge           :     0
          Spin multiplicity:     1
          Use of symmetry is: off; symmetry adaption is: off
          Maximum number of iterations:  30
          AO basis - number of functions:    19
                     number of shells:    10
          Convergence on energy requested:  1.00D-06
          Convergence on density requested:  1.00D-05
          Convergence on gradient requested:  5.00D-04

              XC Information
              --------------
                        Slater Exchange Functional  1.000 local    
                      VWN V Correlation Functional  1.000 local    

             Grid Information
             ----------------
          Grid used for XC integration:  medium    
          Radial quadrature: Mura-Knowles        
          Angular quadrature: Lebedev. 
          Tag              B.-S. Rad. Rad. Pts. Rad. Cut. Ang. Pts.
          ---              ---------- --------- --------- ---------
          O                   0.60       49           5.0       434
          H                   0.35       45           6.0       434
          Grid pruning is: on 
          Number of quadrature shells:   139
          Spatial weights used:  Erf1

          Convergence Information
          -----------------------
          Convergence aids based upon iterative change in 
          total energy or number of iterations. 
          Levelshifting, if invoked, occurs when the 
          HOMO/LUMO gap drops below (HL_TOL):  1.00D-02
          DIIS, if invoked, will attempt to extrapolate 
          using up to (NFOCK): 10 stored Fock matrices.

                    Damping( 0%)  Levelshifting(0.5)       DIIS
                  --------------- ------------------- ---------------
          dE  on:    start            ASAP                start   
          dE off:    2 iters         30 iters            30 iters 


      Screening Tolerance Information
      -------------------------------
          Density screening/tol_rho:  1.00D-10
          AO Gaussian exp screening on grid/accAOfunc:  14
          CD Gaussian exp screening on grid/accCDfunc:  20
          XC Gaussian exp screening on grid/accXCfunc:  20
          Schwarz screening/accCoul:  1.00D-08



                            NWChem DFT Gradient Module
                            --------------------------



  charge          =   0.00
  wavefunction    = closed shell



                         DFT ENERGY GRADIENTS

    atom               coordinates                        gradient
                 x          y          z           x          y          z
   1 O       1.235881 -12.447625  19.021982    0.006664  -0.001495   0.008434
   2 H       0.393063 -13.876258  18.116803   -0.005924  -0.023953  -0.004974
   3 H       0.727545 -10.809233  18.226407   -0.000740   0.025449  -0.003460

                 ----------------------------------------
                 |  Time  |  1-e(secs)   |  2-e(secs)   |
                 ----------------------------------------
                 |  CPU   |       0.00   |       0.01   |
                 ----------------------------------------
                 |  WALL  |       0.00   |       0.01   |
                 ----------------------------------------

 Task  times  cpu:        0.2s     wall:        0.2s


                                NWChem Input Module
                                -------------------


 Summary of allocated global arrays
-----------------------------------
  No active global arrays



                         GA Statistics for process    0
                         ------------------------------

       create   destroy   get      put      acc     scatter   gather  read&inc
calls: 1160     1160     2.25e+04 2500     6872        0        0     3545     
number of processes/call 1.25e+00 1.45e+00 1.21e+00 0.00e+00 0.00e+00
bytes total:             1.01e+07 1.70e+06 3.88e+06 0.00e+00 0.00e+00 2.84e+04
bytes remote:            1.89e+06 2.84e+05 6.23e+05 0.00e+00 0.00e+00 0.00e+00
Max memory consumed for GA by this process: 66440 bytes

MA_summarize_allocated_blocks: starting scan ...
MA_summarize_allocated_blocks: scan completed: 0 heap blocks, 0 stack blocks
MA usage statistics:

	allocation statistics:
					      heap	     stack
					      ----	     -----
	current number of blocks	         0	         0
	maximum number of blocks	        24	        51
	current total bytes		         0	         0
	maximum total bytes		 276223104	  22510568
	maximum total K-bytes		    276224	     22511
	maximum total M-bytes		       277	        23


                                     CITATION
                                     --------
                Please cite the following reference when publishing
                           results obtained with NWChem:

                 M. Valiev, E.J. Bylaska, N. Govind, K. Kowalski,
              T.P. Straatsma, H.J.J. van Dam, D. Wang, J. Nieplocha,
                        E. Apra, T.L. Windus, W.A. de Jong
                 "NWChem: a comprehensive and scalable open-source
                  solution for large scale molecular simulations"
                      Comput. Phys. Commun. 181, 1477 (2010)
                           doi:10.1016/j.cpc.2010.04.018

                                      AUTHORS
                                      -------
          E. Apra, E. J. Bylaska, W. A. de Jong, N. Govind, K. Kowalski,
       T. P. Straatsma, M. Valiev, H. J. J. van Dam, D. Wang, T. L. Windus,
        J. Hammond, J. Autschbach, K. Bhaskaran-Nair, J. Brabec, K. Lopata,
    S. A. Fischer, S. Krishnamoorthy, M. Jacquelin, W. Ma, M. Klemm, O. Villa,
      Y. Chen, V. Anisimov, F. Aquino, S. Hirata, M. T. Hackler, V. Konjkov,
            D. Mejia-Rodriguez, T. Risthaus, M. Malagoli, A. Marenich,
   A. Otero-de-la-Roza, J. Mullin, P. Nichols, R. Peverati, J. Pittner, Y. Zhao,
        P.-D. Fan, A. Fonari, M. J. Williamson, R. J. Harrison, J. R. Rehr,
      M. Dupuis, D. Silverstein, D. M. A. Smith, J. Nieplocha, V. Tipparaju,
    M. Krishnan, B. E. Van Kuiken, A. Vazquez-Mayagoitia, L. Jensen, M. Swart,
      Q. Wu, T. Van Voorhis, A. A. Auer, M. Nooijen, L. D. Crosby, E. Brown,
      G. Cisneros, G. I. Fann, H. Fruchtl, J. Garza, K. Hirao, R. A. Kendall,
      J. A. Nichols, K. Tsemekhman, K. Wolinski, J. Anchell, D. E. Bernholdt,
      P. Borowski, T. Clark, D. Clerc, H. Dachsel, M. J. O. Deegan, K. Dyall,
    D. Elwood, E. Glendening, M. Gutowski, A. C. Hess, J. Jaffe, B. G. Johnson,
     J. Ju, R. Kobayashi, R. Kutteh, Z. Lin, R. Littlefield, X. Long, B. Meng,
      T. Nakajima, S. Niu, L. Pollack, M. Rosing, K. Glaesemann, G. Sandrone,
      M. Stave, H. Taylor, G. Thomas, J. H. van Lenthe, A. T. Wong, Z. Zhang.

 Total times  cpu:        1.4s     wall:        1.4s
