 argument  1 = /home/list1234/source/nwchem-6.8.1-release/QA/tests/h2_bnl/h2_bnl.nw



============================== echo of input deck ==============================
echo
start h2_bnl

geometry units angstrom
H        0.0000000000      0.0000000000      0.38707500000
H        0.0000000000      0.0000000000     -0.38707500000
end

basis spherical
 * library "cc-pVTZ"
end

basis "cd basis"
H  library "DGauss A2 DFT Coulomb Fitting"
end

set int:cando_txs f

dft
 xc xbnl07 0.90 lyp 1.00 hfexch 1.00
 cam 0.5 cam_alpha 0.0 cam_beta 1.0
end

task dft energy
================================================================================


                                         
                                         


              Northwest Computational Chemistry Package (NWChem) 6.8
              ------------------------------------------------------


                    Environmental Molecular Sciences Laboratory
                       Pacific Northwest National Laboratory
                                Richland, WA 99352

                              Copyright (c) 1994-2018
                       Pacific Northwest National Laboratory
                            Battelle Memorial Institute

             NWChem is an open-source computational chemistry package
                        distributed under the terms of the
                      Educational Community License (ECL) 2.0
             A copy of the license is included with this distribution
                              in the LICENSE.TXT file

                                  ACKNOWLEDGMENT
                                  --------------

            This software and its documentation were developed at the
            EMSL at Pacific Northwest National Laboratory, a multiprogram
            national laboratory, operated for the U.S. Department of Energy
            by Battelle under Contract Number DE-AC05-76RL01830. Support
            for this work was provided by the Department of Energy Office
            of Biological and Environmental Research, Office of Basic
            Energy Sciences, and the Office of Advanced Scientific Computing.


           Job information
           ---------------

    hostname        = list1234-B360M-H
    program         = /home/list1234/source/nwchem-6.8.1-release/bin/LINUX64/nwchem
    date            = Sun Jun 30 07:37:51 2019

    compiled        = Sun_Jun_30_05:21:11_2019
    source          = /home/list1234/source/nwchem-6.8.1-release
    nwchem branch   = Development
    nwchem revision = N/A
    ga revision     = 5.6.5
    use scalapack   = T
    input           = /home/list1234/source/nwchem-6.8.1-release/QA/tests/h2_bnl/h2_bnl.nw
    prefix          = h2_bnl.
    data base       = ./h2_bnl.db
    status          = startup
    nproc           =        4
    time left       =     -1s



           Memory information
           ------------------

    heap     =   86247168 doubles =    658.0 Mbytes
    stack    =   86247165 doubles =    658.0 Mbytes
    global   =  172494336 doubles =   1316.0 Mbytes (distinct from heap & stack)
    total    =  344988669 doubles =   2632.1 Mbytes
    verify   = yes
    hardfail = no 


           Directory information
           ---------------------

  0 permanent = .
  0 scratch   = .




                                NWChem Input Module
                                -------------------



 Scaling coordinates for geometry "geometry" by  1.889725989
 (inverse scale =  0.529177249)

 ORDER OF PRIMARY AXIS IS BEING SET TO 4
 D4H symmetry detected

          ------
          auto-z
          ------
  no constraints, skipping    0.0000000000000000     
  no constraints, skipping    0.0000000000000000     


                             Geometry "geometry" -> ""
                             -------------------------

 Output coordinates in angstroms (scale by  1.889725989 to convert to a.u.)

  No.       Tag          Charge          X              Y              Z
 ---- ---------------- ---------- -------------- -------------- --------------
    1 H                    1.0000     0.00000000     0.00000000     0.38707500
    2 H                    1.0000     0.00000000     0.00000000    -0.38707500

      Atomic Mass 
      ----------- 

      H                  1.007825


 Effective nuclear repulsion energy (a.u.)       0.6835590635

            Nuclear Dipole moment (a.u.) 
            ----------------------------
        X                 Y               Z
 ---------------- ---------------- ----------------
     0.0000000000     0.0000000000     0.0000000000

      Symmetry information
      --------------------

 Group name             D4h       
 Group number             28
 Group order              16
 No. of unique centers     1

      Symmetry unique atoms

     1



                                Z-matrix (autoz)
                                -------- 

 Units are Angstrom for bonds and degrees for angles

      Type          Name      I     J     K     L     M      Value
      ----------- --------  ----- ----- ----- ----- ----- ----------
    1 Stretch                  1     2                       0.77415


            XYZ format geometry
            -------------------
     2
 geometry
 H                     0.00000000     0.00000000     0.38707500
 H                     0.00000000     0.00000000    -0.38707500



 Summary of "ao basis" -> "" (spherical)
 ------------------------------------------------------------------------------
       Tag                 Description            Shells   Functions and Types
 ---------------- ------------------------------  ------  ---------------------
 *                          cc-pVTZ                   on all atoms 


                      Basis "cd basis" -> "" (cartesian)
                      -----
  H (Hydrogen)
  ------------
            Exponent  Coefficients 
       -------------- ---------------------------------------------------------
  1 S  4.50000000E+01  1.000000

  2 S  7.50000000E+00  1.000000

  3 S  3.00000000E-01  1.000000

  4 S  1.50000000E+00  1.000000

  5 P  1.50000000E+00  1.000000

  6 D  1.50000000E+00  1.000000



 Summary of "cd basis" -> "" (cartesian)
 ------------------------------------------------------------------------------
       Tag                 Description            Shells   Functions and Types
 ---------------- ------------------------------  ------  ---------------------
 H                DGauss A2 DFT Coulomb Fitting      6       13   4s1p1d



                                 NWChem DFT Module
                                 -----------------


                      Basis "ao basis" -> "ao basis" (spherical)
                      -----
  H (Hydrogen)
  ------------
            Exponent  Coefficients 
       -------------- ---------------------------------------------------------
  1 S  3.38700000E+01  0.006068
  1 S  5.09500000E+00  0.045308
  1 S  1.15900000E+00  0.202822

  2 S  3.25800000E-01  1.000000

  3 S  1.02700000E-01  1.000000

  4 P  1.40700000E+00  1.000000

  5 P  3.88000000E-01  1.000000

  6 D  1.05700000E+00  1.000000



 Summary of "ao basis" -> "ao basis" (spherical)
 ------------------------------------------------------------------------------
       Tag                 Description            Shells   Functions and Types
 ---------------- ------------------------------  ------  ---------------------
 H                          cc-pVTZ                  6       14   3s2p1d


  int_init: cando_txs set to always be  F


 Summary of "ao basis" -> "ao basis" (spherical)
 ------------------------------------------------------------------------------
       Tag                 Description            Shells   Functions and Types
 ---------------- ------------------------------  ------  ---------------------
 H                          cc-pVTZ                  6       14   3s2p1d


      Symmetry analysis of basis
      --------------------------

        a1g         6
        a1u         0
        a2g         0
        a2u         6
        b1g         1
        b1u         1
        b2g         1
        b2u         1
        eg          6
        eu          6

  int_init: cando_txs set to always be  F
  Caching 1-el integrals 

            General Information
            -------------------
          SCF calculation type: DFT
          Wavefunction type:  closed shell.
          No. of atoms     :     2
          No. of electrons :     2
           Alpha electrons :     1
            Beta electrons :     1
          Charge           :     0
          Spin multiplicity:     1
          Use of symmetry is: on ; symmetry adaption is: on 
          Maximum number of iterations:  30
          AO basis - number of functions:    28
                     number of shells:    12
          A Charge density fitting basis will be used.
          CD basis - number of functions:    26
                     number of shells:    12
          Convergence on energy requested:  1.00D-06
          Convergence on density requested:  1.00D-05
          Convergence on gradient requested:  5.00D-04

              XC Information
              --------------
                     Hartree-Fock (Exact) Exchange  1.000          
                   LC-BNL 2007 Exchange Functional  0.900 local    
              Lee-Yang-Parr Correlation Functional  1.000          

           Range-Separation Parameters        
           ---------------------------
           Alpha           :  0.00
           Beta            :  1.00
           Gamma           :  0.50
           Short-Range HF  :     F

             Grid Information
             ----------------
          Grid used for XC integration:  medium    
          Radial quadrature: Mura-Knowles        
          Angular quadrature: Lebedev. 
          Tag              B.-S. Rad. Rad. Pts. Rad. Cut. Ang. Pts.
          ---              ---------- --------- --------- ---------
          H                   0.35       45           6.0       434
          Grid pruning is: on 
          Number of quadrature shells:    45
          Spatial weights used:  Erf1

          Convergence Information
          -----------------------
          Convergence aids based upon iterative change in 
          total energy or number of iterations. 
          Levelshifting, if invoked, occurs when the 
          HOMO/LUMO gap drops below (HL_TOL):  1.00D-02
          DIIS, if invoked, will attempt to extrapolate 
          using up to (NFOCK): 10 stored Fock matrices.

                    Damping( 0%)  Levelshifting(0.5)       DIIS
                  --------------- ------------------- ---------------
          dE  on:    start            ASAP                start   
          dE off:    2 iters         30 iters            30 iters 


      Screening Tolerance Information
      -------------------------------
          Density screening/tol_rho:  1.00D-10
          AO Gaussian exp screening on grid/accAOfunc:  14
          CD Gaussian exp screening on grid/accCDfunc:  20
          XC Gaussian exp screening on grid/accXCfunc:  20
          Schwarz screening/accCoul:  1.00D-08


      Superposition of Atomic Density Guess
      -------------------------------------

 Sum of atomic energies:          -0.99961839

      Non-variational initial energy
      ------------------------------

 Total energy =      -0.848166
 1-e energy   =      -2.186282
 2-e energy   =       0.654556
 HOMO         =      -0.569219
 LUMO         =       0.117936


      Symmetry analysis of molecular orbitals - initial
      -------------------------------------------------


 !! scf_movecs_sym_adapt:    4 vectors were symmetry contaminated

  Symmetry fudging

 !! scf_movecs_sym_adapt:    2 vectors were symmetry contaminated

  Numbering of irreducible representations: 

     1 a1g         2 a1u         3 a2g         4 a2u         5 b1g     
     6 b1u         7 b2g         8 b2u         9 eg         10 eu      

  Orbital symmetries:

     1 a1g         2 a2u         3 a1g         4 a2u         5 eu      
     6 eu          7 a1g         8 eg          9 eg         10 a2u     
    11 a2u     

   Time after variat. SCF:      0.1

      3 Center 2 Electron Integral Information
      ----------------------------------------
          Maximum number of 3-center 2e- integrals is:           20384.
            This is reduced with Schwarz screening to:           17550.
            Incore requires a per proc buffer size of:            5097.
          Minimum dble words available (all nodes) is:       172493404
                   This is reduced (for later use) to:       172309482
                      proc 0 Suggested buffer size is:            5097
                         Max Suggested buffer size is:            5097
                              no. integral batches is:            1000

           0.005 MW buffer allocated for incore 3-center 
          2e- integral storage on stack. 
   Time prior to 1st pass:      0.1

 Grid_pts file          = ./h2_bnl.gridpts.0
 Record size in doubles =  12289        No. of grid_pts per rec  =   3070
 Max. records in memory =      3        Max. recs in file   = 253312716


           Memory utilization after 1st SCF pass: 
           Heap Space remaining (MW):       51.77            51768576
          Stack Space remaining (MW):       86.24            86240764

   convergence    iter        energy       DeltaE   RMS-Dens  Diis-err    time
 ---------------- ----- ----------------- --------- --------- ---------  ------
 d= 0,ls=0.0,diis     1     -1.1307288528 -1.81D+00  5.35D-04  9.07D-04     0.1
 d= 0,ls=0.0,diis     2     -1.1308078148 -7.90D-05  9.37D-05  1.00D-05     0.1
 d= 0,ls=0.0,diis     3     -1.1308091936 -1.38D-06  9.89D-06  5.39D-08     0.1
 d= 0,ls=0.0,diis     4     -1.1308092070 -1.35D-08  2.71D-07  9.40D-11     0.1


         Total DFT energy =       -1.130809207021
      One electron energy =       -2.443438329873
           Coulomb energy =        1.258241749352
    Exchange-Corr. energy =       -0.629171689988
 Nuclear repulsion energy =        0.683559063489

 Numeric. integr. density =        2.000000185407

     Total iterative time =      0.1s



                  Occupations of the irreducible representations
                  ----------------------------------------------

                     irrep           alpha         beta
                     --------     --------     --------
                     a1g               1.0          1.0
                     a1u               0.0          0.0
                     a2g               0.0          0.0
                     a2u               0.0          0.0
                     b1g               0.0          0.0
                     b1u               0.0          0.0
                     b2g               0.0          0.0
                     b2u               0.0          0.0
                     eg                0.0          0.0
                     eu                0.0          0.0


                       DFT Final Molecular Orbital Analysis
                       ------------------------------------

 Vector    1  Occ=2.000000D+00  E=-5.523620D-01  Symmetry=a1g
              MO Center=  2.5D-19,  1.9D-19,  1.5D-16, r^2= 8.0D-01
   Bfn.  Coefficient  Atom+Function         Bfn.  Coefficient  Atom+Function  
  ----- ------------  ---------------      ----- ------------  ---------------
     2      0.266854  1 H  s                 16      0.266854  2 H  s          
     1      0.180828  1 H  s                 15      0.180828  2 H  s          
     3      0.163651  1 H  s                 17      0.163651  2 H  s          

 Vector    2  Occ=0.000000D+00  E= 1.370046D-01  Symmetry=a2u
              MO Center=  2.8D-32,  9.7D-33,  3.8D-16, r^2= 3.3D+00
   Bfn.  Coefficient  Atom+Function         Bfn.  Coefficient  Atom+Function  
  ----- ------------  ---------------      ----- ------------  ---------------
     3      2.143834  1 H  s                 17     -2.143834  2 H  s          
     2     -0.162180  1 H  s                 16      0.162180  2 H  s          
     1      0.080046  1 H  s                 15     -0.080046  2 H  s          
     9      0.065977  1 H  pz                23      0.065977  2 H  pz         
     6      0.030064  1 H  pz                20      0.030064  2 H  pz         

 Vector    3  Occ=0.000000D+00  E= 2.865487D-01  Symmetry=a1g
              MO Center=  5.2D-16, -2.9D-16,  1.4D-15, r^2= 3.3D+00
   Bfn.  Coefficient  Atom+Function         Bfn.  Coefficient  Atom+Function  
  ----- ------------  ---------------      ----- ------------  ---------------
     3      0.857128  1 H  s                 17      0.857128  2 H  s          
     2     -0.747125  1 H  s                 16     -0.747125  2 H  s          
     1     -0.066401  1 H  s                 15     -0.066401  2 H  s          
     9     -0.044125  1 H  pz                23      0.044125  2 H  pz         

 Vector    4  Occ=0.000000D+00  E= 5.857176D-01  Symmetry=a2u
              MO Center=  3.1D-32,  7.5D-32, -1.4D-15, r^2= 2.4D+00
   Bfn.  Coefficient  Atom+Function         Bfn.  Coefficient  Atom+Function  
  ----- ------------  ---------------      ----- ------------  ---------------
     3      2.215373  1 H  s                 17     -2.215373  2 H  s          
     2     -1.865437  1 H  s                 16      1.865437  2 H  s          
     1     -0.128908  1 H  s                 15      0.128908  2 H  s          
     9      0.070365  1 H  pz                23      0.070365  2 H  pz         
     6      0.065650  1 H  pz                20      0.065650  2 H  pz         

 Vector    5  Occ=0.000000D+00  E= 6.362893D-01  Symmetry=eu
              MO Center= -1.7D-16, -1.4D-16, -3.2D-17, r^2= 1.1D+00
   Bfn.  Coefficient  Atom+Function         Bfn.  Coefficient  Atom+Function  
  ----- ------------  ---------------      ----- ------------  ---------------
     7      0.449142  1 H  px                21      0.449142  2 H  px         
     8      0.366650  1 H  py                22      0.366650  2 H  py         
     4     -0.042172  1 H  px                18     -0.042172  2 H  px         
     5     -0.034426  1 H  py                19     -0.034426  2 H  py         

 Vector    6  Occ=0.000000D+00  E= 6.362893D-01  Symmetry=eu
              MO Center= -3.5D-16,  4.3D-16, -1.6D-17, r^2= 1.1D+00
   Bfn.  Coefficient  Atom+Function         Bfn.  Coefficient  Atom+Function  
  ----- ------------  ---------------      ----- ------------  ---------------
     8      0.449142  1 H  py                22      0.449142  2 H  py         
     7     -0.366650  1 H  px                21     -0.366650  2 H  px         
     5     -0.042172  1 H  py                19     -0.042172  2 H  py         
     4      0.034426  1 H  px                18      0.034426  2 H  px         

 Vector    7  Occ=0.000000D+00  E= 1.034719D+00  Symmetry=a1g
              MO Center= -3.1D-32, -6.0D-33, -1.4D-16, r^2= 1.6D+00
   Bfn.  Coefficient  Atom+Function         Bfn.  Coefficient  Atom+Function  
  ----- ------------  ---------------      ----- ------------  ---------------
     9      1.010540  1 H  pz                23     -1.010540  2 H  pz         
     2      0.654484  1 H  s                 16      0.654484  2 H  s          
     3     -0.350114  1 H  s                 17     -0.350114  2 H  s          
     6     -0.095217  1 H  pz                20      0.095217  2 H  pz         
    12     -0.052399  1 H  d  0              26     -0.052399  2 H  d  0       

 Vector    8  Occ=0.000000D+00  E= 1.060042D+00  Symmetry=eg
              MO Center= -3.3D-16,  4.3D-16,  1.9D-16, r^2= 1.5D+00
   Bfn.  Coefficient  Atom+Function         Bfn.  Coefficient  Atom+Function  
  ----- ------------  ---------------      ----- ------------  ---------------
     7      1.071073  1 H  px                21     -1.071073  2 H  px         
     8     -0.820868  1 H  py                22      0.820868  2 H  py         
    13      0.070840  1 H  d  1              27      0.070840  2 H  d  1       
     4     -0.054333  1 H  px                11      0.054291  1 H  d -1       
    18      0.054333  2 H  px                25      0.054291  2 H  d -1       

 Vector    9  Occ=0.000000D+00  E= 1.060042D+00  Symmetry=eg
              MO Center= -4.0D-32, -9.9D-32,  3.7D-16, r^2= 1.5D+00
   Bfn.  Coefficient  Atom+Function         Bfn.  Coefficient  Atom+Function  
  ----- ------------  ---------------      ----- ------------  ---------------
     8      1.071073  1 H  py                22     -1.071073  2 H  py         
     7      0.820868  1 H  px                21     -0.820868  2 H  px         
    11     -0.070840  1 H  d -1              25     -0.070840  2 H  d -1       
     5     -0.054333  1 H  py                13      0.054291  1 H  d  1       
    19      0.054333  2 H  py                27      0.054291  2 H  d  1       

 Vector   10  Occ=0.000000D+00  E= 1.472614D+00  Symmetry=a2u
              MO Center=  3.3D-16, -2.5D-16,  8.5D-15, r^2= 1.9D+00
   Bfn.  Coefficient  Atom+Function         Bfn.  Coefficient  Atom+Function  
  ----- ------------  ---------------      ----- ------------  ---------------
     2     11.349038  1 H  s                 16    -11.349038  2 H  s          
     9     -5.753095  1 H  pz                23     -5.753095  2 H  pz         
    12      0.297341  1 H  d  0              26     -0.297341  2 H  d  0       
     6     -0.120308  1 H  pz                20     -0.120308  2 H  pz         
     3     -0.110106  1 H  s                 17      0.110106  2 H  s          

 Vector   11  Occ=0.000000D+00  E= 2.224152D+00  Symmetry=a2u
              MO Center=  7.0D-17, -5.4D-17,  2.5D-16, r^2= 1.2D+00
   Bfn.  Coefficient  Atom+Function         Bfn.  Coefficient  Atom+Function  
  ----- ------------  ---------------      ----- ------------  ---------------
     2      3.988657  1 H  s                 16     -3.988657  2 H  s          
     3     -1.319099  1 H  s                 17      1.319099  2 H  s          
     9     -1.017883  1 H  pz                23     -1.017883  2 H  pz         
     1     -0.725022  1 H  s                 15      0.725022  2 H  s          
     6     -0.488910  1 H  pz                20     -0.488910  2 H  pz         

 Vector   12  Occ=0.000000D+00  E= 2.292995D+00  Symmetry=a1g
              MO Center= -3.6D-19, -7.5D-19,  3.4D-17, r^2= 9.1D-01
   Bfn.  Coefficient  Atom+Function         Bfn.  Coefficient  Atom+Function  
  ----- ------------  ---------------      ----- ------------  ---------------
     2     -1.009805  1 H  s                 16     -1.009805  2 H  s          
     1      0.959429  1 H  s                 15      0.959429  2 H  s          
     3      0.398398  1 H  s                 17      0.398398  2 H  s          
     9      0.212287  1 H  pz                23     -0.212287  2 H  pz         
    12      0.123600  1 H  d  0              26      0.123600  2 H  d  0       

 Vector   13  Occ=0.000000D+00  E= 3.046298D+00  Symmetry=b1g
              MO Center= -6.5D-16,  4.2D-16,  5.2D-16, r^2= 5.8D-01
   Bfn.  Coefficient  Atom+Function         Bfn.  Coefficient  Atom+Function  
  ----- ------------  ---------------      ----- ------------  ---------------
    14      0.614832  1 H  d  2              28      0.614832  2 H  d  2       

 Vector   14  Occ=0.000000D+00  E= 3.046298D+00  Symmetry=b2g
              MO Center= -2.0D-16, -5.4D-16,  9.1D-16, r^2= 5.8D-01
   Bfn.  Coefficient  Atom+Function         Bfn.  Coefficient  Atom+Function  
  ----- ------------  ---------------      ----- ------------  ---------------
    10      0.614832  1 H  d -2              24      0.614832  2 H  d -2       

 Vector   15  Occ=0.000000D+00  E= 3.238817D+00  Symmetry=eu
              MO Center=  8.9D-16, -2.0D-16,  8.5D-16, r^2= 5.3D-01
   Bfn.  Coefficient  Atom+Function         Bfn.  Coefficient  Atom+Function  
  ----- ------------  ---------------      ----- ------------  ---------------
     5      0.414542  1 H  py                19      0.414542  2 H  py         
     4      0.385818  1 H  px                18      0.385818  2 H  px         
     8     -0.258200  1 H  py                22     -0.258200  2 H  py         
    11     -0.256746  1 H  d -1              25      0.256746  2 H  d -1       
     7     -0.240309  1 H  px                21     -0.240309  2 H  px         

 Vector   16  Occ=0.000000D+00  E= 3.238817D+00  Symmetry=eu
              MO Center= -3.4D-17,  3.1D-16, -8.2D-16, r^2= 5.3D-01
   Bfn.  Coefficient  Atom+Function         Bfn.  Coefficient  Atom+Function  
  ----- ------------  ---------------      ----- ------------  ---------------
     4      0.414542  1 H  px                18      0.414542  2 H  px         
     5     -0.385818  1 H  py                19     -0.385818  2 H  py         
     7     -0.258200  1 H  px                21     -0.258200  2 H  px         
    13      0.256746  1 H  d  1              27     -0.256746  2 H  d  1       
     8      0.240309  1 H  py                22      0.240309  2 H  py         

 Vector   17  Occ=0.000000D+00  E= 3.514664D+00  Symmetry=a1g
              MO Center=  2.7D-18,  2.1D-18,  2.2D-17, r^2= 8.2D-01
   Bfn.  Coefficient  Atom+Function         Bfn.  Coefficient  Atom+Function  
  ----- ------------  ---------------      ----- ------------  ---------------
     6      0.838627  1 H  pz                20     -0.838627  2 H  pz         
     9     -0.813836  1 H  pz                23      0.813836  2 H  pz         
    12      0.338942  1 H  d  0              26      0.338942  2 H  d  0       
     2     -0.315250  1 H  s                 16     -0.315250  2 H  s          
     3      0.162346  1 H  s                 17      0.162346  2 H  s          

 Vector   18  Occ=0.000000D+00  E= 3.789621D+00  Symmetry=eg
              MO Center= -1.9D-16,  4.7D-16, -9.4D-15, r^2= 8.7D-01
   Bfn.  Coefficient  Atom+Function         Bfn.  Coefficient  Atom+Function  
  ----- ------------  ---------------      ----- ------------  ---------------
     8      0.806868  1 H  py                22     -0.806868  2 H  py         
     7      0.714666  1 H  px                21     -0.714666  2 H  px         
    11     -0.552001  1 H  d -1              25     -0.552001  2 H  d -1       
    13      0.488923  1 H  d  1              27      0.488923  2 H  d  1       
     5     -0.444180  1 H  py                19      0.444180  2 H  py         

 Vector   19  Occ=0.000000D+00  E= 3.789621D+00  Symmetry=eg
              MO Center=  1.7D-16,  8.9D-16, -8.0D-15, r^2= 8.7D-01
   Bfn.  Coefficient  Atom+Function         Bfn.  Coefficient  Atom+Function  
  ----- ------------  ---------------      ----- ------------  ---------------
     7      0.806868  1 H  px                21     -0.806868  2 H  px         
     8     -0.714666  1 H  py                22      0.714666  2 H  py         
    13      0.552001  1 H  d  1              27      0.552001  2 H  d  1       
    11      0.488923  1 H  d -1              25      0.488923  2 H  d -1       
     4     -0.444180  1 H  px                18      0.444180  2 H  px         

 Vector   20  Occ=0.000000D+00  E= 3.923757D+00  Symmetry=b2u
              MO Center= -3.5D-16, -9.3D-16, -5.7D-16, r^2= 6.8D-01
   Bfn.  Coefficient  Atom+Function         Bfn.  Coefficient  Atom+Function  
  ----- ------------  ---------------      ----- ------------  ---------------
    14      0.859191  1 H  d  2              28     -0.859191  2 H  d  2       

 Vector   21  Occ=0.000000D+00  E= 3.923757D+00  Symmetry=b1u
              MO Center=  3.1D-16, -5.1D-16, -8.7D-16, r^2= 6.8D-01
   Bfn.  Coefficient  Atom+Function         Bfn.  Coefficient  Atom+Function  
  ----- ------------  ---------------      ----- ------------  ---------------
    10      0.859191  1 H  d -2              24     -0.859191  2 H  d -2       

 Vector   22  Occ=0.000000D+00  E= 3.947881D+00  Symmetry=eu
              MO Center= -5.7D-18,  8.9D-19,  8.3D-15, r^2= 6.9D-01
   Bfn.  Coefficient  Atom+Function         Bfn.  Coefficient  Atom+Function  
  ----- ------------  ---------------      ----- ------------  ---------------
     4      0.502581  1 H  px                18      0.502581  2 H  px         
     5     -0.456034  1 H  py                19     -0.456034  2 H  py         
    13     -0.393512  1 H  d  1              27      0.393512  2 H  d  1       
    11     -0.357066  1 H  d -1              25      0.357066  2 H  d -1       
     7     -0.195322  1 H  px                21     -0.195322  2 H  px         

 Vector   23  Occ=0.000000D+00  E= 3.947881D+00  Symmetry=eu
              MO Center= -6.7D-19, -4.8D-18,  8.1D-15, r^2= 6.9D-01
   Bfn.  Coefficient  Atom+Function         Bfn.  Coefficient  Atom+Function  
  ----- ------------  ---------------      ----- ------------  ---------------
     5      0.502581  1 H  py                19      0.502581  2 H  py         
     4      0.456034  1 H  px                18      0.456034  2 H  px         
    11      0.393512  1 H  d -1              25     -0.393512  2 H  d -1       
    13     -0.357066  1 H  d  1              27      0.357066  2 H  d  1       
     8     -0.195322  1 H  py                22     -0.195322  2 H  py         

 Vector   24  Occ=0.000000D+00  E= 4.412318D+00  Symmetry=a2u
              MO Center=  3.8D-17,  3.4D-17,  3.7D-16, r^2= 9.1D-01
   Bfn.  Coefficient  Atom+Function         Bfn.  Coefficient  Atom+Function  
  ----- ------------  ---------------      ----- ------------  ---------------
     2      6.292554  1 H  s                 16     -6.292554  2 H  s          
     9     -3.513726  1 H  pz                23     -3.513726  2 H  pz         
    12      0.976745  1 H  d  0              26     -0.976745  2 H  d  0       
     1      0.632607  1 H  s                 15     -0.632607  2 H  s          
     3      0.180566  1 H  s                 17     -0.180566  2 H  s          

 Vector   25  Occ=0.000000D+00  E= 5.442512D+00  Symmetry=eg
              MO Center= -8.9D-17, -9.8D-17,  3.3D-16, r^2= 6.3D-01
   Bfn.  Coefficient  Atom+Function         Bfn.  Coefficient  Atom+Function  
  ----- ------------  ---------------      ----- ------------  ---------------
    11      0.971348  1 H  d -1              25      0.971348  2 H  d -1       
    13     -0.880494  1 H  d  1              27     -0.880494  2 H  d  1       
     5     -0.687944  1 H  py                19      0.687944  2 H  py         
     4     -0.623598  1 H  px                18      0.623598  2 H  px         
     8     -0.333245  1 H  py                22      0.333245  2 H  py         

 Vector   26  Occ=0.000000D+00  E= 5.442512D+00  Symmetry=eg
              MO Center=  3.5D-17,  1.4D-17,  6.7D-16, r^2= 6.3D-01
   Bfn.  Coefficient  Atom+Function         Bfn.  Coefficient  Atom+Function  
  ----- ------------  ---------------      ----- ------------  ---------------
    13      0.971348  1 H  d  1              27      0.971348  2 H  d  1       
    11      0.880494  1 H  d -1              25      0.880494  2 H  d -1       
     4      0.687944  1 H  px                18     -0.687944  2 H  px         
     5     -0.623598  1 H  py                19      0.623598  2 H  py         
     7      0.333245  1 H  px                21     -0.333245  2 H  px         

 Vector   27  Occ=0.000000D+00  E= 5.500792D+00  Symmetry=a1g
              MO Center= -8.9D-19, -3.7D-19, -1.3D-16, r^2= 7.0D-01
   Bfn.  Coefficient  Atom+Function         Bfn.  Coefficient  Atom+Function  
  ----- ------------  ---------------      ----- ------------  ---------------
     1      1.121972  1 H  s                 15      1.121972  2 H  s          
    12     -1.077481  1 H  d  0              26     -1.077481  2 H  d  0       
     9      0.689770  1 H  pz                23     -0.689770  2 H  pz         
     2     -0.517648  1 H  s                 16     -0.517648  2 H  s          
     6     -0.135008  1 H  pz                20      0.135008  2 H  pz         

 Vector   28  Occ=0.000000D+00  E= 6.586821D+00  Symmetry=a2u
              MO Center=  3.0D-18,  5.1D-18, -7.3D-17, r^2= 5.5D-01
   Bfn.  Coefficient  Atom+Function         Bfn.  Coefficient  Atom+Function  
  ----- ------------  ---------------      ----- ------------  ---------------
     2      4.249457  1 H  s                 16     -4.249457  2 H  s          
     6     -1.882330  1 H  pz                20     -1.882330  2 H  pz         
     9     -1.709629  1 H  pz                23     -1.709629  2 H  pz         
     1      1.309526  1 H  s                 15     -1.309526  2 H  s          
    12      1.055615  1 H  d  0              26     -1.055615  2 H  d  0       


 center of mass
 --------------
 x =   0.00000000 y =   0.00000000 z =   0.00000000

 moments of inertia (a.u.)
 ------------------
           1.078457510706           0.000000000000           0.000000000000
           0.000000000000           1.078457510706           0.000000000000
           0.000000000000           0.000000000000           0.000000000000

     Multipole analysis of the density
     ---------------------------------

     L   x y z        total         alpha         beta         nuclear
     -   - - -        -----         -----         ----         -------
     0   0 0 0     -0.000000     -1.000000     -1.000000      2.000000

     1   1 0 0     -0.000000     -0.000000     -0.000000      0.000000
     1   0 1 0     -0.000000     -0.000000     -0.000000      0.000000
     1   0 0 1      0.000000      0.000000      0.000000      0.000000

     2   2 0 0     -1.709063     -0.854532     -0.854532      0.000000
     2   1 1 0     -0.000000     -0.000000     -0.000000      0.000000
     2   1 0 1      0.000000      0.000000      0.000000      0.000000
     2   0 2 0     -1.709063     -0.854532     -0.854532      0.000000
     2   0 1 1      0.000000      0.000000      0.000000      0.000000
     2   0 0 2     -1.232632     -1.151358     -1.151358      1.070084


 Task  times  cpu:        0.1s     wall:        0.1s


                                NWChem Input Module
                                -------------------


 Summary of allocated global arrays
-----------------------------------
  No active global arrays



                         GA Statistics for process    0
                         ------------------------------

       create   destroy   get      put      acc     scatter   gather  read&inc
calls:  174      174     1926      920      447        0        0      339     
number of processes/call 1.63e+00 1.15e+00 1.72e+00 0.00e+00 0.00e+00
bytes total:             2.07e+06 3.93e+05 1.23e+06 0.00e+00 0.00e+00 2.71e+03
bytes remote:            1.26e+06 1.69e+05 6.70e+05 0.00e+00 0.00e+00 0.00e+00
Max memory consumed for GA by this process: 75488 bytes

MA_summarize_allocated_blocks: starting scan ...
heap block 'gridpts', handle 95, address 0x55a46ba0c300:
	type of elements:		double precision
	number of elements:		34440954
	address of client space:	0x55a46ba0c380
	index for client space:		12472963
	total number of bytes:		275527768
MA_summarize_allocated_blocks: scan completed: 1 heap block, 0 stack blocks
MA usage statistics:

	allocation statistics:
					      heap	     stack
					      ----	     -----
	current number of blocks	         1	         0
	maximum number of blocks	        25	        60
	current total bytes		 275527768	         0
	maximum total bytes		 275828632	  22510664
	maximum total K-bytes		    275829	     22511
	maximum total M-bytes		       276	        23


                                     CITATION
                                     --------
                Please cite the following reference when publishing
                           results obtained with NWChem:

                 M. Valiev, E.J. Bylaska, N. Govind, K. Kowalski,
              T.P. Straatsma, H.J.J. van Dam, D. Wang, J. Nieplocha,
                        E. Apra, T.L. Windus, W.A. de Jong
                 "NWChem: a comprehensive and scalable open-source
                  solution for large scale molecular simulations"
                      Comput. Phys. Commun. 181, 1477 (2010)
                           doi:10.1016/j.cpc.2010.04.018

                                      AUTHORS
                                      -------
          E. Apra, E. J. Bylaska, W. A. de Jong, N. Govind, K. Kowalski,
       T. P. Straatsma, M. Valiev, H. J. J. van Dam, D. Wang, T. L. Windus,
        J. Hammond, J. Autschbach, K. Bhaskaran-Nair, J. Brabec, K. Lopata,
    S. A. Fischer, S. Krishnamoorthy, M. Jacquelin, W. Ma, M. Klemm, O. Villa,
      Y. Chen, V. Anisimov, F. Aquino, S. Hirata, M. T. Hackler, V. Konjkov,
            D. Mejia-Rodriguez, T. Risthaus, M. Malagoli, A. Marenich,
   A. Otero-de-la-Roza, J. Mullin, P. Nichols, R. Peverati, J. Pittner, Y. Zhao,
        P.-D. Fan, A. Fonari, M. J. Williamson, R. J. Harrison, J. R. Rehr,
      M. Dupuis, D. Silverstein, D. M. A. Smith, J. Nieplocha, V. Tipparaju,
    M. Krishnan, B. E. Van Kuiken, A. Vazquez-Mayagoitia, L. Jensen, M. Swart,
      Q. Wu, T. Van Voorhis, A. A. Auer, M. Nooijen, L. D. Crosby, E. Brown,
      G. Cisneros, G. I. Fann, H. Fruchtl, J. Garza, K. Hirao, R. A. Kendall,
      J. A. Nichols, K. Tsemekhman, K. Wolinski, J. Anchell, D. E. Bernholdt,
      P. Borowski, T. Clark, D. Clerc, H. Dachsel, M. J. O. Deegan, K. Dyall,
    D. Elwood, E. Glendening, M. Gutowski, A. C. Hess, J. Jaffe, B. G. Johnson,
     J. Ju, R. Kobayashi, R. Kutteh, Z. Lin, R. Littlefield, X. Long, B. Meng,
      T. Nakajima, S. Niu, L. Pollack, M. Rosing, K. Glaesemann, G. Sandrone,
      M. Stave, H. Taylor, G. Thomas, J. H. van Lenthe, A. T. Wong, Z. Zhang.

 Total times  cpu:        0.1s     wall:        0.1s
