 argument  1 = /home/list1234/source/nwchem-6.8.1-release/QA/tests/h2mp2/h2mp2.nw



============================== echo of input deck ==============================
echo

title "H2 MP2 gradient at this geometry exposed bug in shell pair ordering"

start h2o

geometry units au
  H      0.00000000   -1.43042809   -1.10715266
  H      0.00000000    1.93042809   -1.60715266
end

basis
  H library 6-31g
  O library 6-31g
end

set tng:fivept t
set tng:delta 0.03

mp2; print backtenergy; end

task mp2 gradient

mp2; print none; end

task mp2 gradient numerical

================================================================================


                                         
                                         


              Northwest Computational Chemistry Package (NWChem) 6.8
              ------------------------------------------------------


                    Environmental Molecular Sciences Laboratory
                       Pacific Northwest National Laboratory
                                Richland, WA 99352

                              Copyright (c) 1994-2018
                       Pacific Northwest National Laboratory
                            Battelle Memorial Institute

             NWChem is an open-source computational chemistry package
                        distributed under the terms of the
                      Educational Community License (ECL) 2.0
             A copy of the license is included with this distribution
                              in the LICENSE.TXT file

                                  ACKNOWLEDGMENT
                                  --------------

            This software and its documentation were developed at the
            EMSL at Pacific Northwest National Laboratory, a multiprogram
            national laboratory, operated for the U.S. Department of Energy
            by Battelle under Contract Number DE-AC05-76RL01830. Support
            for this work was provided by the Department of Energy Office
            of Biological and Environmental Research, Office of Basic
            Energy Sciences, and the Office of Advanced Scientific Computing.


           Job information
           ---------------

    hostname        = list1234-B360M-H
    program         = /home/list1234/source/nwchem-6.8.1-release/bin/LINUX64/nwchem
    date            = Sun Jun 30 05:39:43 2019

    compiled        = Sun_Jun_30_05:21:11_2019
    source          = /home/list1234/source/nwchem-6.8.1-release
    nwchem branch   = Development
    nwchem revision = N/A
    ga revision     = 5.6.5
    use scalapack   = T
    input           = /home/list1234/source/nwchem-6.8.1-release/QA/tests/h2mp2/h2mp2.nw
    prefix          = h2o.
    data base       = ./h2o.db
    status          = startup
    nproc           =        4
    time left       =     -1s



           Memory information
           ------------------

    heap     =   86247164 doubles =    658.0 Mbytes
    stack    =   86247169 doubles =    658.0 Mbytes
    global   =  172494336 doubles =   1316.0 Mbytes (distinct from heap & stack)
    total    =  344988669 doubles =   2632.1 Mbytes
    verify   = yes
    hardfail = no 


           Directory information
           ---------------------

  0 permanent = .
  0 scratch   = .




                                NWChem Input Module
                                -------------------


        H2 MP2 gradient at this geometry exposed bug in shell pair ordering
        -------------------------------------------------------------------
 ORDER OF PRIMARY AXIS IS BEING SET TO 4
 D4H symmetry detected

          ------
          auto-z
          ------
     1 autoz failed with cvr_scaling = 1.2 changing to 1.3
     2 autoz failed with cvr_scaling = 1.3 changing to 1.4
     3 autoz failed with cvr_scaling = 1.4 changing to 1.5
     4 autoz failed with cvr_scaling = 1.5 changing to 1.6
     5 autoz failed with cvr_scaling = 1.6 changing to 1.7

 AUTOZ failed to generate good internal coordinates.
 Cartesian coordinates will be used in optimizations.



                             Geometry "geometry" -> ""
                             -------------------------

 Output coordinates in a.u. (scale by  1.000000000 to convert to a.u.)

  No.       Tag          Charge          X              Y              Z
 ---- ---------------- ---------- -------------- -------------- --------------
    1 H                    1.0000     0.00000000     0.00000000    -1.69892277
    2 H                    1.0000     0.00000000     0.00000000     1.69892277

      Atomic Mass 
      ----------- 

      H                  1.007825


 Effective nuclear repulsion energy (a.u.)       0.2943041379

            Nuclear Dipole moment (a.u.) 
            ----------------------------
        X                 Y               Z
 ---------------- ---------------- ----------------
     0.0000000000     0.0000000000     0.0000000000

      Symmetry information
      --------------------

 Group name             D4h       
 Group number             28
 Group order              16
 No. of unique centers     1

      Symmetry unique atoms

     1


            XYZ format geometry
            -------------------
     2
 geometry
 H                     0.00000000     0.00000000    -0.89903128
 H                     0.00000000     0.00000000     0.89903128

                      Basis "ao basis" -> "" (cartesian)
                      -----
  H (Hydrogen)
  ------------
            Exponent  Coefficients 
       -------------- ---------------------------------------------------------
  1 S  1.87311370E+01  0.033495
  1 S  2.82539370E+00  0.234727
  1 S  6.40121700E-01  0.813757

  2 S  1.61277800E-01  1.000000

  O (Oxygen)
  ----------
            Exponent  Coefficients 
       -------------- ---------------------------------------------------------
  1 S  5.48467170E+03  0.001831
  1 S  8.25234950E+02  0.013950
  1 S  1.88046960E+02  0.068445
  1 S  5.29645000E+01  0.232714
  1 S  1.68975700E+01  0.470193
  1 S  5.79963530E+00  0.358521

  2 S  1.55396160E+01 -0.110778
  2 S  3.59993360E+00 -0.148026
  2 S  1.01376180E+00  1.130767

  3 P  1.55396160E+01  0.070874
  3 P  3.59993360E+00  0.339753
  3 P  1.01376180E+00  0.727159

  4 S  2.70005800E-01  1.000000

  5 P  2.70005800E-01  1.000000



 Summary of "ao basis" -> "" (cartesian)
 ------------------------------------------------------------------------------
       Tag                 Description            Shells   Functions and Types
 ---------------- ------------------------------  ------  ---------------------
 H                           6-31g                   2        2   2s
 O                           6-31g                   5        9   3s2p


                                 NWChem SCF Module
                                 -----------------


        H2 MP2 gradient at this geometry exposed bug in shell pair ordering



  ao basis        = "ao basis"
  functions       =     4
  atoms           =     2
  closed shells   =     1
  open shells     =     0
  charge          =   0.00
  wavefunction    = RHF 
  input vectors   = atomic
  output vectors  = ./h2o.movecs
  use symmetry    = T
  symmetry adapt  = T


 Summary of "ao basis" -> "ao basis" (cartesian)
 ------------------------------------------------------------------------------
       Tag                 Description            Shells   Functions and Types
 ---------------- ------------------------------  ------  ---------------------
 H                           6-31g                   2        2   2s
 O                           6-31g                   5        9   3s2p


      Symmetry analysis of basis
      --------------------------

        a1g         2
        a1u         0
        a2g         0
        a2u         2
        b1g         0
        b1u         0
        b2g         0
        b2u         0
        eg          0
        eu          0


 Forming initial guess at       0.0s


      Superposition of Atomic Density Guess
      -------------------------------------

 Sum of atomic energies:          -0.99646508

      Non-variational initial energy
      ------------------------------

 Total energy =      -0.702790
 1-e energy   =      -1.583416
 2-e energy   =       0.586321
 HOMO         =      -0.290953
 LUMO         =      -0.079347


      Symmetry analysis of molecular orbitals - initial
      -------------------------------------------------

  Numbering of irreducible representations: 

     1 a1g         2 a1u         3 a2g         4 a2u         5 b1g     
     6 b1u         7 b2g         8 b2u         9 eg         10 eu      

  Orbital symmetries:

     1 a1g         2 a2u         3 a2u         4 a1g     


 Starting SCF solution at       0.0s



 ----------------------------------------------
         Quadratically convergent ROHF

 Convergence threshold     :          1.000E-06
 Maximum no. of iterations :           30
 Final Fock-matrix accuracy:          1.000E-08
 ----------------------------------------------


              iter       energy          gnorm     gmax       time
             ----- ------------------- --------- --------- --------
                 1       -0.9463575246  3.14D-03  3.14D-03      0.1
                 2       -0.9463585479  2.00D-07  2.00D-07      0.1


       Final RHF  results 
       ------------------ 

         Total SCF energy =     -0.946358547941
      One-electron energy =     -1.682163617988
      Two-electron energy =      0.441500932193
 Nuclear repulsion energy =      0.294304137854

        Time for solution =      0.0s



       Symmetry analysis of molecular orbitals - final
       -----------------------------------------------

  Numbering of irreducible representations: 

     1 a1g         2 a1u         3 a2g         4 a2u         5 b1g     
     6 b1u         7 b2g         8 b2u         9 eg         10 eu      

  Orbital symmetries:

     1 a1g         2 a2u         3 a2u         4 a1g     

             Final eigenvalues
             -----------------

              1      
    1   -0.3996
    2    0.0034
    3    1.0156
    4    1.0337

                       ROHF Final Molecular Orbital Analysis
                       -------------------------------------

 Vector    1  Occ=2.000000D+00  E=-3.995809D-01  Symmetry=a1g
              MO Center=  0.0D+00,  0.0D+00,  2.0D-17, r^2= 1.6D+00
   Bfn.  Coefficient  Atom+Function         Bfn.  Coefficient  Atom+Function  
  ----- ------------  ---------------      ----- ------------  ---------------
     2      0.451664  1 H  s                  4      0.451664  2 H  s          
     1      0.225752  1 H  s                  3      0.225752  2 H  s          

 Vector    2  Occ=0.000000D+00  E= 3.428911D-03  Symmetry=a2u
              MO Center=  0.0D+00,  0.0D+00, -1.6D-16, r^2= 2.1D+00
   Bfn.  Coefficient  Atom+Function         Bfn.  Coefficient  Atom+Function  
  ----- ------------  ---------------      ----- ------------  ---------------
     2      0.689058  1 H  s                  4     -0.689058  2 H  s          
     1      0.227896  1 H  s                  3     -0.227896  2 H  s          

 Vector    3  Occ=0.000000D+00  E= 1.015587D+00  Symmetry=a2u
              MO Center=  0.0D+00,  0.0D+00, -2.6D-16, r^2= 2.3D+00
   Bfn.  Coefficient  Atom+Function         Bfn.  Coefficient  Atom+Function  
  ----- ------------  ---------------      ----- ------------  ---------------
     2     -1.003340  1 H  s                  4      1.003340  2 H  s          
     1      0.928020  1 H  s                  3     -0.928020  2 H  s          

 Vector    4  Occ=0.000000D+00  E= 1.033669D+00  Symmetry=a1g
              MO Center=  0.0D+00,  0.0D+00,  1.4D-16, r^2= 1.8D+00
   Bfn.  Coefficient  Atom+Function         Bfn.  Coefficient  Atom+Function  
  ----- ------------  ---------------      ----- ------------  ---------------
     1      0.922298  1 H  s                  3      0.922298  2 H  s          
     2     -0.673609  1 H  s                  4     -0.673609  2 H  s          


 center of mass
 --------------
 x =   0.00000000 y =   0.00000000 z =   0.00000000

 moments of inertia (a.u.)
 ------------------
           5.817848329875           0.000000000000           0.000000000000
           0.000000000000           5.817848329875           0.000000000000
           0.000000000000           0.000000000000           0.000000000000

  Mulliken analysis of the total density
  --------------------------------------

    Atom       Charge   Shell Charges
 -----------   ------   -------------------------------------------------------
    1 H    1     1.00   0.27  0.73
    2 H    1     1.00   0.27  0.73

       Multipole analysis of the density wrt the origin
       ------------------------------------------------

     L   x y z        total         open         nuclear
     -   - - -        -----         ----         -------
     0   0 0 0     -0.000000      0.000000      2.000000

     1   1 0 0      0.000000      0.000000      0.000000
     1   0 1 0      0.000000      0.000000      0.000000
     1   0 0 1      0.000000      0.000000      0.000000

     2   2 0 0     -2.202360      0.000000      0.000000
     2   1 1 0      0.000000      0.000000      0.000000
     2   1 0 1      0.000000      0.000000      0.000000
     2   0 2 0     -2.202360      0.000000      0.000000
     2   0 1 1      0.000000      0.000000      0.000000
     2   0 0 2     -1.058288      0.000000      5.772677

                   NWChem MP2 Semi-direct Energy/Gradient Module
                   ---------------------------------------------


        H2 MP2 gradient at this geometry exposed bug in shell pair ordering


  Basis functions       =      4
  Molecular orbitals    =      4
  Frozen core           =      0
  Frozen virtuals       =      0
  Active alpha occupied =      1
  Active beta occupied  =      1
  Active alpha virtual  =      3
  Active beta virtual   =      3
  Use MO symmetry       = F
  Use skeleton AO sym   = T

  AO/Fock/Back tols     =   1.0D-09  1.0D-09  1.0D-09

 GA uses MA = F    GA memory limited = T

 Available: 
  local mem=  1.51D+08
 global mem=  1.72D+08
 local disk=  0.00D+00
  mp2_memr nvloc                     1
  nvloc new                     1
   1 passes of   1:        3145728                         29                        53.
   1 passes of   1: M    150931847           G      172494308           F     147786119.

 Semi-direct pass number   1 of   1  for RHF alpha+beta  at        0.1s
  vrange nnbf                    10
  mp2_eaftype                    10  avail_ma_in_mb                  1316
 EAF : mp2_eaftype filesize          10         26.
  mp2_eaf for mointskh                     10
Node 0 wrote      0.0 Mb in      0.0 s     Agg I/O rate:    13.9 Mb/s
 Done moints_semi at        0.1s
  mp2_eaftype                    10  avail_ma_in_mb                  1306
 EAF : mp2_eaftype filesize          10         26.
  mp2_eaf for kh                    10
  mp2_eaftype                    10  avail_ma_in_mb                  1306
 EAF : mp2_eaftype filesize          10          6.
  mp2_eaf for ta tb                    10
  mp2_eaf for ta                     10
  mp2_eaf for tb                     10
 Done maket at        0.1s
 Done pijab at        0.1s
 Done wijab at        0.1s
 Done lai at        0.1s
  mp2_eaftype                    10  avail_ma_in_mb                  1286
 EAF : mp2_eaftype filesize          10         10.
  mp2_eaf for 2pdm                     10
  The energy from the two PDM is    3.8525725886443443E-002
 Done nonsep at        0.1s
 Done multipass loop at        0.1s


          -------------------------------------------
          SCF energy                  -0.946358547941
          Correlation energy          -0.038525725886
          Singlet pairs               -0.038525725886
          Triplet pairs                0.000000000000
          Total MP2 energy            -0.984884273827
          -------------------------------------------



          ---------------------------------------------------
                    Spin Component Scaled (SCS) MP2
          Same spin pairs                      0.000000000000
          Same spin scaling factor             0.333333333333
          Opposite spin pairs                 -0.038525725886
          Opposite spin scaling fact.          1.200000000000
          SCS-MP2 correlation energy          -0.046230871064
          Total SCS-MP2 energy                -0.992589419004
          ---------------------------------------------------

                                NWChem CPHF Module
                                ------------------


    scftype = RHF 
    nclosed =    1
      nopen =    0
  variables =        3
  tolerance =   1.0D-04
  max. iter =  100

 SCF residual:    2.0032564740368741E-007

            ----- linear solve (tol: 1.0E-04 prod-acc: 3.1E-11) -----

               iter nbas    rnorm     rnorm-scal   ratio     time
               ---- ---- ----------- ----------- --------- -------
                  1    1  3.8418E-18  7.0994E-17    0.0000     0.1

 CPHF converged to   7.1D-17 in    1 iters

                Dipole Moments (a.u.)
                --------------
         Nuclear       SCF       SCF+MP2
       ----------- ----------- -----------
 X       0.000000    0.000000    0.000000
 Y       0.000000    0.000000    0.000000
 Z       0.000000    0.000000    0.000000


 MP2 RHF      natural orbital occupation numbers


              1      
    1    1.9187
    2    0.0805
    3    0.0006
    4    0.0002

  MP2 natural orbitals output to ./h2o.mp2nos

  Using symmetry


                         mp2 ENERGY GRADIENTS

    atom               coordinates                        gradient
                 x          y          z           x          y          z
   1 H       0.000000   0.000000  -1.698923    0.000000   0.000000  -0.065549
   2 H       0.000000   0.000000   1.698923    0.000000   0.000000   0.065549

                 ----------------------------------------
                 |  Time  |  1-e(secs)   |  2-e(secs)   |
                 ----------------------------------------
                 |  CPU   |       0.00   |       0.00   |
                 ----------------------------------------
                 |  WALL  |       0.00   |       0.00   |
                 ----------------------------------------
 -----------------------
 Performance information
 -----------------------

 Timer overhead =  3.74D-07 seconds/call

               Nr. of calls         CPU time (s)                 Wall time (s)                GFlops
             ---------------    -------------------     ------------------------------   -------------------
Name         Min   Avg   Max    Min     Avg     Max     Min     Avg     Max   Mx/calls   Min     Max     Sum
mp2: moin     1     1     1   1.33E-3 1.36E-3 1.37E-3  1.33E-3 1.36E-3 1.37E-3 1.37E-3   0.0     0.0     0.0   
mp2: make     1     1     1   1.16E-4 1.25E-4 1.29E-4  1.16E-4 1.25E-4 1.29E-4 1.29E-4   0.0     0.0     0.0   
mp2: pija     1     1     1   5.30E-5 5.32E-5 5.40E-5  5.30E-5 5.32E-5 5.34E-5 5.34E-5   0.0     0.0     0.0   
mp2: wija     1     1     1   4.70E-5 5.05E-5 5.20E-5  4.73E-5 5.08E-5 5.21E-5 5.21E-5   0.0     0.0     0.0   
mp2: lai      1     1     1   5.10E-5 5.25E-5 5.50E-5  5.17E-5 5.26E-5 5.48E-5 5.48E-5   0.0     0.0     0.0   
mp2: back     1     1     1   4.80E-5 4.97E-5 5.10E-5  5.01E-5 5.02E-5 5.05E-5 5.05E-5   0.0     0.0     0.0   
mp2: nons     1     1     1   1.42E-4 1.71E-4 1.85E-4  1.84E-4 1.86E-4 1.92E-4 1.92E-4   0.0     0.0     0.0   
mp2: laif     1     1     1   1.95E-3 1.95E-3 1.95E-3  1.95E-3 1.95E-3 1.95E-3 1.95E-3   0.0     0.0     0.0   
mp2: cphf     1     1     1   6.47E-3 6.47E-3 6.48E-3  6.49E-3 6.49E-3 6.49E-3 6.49E-3   0.0     0.0     0.0   
mp2: wijf     1     1     1   1.79E-3 1.79E-3 1.79E-3  1.79E-3 1.79E-3 1.79E-3 1.79E-3   0.0     0.0     0.0   
mp2: sep      1     1     1   2.24E-3 2.34E-3 2.37E-3  2.37E-3 2.37E-3 2.37E-3 2.37E-3   0.0     0.0     0.0   
mp2: tota     1     1     1   2.45E-2 2.48E-2 2.49E-2  2.49E-2 2.49E-2 2.49E-2 2.49E-2   0.0     0.0     0.0   

 The average no. of pstat calls per process was 1.20D+01
 with a timing overhead of 4.49D-06s


 Task  times  cpu:        0.0s     wall:        0.1s


                                NWChem Input Module
                                -------------------


                         NWChem Numerical Gradients Module
                         ---------------------------------


 No. of totally-symmetric internal modes =   1

  mp2_memr nvloc                     1
  nvloc new                     1
  vrange nnbf                    10
  mp2_eaftype                    10  avail_ma_in_mb                  1316
 EAF : mp2_eaftype filesize          10         26.
  mp2_eaf for mointskh                     10
  mp2_eaftype                    10  avail_ma_in_mb                  1306
 EAF : mp2_eaftype filesize          10         26.
  mp2_eaf for kh                    10
 Reference energy          -0.98488427


 Saving state for mp2 with suffix numg
        ./h2o.movecs

 Finite difference step  3.00000D-02
 Use five point formula T

  mp2_memr nvloc                     1
  nvloc new                     1
  vrange nnbf                    10
  mp2_eaftype                    10  avail_ma_in_mb                  1316
 EAF : mp2_eaftype filesize          10         26.
  mp2_eaf for mointskh                     10
  mp2_eaftype                    10  avail_ma_in_mb                  1306
 EAF : mp2_eaftype filesize          10         26.
  mp2_eaf for kh                    10
 step   1 +2          -0.97944745
  mp2_memr nvloc                     1
  nvloc new                     1
  vrange nnbf                    10
  mp2_eaftype                    10  avail_ma_in_mb                  1316
 EAF : mp2_eaftype filesize          10         26.
  mp2_eaf for mointskh                     10
  mp2_eaftype                    10  avail_ma_in_mb                  1306
 EAF : mp2_eaftype filesize          10         26.
  mp2_eaf for kh                    10
 step   1 +1          -0.98213456
  mp2_memr nvloc                     1
  nvloc new                     1
  vrange nnbf                    10
  mp2_eaftype                    10  avail_ma_in_mb                  1316
 EAF : mp2_eaftype filesize          10         26.
  mp2_eaf for mointskh                     10
  mp2_eaftype                    10  avail_ma_in_mb                  1306
 EAF : mp2_eaftype filesize          10         26.
  mp2_eaf for kh                    10
 step   1 -1          -0.98769653
  mp2_memr nvloc                     1
  nvloc new                     1
  vrange nnbf                    10
  mp2_eaftype                    10  avail_ma_in_mb                  1316
 EAF : mp2_eaftype filesize          10         26.
  mp2_eaf for mointskh                     10
  mp2_eaftype                    10  avail_ma_in_mb                  1306
 EAF : mp2_eaftype filesize          10         26.
  mp2_eaf for kh                    10
 step   1 -2          -0.99057110
            gradient         0.092700 (3pt was  0.092699)


                         MP2 ENERGY GRADIENTS

    atom               coordinates                        gradient
                 x          y          z           x          y          z
   1 H       0.000000   0.000000  -1.698923    0.000000   0.000000  -0.065549
   2 H       0.000000   0.000000   1.698923    0.000000   0.000000   0.065549



 Deleting state for mp2 with suffix numg
        ./h2o.movecs


 Task  times  cpu:        0.1s     wall:        0.1s


                                NWChem Input Module
                                -------------------


 Summary of allocated global arrays
-----------------------------------
  No active global arrays



                         GA Statistics for process    0
                         ------------------------------

       create   destroy   get      put      acc     scatter   gather  read&inc
calls:  802      802     2303     1128     1466        0        0      260     
number of processes/call 1.34e+00 1.11e+00 1.44e+00 0.00e+00 0.00e+00
bytes total:             1.47e+05 6.49e+04 6.47e+04 0.00e+00 0.00e+00 2.08e+03
bytes remote:            2.49e+04 4.75e+03 1.99e+04 0.00e+00 0.00e+00 0.00e+00
Max memory consumed for GA by this process: 8416 bytes

MA_summarize_allocated_blocks: starting scan ...
MA_summarize_allocated_blocks: scan completed: 0 heap blocks, 0 stack blocks
MA usage statistics:

	allocation statistics:
					      heap	     stack
					      ----	     -----
	current number of blocks	         0	         0
	maximum number of blocks	        24	        36
	current total bytes		         0	         0
	maximum total bytes		  31463064	  22509032
	maximum total K-bytes		     31464	     22510
	maximum total M-bytes		        32	        23


                                     CITATION
                                     --------
                Please cite the following reference when publishing
                           results obtained with NWChem:

                 M. Valiev, E.J. Bylaska, N. Govind, K. Kowalski,
              T.P. Straatsma, H.J.J. van Dam, D. Wang, J. Nieplocha,
                        E. Apra, T.L. Windus, W.A. de Jong
                 "NWChem: a comprehensive and scalable open-source
                  solution for large scale molecular simulations"
                      Comput. Phys. Commun. 181, 1477 (2010)
                           doi:10.1016/j.cpc.2010.04.018

                                      AUTHORS
                                      -------
          E. Apra, E. J. Bylaska, W. A. de Jong, N. Govind, K. Kowalski,
       T. P. Straatsma, M. Valiev, H. J. J. van Dam, D. Wang, T. L. Windus,
        J. Hammond, J. Autschbach, K. Bhaskaran-Nair, J. Brabec, K. Lopata,
    S. A. Fischer, S. Krishnamoorthy, M. Jacquelin, W. Ma, M. Klemm, O. Villa,
      Y. Chen, V. Anisimov, F. Aquino, S. Hirata, M. T. Hackler, V. Konjkov,
            D. Mejia-Rodriguez, T. Risthaus, M. Malagoli, A. Marenich,
   A. Otero-de-la-Roza, J. Mullin, P. Nichols, R. Peverati, J. Pittner, Y. Zhao,
        P.-D. Fan, A. Fonari, M. J. Williamson, R. J. Harrison, J. R. Rehr,
      M. Dupuis, D. Silverstein, D. M. A. Smith, J. Nieplocha, V. Tipparaju,
    M. Krishnan, B. E. Van Kuiken, A. Vazquez-Mayagoitia, L. Jensen, M. Swart,
      Q. Wu, T. Van Voorhis, A. A. Auer, M. Nooijen, L. D. Crosby, E. Brown,
      G. Cisneros, G. I. Fann, H. Fruchtl, J. Garza, K. Hirao, R. A. Kendall,
      J. A. Nichols, K. Tsemekhman, K. Wolinski, J. Anchell, D. E. Bernholdt,
      P. Borowski, T. Clark, D. Clerc, H. Dachsel, M. J. O. Deegan, K. Dyall,
    D. Elwood, E. Glendening, M. Gutowski, A. C. Hess, J. Jaffe, B. G. Johnson,
     J. Ju, R. Kobayashi, R. Kutteh, Z. Lin, R. Littlefield, X. Long, B. Meng,
      T. Nakajima, S. Niu, L. Pollack, M. Rosing, K. Glaesemann, G. Sandrone,
      M. Stave, H. Taylor, G. Thomas, J. H. van Lenthe, A. T. Wong, Z. Zhang.

 Total times  cpu:        0.2s     wall:        0.2s
