 argument  1 = /home/list1234/source/nwchem-6.8.1-release/QA/tests/h2o-hse/h2o-hse.nw



============================== echo of input deck ==============================
echo
start h2o-hse

geometry units angstrom
O      0.00000000     0.00000000     0.11726921
H      0.75698224     0.00000000    -0.46907685
H     -0.75698224     0.00000000    -0.46907685
end

basis spherical
  * library aug-cc-pvdz
end

# HSE03 functional: 0.25*Ex(HF-SR) - 0.25*Ex(PBE-SR) + Ex(PBE) + Ec(PBE)
# gamma(HF-SR) = gamma(PBE-SR)
dft
  xc hse03
  iterations 100
  direct
end
task dft energy

# HSE06 functional: 0.25*Ex(HF-SR) - 0.25*Ex(PBE-SR) + Ex(PBE) + Ec(PBE)
# gamma(HF-SR) = gamma(PBE-SR)
dft
  xc xpbe96 1.0 xcampbe96 -0.25 cpbe96 1.0 srhfexch 0.25
  cam 0.33 cam_alpha 0.0 cam_beta 1.0
  iterations 100
  direct
end
task dft energy

# HSE06 functional: 0.25*Ex(HF-SR) - 0.25*Ex(PBE-SR) + Ex(PBE) + Ec(PBE)
# gamma(HF-SR) = gamma(PBE-SR)
dft
  xc xpbe96 1.0 xcampbe96 -0.25 cpbe96 1.0 srhfexch 0.25
  cam 0.11 cam_alpha 0.0 cam_beta 1.0
  iterations 100
  direct
end
task dft energy
================================================================================


                                         
                                         


              Northwest Computational Chemistry Package (NWChem) 6.8
              ------------------------------------------------------


                    Environmental Molecular Sciences Laboratory
                       Pacific Northwest National Laboratory
                                Richland, WA 99352

                              Copyright (c) 1994-2018
                       Pacific Northwest National Laboratory
                            Battelle Memorial Institute

             NWChem is an open-source computational chemistry package
                        distributed under the terms of the
                      Educational Community License (ECL) 2.0
             A copy of the license is included with this distribution
                              in the LICENSE.TXT file

                                  ACKNOWLEDGMENT
                                  --------------

            This software and its documentation were developed at the
            EMSL at Pacific Northwest National Laboratory, a multiprogram
            national laboratory, operated for the U.S. Department of Energy
            by Battelle under Contract Number DE-AC05-76RL01830. Support
            for this work was provided by the Department of Energy Office
            of Biological and Environmental Research, Office of Basic
            Energy Sciences, and the Office of Advanced Scientific Computing.


           Job information
           ---------------

    hostname        = list1234-B360M-H
    program         = /home/list1234/source/nwchem-6.8.1-release/bin/LINUX64/nwchem
    date            = Sun Jun 30 07:38:39 2019

    compiled        = Sun_Jun_30_05:21:11_2019
    source          = /home/list1234/source/nwchem-6.8.1-release
    nwchem branch   = Development
    nwchem revision = N/A
    ga revision     = 5.6.5
    use scalapack   = T
    input           = /home/list1234/source/nwchem-6.8.1-release/QA/tests/h2o-hse/h2o-hse.nw
    prefix          = h2o-hse.
    data base       = ./h2o-hse.db
    status          = startup
    nproc           =        4
    time left       =     -1s



           Memory information
           ------------------

    heap     =   86247168 doubles =    658.0 Mbytes
    stack    =   86247165 doubles =    658.0 Mbytes
    global   =  172494336 doubles =   1316.0 Mbytes (distinct from heap & stack)
    total    =  344988669 doubles =   2632.1 Mbytes
    verify   = yes
    hardfail = no 


           Directory information
           ---------------------

  0 permanent = .
  0 scratch   = .




                                NWChem Input Module
                                -------------------



 Scaling coordinates for geometry "geometry" by  1.889725989
 (inverse scale =  0.529177249)

 C2V symmetry detected

          ------
          auto-z
          ------
  no constraints, skipping    0.0000000000000000     
  no constraints, skipping    0.0000000000000000     


                             Geometry "geometry" -> ""
                             -------------------------

 Output coordinates in angstroms (scale by  1.889725989 to convert to a.u.)

  No.       Tag          Charge          X              Y              Z
 ---- ---------------- ---------- -------------- -------------- --------------
    1 O                    8.0000     0.00000000     0.00000000     0.11726921
    2 H                    1.0000     0.75698224     0.00000000    -0.46907685
    3 H                    1.0000    -0.75698224     0.00000000    -0.46907685

      Atomic Mass 
      ----------- 

      O                 15.994910
      H                  1.007825


 Effective nuclear repulsion energy (a.u.)       9.1920946687

            Nuclear Dipole moment (a.u.) 
            ----------------------------
        X                 Y               Z
 ---------------- ---------------- ----------------
     0.0000000000     0.0000000000     0.0000000000

      Symmetry information
      --------------------

 Group name             C2v       
 Group number             16
 Group order               4
 No. of unique centers     2

      Symmetry unique atoms

     1    2



                                Z-matrix (autoz)
                                -------- 

 Units are Angstrom for bonds and degrees for angles

      Type          Name      I     J     K     L     M      Value
      ----------- --------  ----- ----- ----- ----- ----- ----------
    1 Stretch                  1     2                       0.95751
    2 Stretch                  1     3                       0.95751
    3 Bend                     2     1     3               104.47845


            XYZ format geometry
            -------------------
     3
 geometry
 O                     0.00000000     0.00000000     0.11726921
 H                     0.75698224     0.00000000    -0.46907685
 H                    -0.75698224     0.00000000    -0.46907685

 ==============================================================================
                                internuclear distances
 ------------------------------------------------------------------------------
       center one      |      center two      | atomic units |  angstroms
 ------------------------------------------------------------------------------
    2 H                |   1 O                |     1.80943  |     0.95751
    3 H                |   1 O                |     1.80943  |     0.95751
 ------------------------------------------------------------------------------
                         number of included internuclear distances:          2
 ==============================================================================



 ==============================================================================
                                 internuclear angles
 ------------------------------------------------------------------------------
        center 1       |       center 2       |       center 3       |  degrees
 ------------------------------------------------------------------------------
    2 H                |   1 O                |   3 H                |   104.48
 ------------------------------------------------------------------------------
                            number of included internuclear angles:          1
 ==============================================================================





 Summary of "ao basis" -> "" (spherical)
 ------------------------------------------------------------------------------
       Tag                 Description            Shells   Functions and Types
 ---------------- ------------------------------  ------  ---------------------
 *                        aug-cc-pvdz                 on all atoms 



                                 NWChem DFT Module
                                 -----------------


                      Basis "ao basis" -> "ao basis" (spherical)
                      -----
  O (Oxygen)
  ----------
            Exponent  Coefficients 
       -------------- ---------------------------------------------------------
  1 S  1.17200000E+04  0.000710
  1 S  1.75900000E+03  0.005470
  1 S  4.00800000E+02  0.027837
  1 S  1.13700000E+02  0.104800
  1 S  3.70300000E+01  0.283062
  1 S  1.32700000E+01  0.448719
  1 S  5.02500000E+00  0.270952
  1 S  1.01300000E+00  0.015458

  2 S  1.17200000E+04 -0.000160
  2 S  1.75900000E+03 -0.001263
  2 S  4.00800000E+02 -0.006267
  2 S  1.13700000E+02 -0.025716
  2 S  3.70300000E+01 -0.070924
  2 S  1.32700000E+01 -0.165411
  2 S  5.02500000E+00 -0.116955
  2 S  1.01300000E+00  0.557368

  3 S  3.02300000E-01  1.000000

  4 S  7.89600000E-02  1.000000

  5 P  1.77000000E+01  0.043018
  5 P  3.85400000E+00  0.228913
  5 P  1.04600000E+00  0.508728

  6 P  2.75300000E-01  1.000000

  7 P  6.85600000E-02  1.000000

  8 D  1.18500000E+00  1.000000

  9 D  3.32000000E-01  1.000000

  H (Hydrogen)
  ------------
            Exponent  Coefficients 
       -------------- ---------------------------------------------------------
  1 S  1.30100000E+01  0.019685
  1 S  1.96200000E+00  0.137977
  1 S  4.44600000E-01  0.478148

  2 S  1.22000000E-01  1.000000

  3 S  2.97400000E-02  1.000000

  4 P  7.27000000E-01  1.000000

  5 P  1.41000000E-01  1.000000



 Summary of "ao basis" -> "ao basis" (spherical)
 ------------------------------------------------------------------------------
       Tag                 Description            Shells   Functions and Types
 ---------------- ------------------------------  ------  ---------------------
 O                        aug-cc-pvdz                9       23   4s3p2d
 H                        aug-cc-pvdz                5        9   3s2p




 Summary of "ao basis" -> "ao basis" (spherical)
 ------------------------------------------------------------------------------
       Tag                 Description            Shells   Functions and Types
 ---------------- ------------------------------  ------  ---------------------
 O                        aug-cc-pvdz                9       23   4s3p2d
 H                        aug-cc-pvdz                5        9   3s2p


      Symmetry analysis of basis
      --------------------------

        a1         18
        a2          4
        b1         12
        b2          7

  int_init: cando_txs set to always be  F
  Caching 1-el integrals 

            General Information
            -------------------
          SCF calculation type: DFT
          Wavefunction type:  closed shell.
          No. of atoms     :     3
          No. of electrons :    10
           Alpha electrons :     5
            Beta electrons :     5
          Charge           :     0
          Spin multiplicity:     1
          Use of symmetry is: on ; symmetry adaption is: on 
          Maximum number of iterations: 100
          This is a Direct SCF calculation.
          AO basis - number of functions:    41
                     number of shells:    19
          Convergence on energy requested:  1.00D-06
          Convergence on density requested:  1.00D-05
          Convergence on gradient requested:  5.00D-04

              XC Information
              --------------
                        HSE03 Method XC Functional
                     Hartree-Fock (Exact) Exchange  0.250          
          PerdewBurkeErnzerhof Exchange Functional  1.000          
                     CAM-PBE96 Exchange Functional -0.250          
            Perdew 1991 LDA Correlation Functional  1.000 local    
           PerdewBurkeErnz. Correlation Functional  1.000 non-local

           Range-Separation Parameters        
           ---------------------------
           Alpha           :  0.00
           Beta            :  1.00
           Gamma           :  0.33
           Short-Range HF  :     T

             Grid Information
             ----------------
          Grid used for XC integration:  medium    
          Radial quadrature: Mura-Knowles        
          Angular quadrature: Lebedev. 
          Tag              B.-S. Rad. Rad. Pts. Rad. Cut. Ang. Pts.
          ---              ---------- --------- --------- ---------
          O                   0.60       49           9.0       434
          H                   0.35       45          11.0       434
          Grid pruning is: on 
          Number of quadrature shells:    94
          Spatial weights used:  Erf1

          Convergence Information
          -----------------------
          Convergence aids based upon iterative change in 
          total energy or number of iterations. 
          Levelshifting, if invoked, occurs when the 
          HOMO/LUMO gap drops below (HL_TOL):  1.00D-02
          DIIS, if invoked, will attempt to extrapolate 
          using up to (NFOCK): 10 stored Fock matrices.

                    Damping( 0%)  Levelshifting(0.5)       DIIS
                  --------------- ------------------- ---------------
          dE  on:    start            ASAP                start   
          dE off:    2 iters        100 iters           100 iters 


      Screening Tolerance Information
      -------------------------------
          Density screening/tol_rho:  1.00D-10
          AO Gaussian exp screening on grid/accAOfunc:  14
          CD Gaussian exp screening on grid/accCDfunc:  20
          XC Gaussian exp screening on grid/accXCfunc:  20
          Schwarz screening/accCoul:  1.00D-08


      Superposition of Atomic Density Guess
      -------------------------------------

 Sum of atomic energies:         -75.76548395

      Non-variational initial energy
      ------------------------------

 Total energy =     -75.929554
 1-e energy   =    -121.647436
 2-e energy   =      36.525787
 HOMO         =      -0.482989
 LUMO         =       0.012026


      Symmetry analysis of molecular orbitals - initial
      -------------------------------------------------

  Numbering of irreducible representations: 

     1 a1          2 a2          3 b1          4 b2      

  Orbital symmetries:

     1 a1          2 a1          3 b1          4 a1          5 b2      
     6 a1          7 b1          8 a1          9 b2         10 a1      
    11 b1         12 b1         13 a1         14 a2         15 a1      

   Time after variat. SCF:      0.1
   Time prior to 1st pass:      0.1

 Grid_pts file          = ./h2o-hse.gridpts.0
 Record size in doubles =  12289        No. of grid_pts per rec  =   3070
 Max. records in memory =      5        Max. recs in file   = 253312716


           Memory utilization after 1st SCF pass: 
           Heap Space remaining (MW):       51.75            51749840
          Stack Space remaining (MW):       86.25            86246804

   convergence    iter        energy       DeltaE   RMS-Dens  Diis-err    time
 ---------------- ----- ----------------- --------- --------- ---------  ------
 d= 0,ls=0.0,diis     1    -76.3490530113 -8.55D+01  1.78D-02  3.68D-01     0.2
 d= 0,ls=0.0,diis     2    -76.3069469769  4.21D-02  9.56D-03  8.34D-01     0.2
 d= 0,ls=0.0,diis     3    -76.3867694674 -7.98D-02  1.14D-03  1.32D-02     0.3
 d= 0,ls=0.0,diis     4    -76.3880105295 -1.24D-03  1.28D-04  1.83D-04     0.4
 d= 0,ls=0.0,diis     5    -76.3880283955 -1.79D-05  7.08D-06  1.95D-07     0.5
 d= 0,ls=0.0,diis     6    -76.3880284130 -1.74D-08  1.29D-06  8.12D-09     0.6


         Total DFT energy =      -76.388028412979
      One electron energy =     -122.953231840184
           Coulomb energy =       46.645234785933
    Exchange-Corr. energy =       -9.272126027385
 Nuclear repulsion energy =        9.192094668657

 Numeric. integr. density =        9.999999253420

     Total iterative time =      0.5s



                  Occupations of the irreducible representations
                  ----------------------------------------------

                     irrep           alpha         beta
                     --------     --------     --------
                     a1                3.0          3.0
                     a2                0.0          0.0
                     b1                1.0          1.0
                     b2                1.0          1.0


                       DFT Final Molecular Orbital Analysis
                       ------------------------------------

 Vector    1  Occ=2.000000D+00  E=-1.918943D+01  Symmetry=a1
              MO Center= -2.6D-17,  3.1D-22,  1.2D-01, r^2= 1.5D-02
   Bfn.  Coefficient  Atom+Function         Bfn.  Coefficient  Atom+Function  
  ----- ------------  ---------------      ----- ------------  ---------------
     1      1.004051  1 O  s          

 Vector    2  Occ=2.000000D+00  E=-1.003108D+00  Symmetry=a1
              MO Center=  3.9D-16,  4.2D-17, -7.8D-02, r^2= 4.9D-01
   Bfn.  Coefficient  Atom+Function         Bfn.  Coefficient  Atom+Function  
  ----- ------------  ---------------      ----- ------------  ---------------
     2      0.448033  1 O  s                  3      0.360075  1 O  s          
    24      0.216486  2 H  s                 33      0.216486  3 H  s          
     7     -0.108414  1 O  pz                 4      0.066317  1 O  s          
    27     -0.037468  2 H  px                36      0.037468  3 H  px         
    25     -0.032321  2 H  s                 34     -0.032321  3 H  s          

 Vector    3  Occ=2.000000D+00  E=-5.131206D-01  Symmetry=b1
              MO Center= -1.8D-16,  2.7D-31, -9.5D-02, r^2= 7.7D-01
   Bfn.  Coefficient  Atom+Function         Bfn.  Coefficient  Atom+Function  
  ----- ------------  ---------------      ----- ------------  ---------------
     5      0.512438  1 O  px                24      0.364526  2 H  s          
    33     -0.364526  3 H  s                  8      0.153854  1 O  px         
    25      0.114499  2 H  s                 34     -0.114499  3 H  s          
    22     -0.041838  1 O  d  1              29      0.032463  2 H  pz         
    38     -0.032463  3 H  pz                17      0.025088  1 O  d  1       

 Vector    4  Occ=2.000000D+00  E=-3.720382D-01  Symmetry=a1
              MO Center= -4.3D-16,  4.7D-16,  1.8D-01, r^2= 7.4D-01
   Bfn.  Coefficient  Atom+Function         Bfn.  Coefficient  Atom+Function  
  ----- ------------  ---------------      ----- ------------  ---------------
     7      0.550473  1 O  pz                 3      0.337274  1 O  s          
    10      0.296574  1 O  pz                24     -0.212396  2 H  s          
    33     -0.212396  3 H  s                  2      0.167071  1 O  s          
     4      0.097089  1 O  s                 25     -0.068330  2 H  s          
    34     -0.068330  3 H  s                 13      0.047292  1 O  pz         

 Vector    5  Occ=2.000000D+00  E=-2.933974D-01  Symmetry=b2
              MO Center=  9.2D-17, -1.1D-15,  7.3D-02, r^2= 7.1D-01
   Bfn.  Coefficient  Atom+Function         Bfn.  Coefficient  Atom+Function  
  ----- ------------  ---------------      ----- ------------  ---------------
     6      0.631847  1 O  py                 9      0.424116  1 O  py         
    12      0.087331  1 O  py                28      0.028339  2 H  py         
    37      0.028339  3 H  py         

 Vector    6  Occ=0.000000D+00  E=-2.916630D-02  Symmetry=a1
              MO Center= -2.2D-17,  1.4D-16, -7.6D-01, r^2= 7.0D+00
   Bfn.  Coefficient  Atom+Function         Bfn.  Coefficient  Atom+Function  
  ----- ------------  ---------------      ----- ------------  ---------------
    26      0.513958  2 H  s                 35      0.513958  3 H  s          
     4     -0.349739  1 O  s                  3     -0.254071  1 O  s          
    25      0.226541  2 H  s                 34      0.226541  3 H  s          
     7      0.150037  1 O  pz                10      0.135767  1 O  pz         
     2     -0.129537  1 O  s                 24      0.056666  2 H  s          

 Vector    7  Occ=0.000000D+00  E= 2.223504D-02  Symmetry=b1
              MO Center=  4.6D-16, -7.1D-31, -7.2D-01, r^2= 1.2D+01
   Bfn.  Coefficient  Atom+Function         Bfn.  Coefficient  Atom+Function  
  ----- ------------  ---------------      ----- ------------  ---------------
    26      2.320519  2 H  s                 35     -2.320519  3 H  s          
    11     -0.431319  1 O  px                25      0.383143  2 H  s          
    34     -0.383143  3 H  s                  5     -0.171281  1 O  px         
     8     -0.172065  1 O  px                30      0.026370  2 H  px         
    39      0.026370  3 H  px         

 Vector    8  Occ=0.000000D+00  E= 9.639698D-02  Symmetry=a1
              MO Center= -2.0D-15, -4.7D-18,  4.2D-01, r^2= 9.2D+00
   Bfn.  Coefficient  Atom+Function         Bfn.  Coefficient  Atom+Function  
  ----- ------------  ---------------      ----- ------------  ---------------
     4      3.194755  1 O  s                 13     -1.453763  1 O  pz         
    25     -1.111969  2 H  s                 34     -1.111969  3 H  s          
    26     -0.775483  2 H  s                 35     -0.775483  3 H  s          
    30      0.272074  2 H  px                39     -0.272074  3 H  px         
     7      0.245553  1 O  pz                 3      0.228184  1 O  s          

 Vector    9  Occ=0.000000D+00  E= 1.118800D-01  Symmetry=b2
              MO Center=  4.1D-15,  4.2D-15,  2.7D-01, r^2= 6.0D+00
   Bfn.  Coefficient  Atom+Function         Bfn.  Coefficient  Atom+Function  
  ----- ------------  ---------------      ----- ------------  ---------------
    12      1.292650  1 O  py                 9     -0.273187  1 O  py         
     6     -0.238175  1 O  py                31     -0.156999  2 H  py         
    40     -0.156999  3 H  py                20     -0.036208  1 O  d -1       

 Vector   10  Occ=0.000000D+00  E= 1.254075D-01  Symmetry=a1
              MO Center= -2.0D-15, -5.9D-15, -3.7D-01, r^2= 8.0D+00
   Bfn.  Coefficient  Atom+Function         Bfn.  Coefficient  Atom+Function  
  ----- ------------  ---------------      ----- ------------  ---------------
     4      1.464362  1 O  s                 13      0.820905  1 O  pz         
    26     -0.641149  2 H  s                 35     -0.641149  3 H  s          
    30      0.313439  2 H  px                39     -0.313439  3 H  px         
    32     -0.278327  2 H  pz                41     -0.278327  3 H  pz         
     3     -0.226095  1 O  s                 25      0.213765  2 H  s          

 Vector   11  Occ=0.000000D+00  E= 1.448999D-01  Symmetry=b1
              MO Center= -3.1D-16,  1.6D-29, -7.9D-01, r^2= 8.7D+00
   Bfn.  Coefficient  Atom+Function         Bfn.  Coefficient  Atom+Function  
  ----- ------------  ---------------      ----- ------------  ---------------
    26      2.491021  2 H  s                 35     -2.491021  3 H  s          
    11     -1.247608  1 O  px                25      0.573032  2 H  s          
    34     -0.573032  3 H  s                 32      0.535915  2 H  pz         
    41     -0.535915  3 H  pz                30     -0.497309  2 H  px         
    39     -0.497309  3 H  px                 5      0.340748  1 O  px         

 Vector   12  Occ=0.000000D+00  E= 1.717655D-01  Symmetry=b1
              MO Center=  4.2D-16,  8.6D-31,  5.2D-01, r^2= 7.1D+00
   Bfn.  Coefficient  Atom+Function         Bfn.  Coefficient  Atom+Function  
  ----- ------------  ---------------      ----- ------------  ---------------
    11      2.688579  1 O  px                25     -2.224977  2 H  s          
    34      2.224977  3 H  s                 26     -1.899768  2 H  s          
    35      1.899768  3 H  s                  8      0.291760  1 O  px         
    24     -0.182283  2 H  s                 33      0.182283  3 H  s          
    30      0.152357  2 H  px                39      0.152357  3 H  px         

 Vector   13  Occ=0.000000D+00  E= 2.144041D-01  Symmetry=a1
              MO Center=  6.3D-16,  1.2D-15, -1.5D-01, r^2= 4.9D+00
   Bfn.  Coefficient  Atom+Function         Bfn.  Coefficient  Atom+Function  
  ----- ------------  ---------------      ----- ------------  ---------------
     4      4.675802  1 O  s                 25     -2.261728  2 H  s          
    34     -2.261728  3 H  s                 13     -0.587501  1 O  pz         
    32     -0.498895  2 H  pz                41     -0.498895  3 H  pz         
    26     -0.404818  2 H  s                 35     -0.404818  3 H  s          
    30     -0.285305  2 H  px                39      0.285305  3 H  px         

 Vector   14  Occ=0.000000D+00  E= 2.668160D-01  Symmetry=a2
              MO Center= -4.5D-15, -5.3D-31, -5.0D-01, r^2= 3.8D+00
   Bfn.  Coefficient  Atom+Function         Bfn.  Coefficient  Atom+Function  
  ----- ------------  ---------------      ----- ------------  ---------------
    31      1.099623  2 H  py                40     -1.099623  3 H  py         
    19     -0.077447  1 O  d -2              14      0.035728  1 O  d -2       

 Vector   15  Occ=0.000000D+00  E= 2.814704D-01  Symmetry=a1
              MO Center=  7.5D-15,  1.3D-15, -4.4D-02, r^2= 5.2D+00
   Bfn.  Coefficient  Atom+Function         Bfn.  Coefficient  Atom+Function  
  ----- ------------  ---------------      ----- ------------  ---------------
     4      4.648227  1 O  s                 25     -2.352550  2 H  s          
    34     -2.352550  3 H  s                 13     -1.976692  1 O  pz         
    10     -0.685498  1 O  pz                32      0.639985  2 H  pz         
    41      0.639985  3 H  pz                30      0.393003  2 H  px         
    39     -0.393003  3 H  px                26     -0.375768  2 H  s          

 Vector   16  Occ=0.000000D+00  E= 3.095581D-01  Symmetry=b2
              MO Center=  1.9D-17,  1.6D-16, -3.2D-01, r^2= 4.4D+00
   Bfn.  Coefficient  Atom+Function         Bfn.  Coefficient  Atom+Function  
  ----- ------------  ---------------      ----- ------------  ---------------
    12      1.276960  1 O  py                31     -1.173628  2 H  py         
    40     -1.173628  3 H  py                 9      0.577151  1 O  py         
     6      0.165488  1 O  py                20     -0.025163  1 O  d -1       

 Vector   17  Occ=0.000000D+00  E= 4.305426D-01  Symmetry=b1
              MO Center=  8.1D-15, -2.6D-17, -3.8D-01, r^2= 5.4D+00
   Bfn.  Coefficient  Atom+Function         Bfn.  Coefficient  Atom+Function  
  ----- ------------  ---------------      ----- ------------  ---------------
    11      2.279473  1 O  px                30     -2.011597  2 H  px         
    39     -2.011597  3 H  px                32     -1.186923  2 H  pz         
    41      1.186923  3 H  pz                26     -1.035727  2 H  s          
    35      1.035727  3 H  s                 25      0.723895  2 H  s          
    34     -0.723895  3 H  s                  8      0.235300  1 O  px         

 Vector   18  Occ=0.000000D+00  E= 4.930711D-01  Symmetry=a1
              MO Center= -4.5D-15,  5.6D-17, -6.4D-01, r^2= 5.0D+00
   Bfn.  Coefficient  Atom+Function         Bfn.  Coefficient  Atom+Function  
  ----- ------------  ---------------      ----- ------------  ---------------
     4      5.324628  1 O  s                 25     -2.896893  2 H  s          
    34     -2.896893  3 H  s                  3      2.474279  1 O  s          
    30      1.303419  2 H  px                39     -1.303419  3 H  px         
    32     -1.146105  2 H  pz                41     -1.146105  3 H  pz         
    26     -0.602677  2 H  s                 35     -0.602677  3 H  s          

 Vector   19  Occ=0.000000D+00  E= 5.145795D-01  Symmetry=b1
              MO Center= -2.3D-14,  1.8D-29, -4.7D-01, r^2= 5.1D+00
   Bfn.  Coefficient  Atom+Function         Bfn.  Coefficient  Atom+Function  
  ----- ------------  ---------------      ----- ------------  ---------------
    25      6.980455  2 H  s                 34     -6.980455  3 H  s          
    30     -3.085218  2 H  px                39     -3.085218  3 H  px         
    11     -1.892739  1 O  px                32      1.498875  2 H  pz         
    41     -1.498875  3 H  pz                26      1.435030  2 H  s          
    35     -1.435030  3 H  s                  8     -1.369750  1 O  px         

 Vector   20  Occ=0.000000D+00  E= 6.089279D-01  Symmetry=b1
              MO Center= -3.4D-17, -1.7D-31, -7.1D-02, r^2= 3.7D+00
   Bfn.  Coefficient  Atom+Function         Bfn.  Coefficient  Atom+Function  
  ----- ------------  ---------------      ----- ------------  ---------------
    25      5.458074  2 H  s                 34     -5.458074  3 H  s          
    11     -2.079304  1 O  px                30     -1.402214  2 H  px         
    39     -1.402214  3 H  px                 8     -0.848667  1 O  px         
    26      0.658414  2 H  s                 35     -0.658414  3 H  s          
    22     -0.640857  1 O  d  1              32      0.427022  2 H  pz         

 Vector   21  Occ=0.000000D+00  E= 7.226533D-01  Symmetry=a1
              MO Center=  1.1D-15,  4.0D-15, -2.6D-01, r^2= 3.0D+00
   Bfn.  Coefficient  Atom+Function         Bfn.  Coefficient  Atom+Function  
  ----- ------------  ---------------      ----- ------------  ---------------
     4      5.729530  1 O  s                 25     -3.826076  2 H  s          
    34     -3.826076  3 H  s                 13     -1.421942  1 O  pz         
     3      1.225475  1 O  s                 23      0.680744  1 O  d  2       
    24      0.539657  2 H  s                 33      0.539657  3 H  s          
    32     -0.411928  2 H  pz                41     -0.411928  3 H  pz         

 Vector   22  Occ=0.000000D+00  E= 8.853168D-01  Symmetry=b2
              MO Center= -1.4D-14,  5.5D-15,  4.1D-01, r^2= 2.0D+00
   Bfn.  Coefficient  Atom+Function         Bfn.  Coefficient  Atom+Function  
  ----- ------------  ---------------      ----- ------------  ---------------
    20      1.088569  1 O  d -1              12     -0.796780  1 O  py         
    31      0.596851  2 H  py                40      0.596851  3 H  py         
     6     -0.243502  1 O  py                 9      0.048321  1 O  py         

 Vector   23  Occ=0.000000D+00  E= 8.979279D-01  Symmetry=a1
              MO Center= -8.2D-15, -1.2D-15,  4.1D-01, r^2= 2.1D+00
   Bfn.  Coefficient  Atom+Function         Bfn.  Coefficient  Atom+Function  
  ----- ------------  ---------------      ----- ------------  ---------------
     4      1.099626  1 O  s                 21     -1.102398  1 O  d  0       
    25     -0.766099  2 H  s                 34     -0.766099  3 H  s          
    32     -0.720987  2 H  pz                41     -0.720987  3 H  pz         
     3      0.639122  1 O  s                 13      0.525877  1 O  pz         
     7      0.162823  1 O  pz                10     -0.163408  1 O  pz         

 Vector   24  Occ=0.000000D+00  E= 9.329564D-01  Symmetry=a2
              MO Center=  1.4D-14, -2.2D-15, -3.1D-02, r^2= 2.1D+00
   Bfn.  Coefficient  Atom+Function         Bfn.  Coefficient  Atom+Function  
  ----- ------------  ---------------      ----- ------------  ---------------
    19      1.215561  1 O  d -2              31     -0.789749  2 H  py         
    40      0.789749  3 H  py                28      0.048125  2 H  py         
    37     -0.048125  3 H  py         

 Vector   25  Occ=0.000000D+00  E= 1.049993D+00  Symmetry=a1
              MO Center= -8.3D-15, -8.2D-16, -1.6D-01, r^2= 2.1D+00
   Bfn.  Coefficient  Atom+Function         Bfn.  Coefficient  Atom+Function  
  ----- ------------  ---------------      ----- ------------  ---------------
     4      3.636559  1 O  s                 25     -2.608160  2 H  s          
    34     -2.608160  3 H  s                  3      1.550197  1 O  s          
    10     -1.251231  1 O  pz                13     -0.816642  1 O  pz         
    23     -0.768567  1 O  d  2              30      0.739925  2 H  px         
    39     -0.739925  3 H  px                 7      0.561342  1 O  pz         

 Vector   26  Occ=0.000000D+00  E= 1.180265D+00  Symmetry=b2
              MO Center= -6.6D-15, -8.7D-15, -2.1D-01, r^2= 1.6D+00
   Bfn.  Coefficient  Atom+Function         Bfn.  Coefficient  Atom+Function  
  ----- ------------  ---------------      ----- ------------  ---------------
     9      1.635849  1 O  py                 6     -0.952751  1 O  py         
    31     -0.636218  2 H  py                40     -0.636218  3 H  py         
    20     -0.445290  1 O  d -1              12      0.173870  1 O  py         

 Vector   27  Occ=0.000000D+00  E= 1.207578D+00  Symmetry=b1
              MO Center=  1.9D-14,  2.0D-15,  2.6D-01, r^2= 2.1D+00
   Bfn.  Coefficient  Atom+Function         Bfn.  Coefficient  Atom+Function  
  ----- ------------  ---------------      ----- ------------  ---------------
    25      4.834198  2 H  s                 34     -4.834198  3 H  s          
     8     -2.051284  1 O  px                30     -1.370436  2 H  px         
    39     -1.370436  3 H  px                32      1.181395  2 H  pz         
    41     -1.181395  3 H  pz                11     -1.173494  1 O  px         
    22      0.781930  1 O  d  1               5      0.595196  1 O  px         

 Vector   28  Occ=0.000000D+00  E= 1.296513D+00  Symmetry=a1
              MO Center= -2.3D-14,  6.2D-16,  2.4D-01, r^2= 1.8D+00
   Bfn.  Coefficient  Atom+Function         Bfn.  Coefficient  Atom+Function  
  ----- ------------  ---------------      ----- ------------  ---------------
    10     -1.590514  1 O  pz                 4      1.518346  1 O  s          
    24     -0.876266  2 H  s                 33     -0.876266  3 H  s          
    23      0.807050  1 O  d  2               7      0.660419  1 O  pz         
     2      0.514051  1 O  s                  3     -0.427044  1 O  s          
    25     -0.337420  2 H  s                 34     -0.337420  3 H  s          

 Vector   29  Occ=0.000000D+00  E= 1.716496D+00  Symmetry=b1
              MO Center=  4.9D-15,  2.8D-18, -3.0D-01, r^2= 1.8D+00
   Bfn.  Coefficient  Atom+Function         Bfn.  Coefficient  Atom+Function  
  ----- ------------  ---------------      ----- ------------  ---------------
    11      1.069523  1 O  px                25     -0.793044  2 H  s          
    34      0.793044  3 H  s                  8      0.760288  1 O  px         
    32     -0.665534  2 H  pz                41      0.665534  3 H  pz         
    29      0.659284  2 H  pz                38     -0.659284  3 H  pz         
    22      0.655726  1 O  d  1              27      0.498662  2 H  px         

 Vector   30  Occ=0.000000D+00  E= 1.730860D+00  Symmetry=a2
              MO Center=  5.7D-14, -2.6D-17, -2.6D-01, r^2= 1.5D+00
   Bfn.  Coefficient  Atom+Function         Bfn.  Coefficient  Atom+Function  
  ----- ------------  ---------------      ----- ------------  ---------------
    28     -0.947648  2 H  py                37      0.947648  3 H  py         
    19      0.883080  1 O  d -2              31      0.089636  2 H  py         
    40     -0.089636  3 H  py                14     -0.070410  1 O  d -2       

 Vector   31  Occ=0.000000D+00  E= 1.824930D+00  Symmetry=b2
              MO Center= -5.1D-14,  4.3D-17, -4.1D-01, r^2= 1.4D+00
   Bfn.  Coefficient  Atom+Function         Bfn.  Coefficient  Atom+Function  
  ----- ------------  ---------------      ----- ------------  ---------------
    28      0.993592  2 H  py                37      0.993592  3 H  py         
     9     -0.790060  1 O  py                20      0.704964  1 O  d -1       
    12      0.178061  1 O  py                31     -0.087519  2 H  py         
    40     -0.087519  3 H  py                15     -0.061076  1 O  d -1       

 Vector   32  Occ=0.000000D+00  E= 2.092607D+00  Symmetry=a1
              MO Center= -6.3D-16,  9.0D-17, -2.1D-01, r^2= 1.6D+00
   Bfn.  Coefficient  Atom+Function         Bfn.  Coefficient  Atom+Function  
  ----- ------------  ---------------      ----- ------------  ---------------
     3      1.712188  1 O  s                  4      1.318707  1 O  s          
    21     -1.295559  1 O  d  0              25     -1.061116  2 H  s          
    34     -1.061116  3 H  s                 29     -0.963635  2 H  pz         
    38     -0.963635  3 H  pz                23      0.740818  1 O  d  2       
     2     -0.637747  1 O  s                 27     -0.637509  2 H  px         

 Vector   33  Occ=0.000000D+00  E= 2.130520D+00  Symmetry=b1
              MO Center=  1.4D-15,  1.5D-16, -3.5D-01, r^2= 1.4D+00
   Bfn.  Coefficient  Atom+Function         Bfn.  Coefficient  Atom+Function  
  ----- ------------  ---------------      ----- ------------  ---------------
    25      2.615395  2 H  s                 34     -2.615395  3 H  s          
     8     -1.902439  1 O  px                30     -1.223978  2 H  px         
    39     -1.223978  3 H  px                 5      0.924360  1 O  px         
    27      0.706793  2 H  px                36      0.706793  3 H  px         
    24      0.630952  2 H  s                 33     -0.630952  3 H  s          

 Vector   34  Occ=0.000000D+00  E= 2.274010D+00  Symmetry=a1
              MO Center=  3.4D-15,  1.7D-17, -4.0D-01, r^2= 1.4D+00
   Bfn.  Coefficient  Atom+Function         Bfn.  Coefficient  Atom+Function  
  ----- ------------  ---------------      ----- ------------  ---------------
     3      2.057334  1 O  s                  2     -1.619103  1 O  s          
     4      1.423949  1 O  s                 25     -1.014226  2 H  s          
    34     -1.014226  3 H  s                  1     -0.721051  1 O  s          
    30      0.595886  2 H  px                39     -0.595886  3 H  px         
    29      0.577754  2 H  pz                38      0.577754  3 H  pz         

 Vector   35  Occ=0.000000D+00  E= 2.385956D+00  Symmetry=b1
              MO Center=  1.4D-14,  8.4D-17, -2.2D-01, r^2= 1.7D+00
   Bfn.  Coefficient  Atom+Function         Bfn.  Coefficient  Atom+Function  
  ----- ------------  ---------------      ----- ------------  ---------------
    25      4.528277  2 H  s                 34     -4.528277  3 H  s          
     8     -3.819000  1 O  px                24      2.186047  2 H  s          
    33     -2.186047  3 H  s                 22     -1.978682  1 O  d  1       
    30     -1.332729  2 H  px                39     -1.332729  3 H  px         
    11     -1.218258  1 O  px                29      0.626902  2 H  pz         

 Vector   36  Occ=0.000000D+00  E= 2.630712D+00  Symmetry=a1
              MO Center= -1.0D-14,  3.7D-17, -1.4D-01, r^2= 1.7D+00
   Bfn.  Coefficient  Atom+Function         Bfn.  Coefficient  Atom+Function  
  ----- ------------  ---------------      ----- ------------  ---------------
     3      5.737062  1 O  s                  4      4.510384  1 O  s          
    25     -3.261324  2 H  s                 34     -3.261324  3 H  s          
    10     -2.386230  1 O  pz                24     -1.676880  2 H  s          
    33     -1.676880  3 H  s                  2     -1.399700  1 O  s          
    27      0.903223  2 H  px                36     -0.903223  3 H  px         

 Vector   37  Occ=0.000000D+00  E= 3.261472D+00  Symmetry=b2
              MO Center=  7.7D-16,  6.9D-17,  1.3D-01, r^2= 7.5D-01
   Bfn.  Coefficient  Atom+Function         Bfn.  Coefficient  Atom+Function  
  ----- ------------  ---------------      ----- ------------  ---------------
    15      1.193693  1 O  d -1              20     -0.685149  1 O  d -1       
    12      0.323695  1 O  py                31     -0.312915  2 H  py         
    40     -0.312915  3 H  py                 9      0.168794  1 O  py         
    28      0.108358  2 H  py                37      0.108358  3 H  py         
     6     -0.047269  1 O  py         

 Vector   38  Occ=0.000000D+00  E= 3.275585D+00  Symmetry=a1
              MO Center=  3.0D-16,  1.5D-18,  1.3D-01, r^2= 7.7D-01
   Bfn.  Coefficient  Atom+Function         Bfn.  Coefficient  Atom+Function  
  ----- ------------  ---------------      ----- ------------  ---------------
    16      1.194068  1 O  d  0               3      0.660186  1 O  s          
    21     -0.632339  1 O  d  0              32     -0.327102  2 H  pz         
    41     -0.327102  3 H  pz                 4      0.273467  1 O  s          
    13      0.246451  1 O  pz                25     -0.228490  2 H  s          
    34     -0.228490  3 H  s                  2     -0.190488  1 O  s          

 Vector   39  Occ=0.000000D+00  E= 3.288857D+00  Symmetry=a2
              MO Center= -9.6D-16,  1.8D-17,  8.0D-02, r^2= 7.5D-01
   Bfn.  Coefficient  Atom+Function         Bfn.  Coefficient  Atom+Function  
  ----- ------------  ---------------      ----- ------------  ---------------
    14      1.206365  1 O  d -2              19     -0.713751  1 O  d -2       
    31      0.338749  2 H  py                40     -0.338749  3 H  py         
    28     -0.129849  2 H  py                37      0.129849  3 H  py         

 Vector   40  Occ=0.000000D+00  E= 3.601872D+00  Symmetry=a1
              MO Center=  1.4D-14,  1.2D-17, -1.2D-03, r^2= 8.7D-01
   Bfn.  Coefficient  Atom+Function         Bfn.  Coefficient  Atom+Function  
  ----- ------------  ---------------      ----- ------------  ---------------
     3      3.615382  1 O  s                  4      1.686880  1 O  s          
    10     -1.470321  1 O  pz                25     -1.368332  2 H  s          
    34     -1.368332  3 H  s                 24     -1.290246  2 H  s          
    33     -1.290246  3 H  s                 18      1.213267  1 O  d  2       
    27      0.715312  2 H  px                36     -0.715312  3 H  px         

 Vector   41  Occ=0.000000D+00  E= 3.869019D+00  Symmetry=b1
              MO Center= -1.8D-14,  1.9D-18,  3.8D-02, r^2= 8.8D-01
   Bfn.  Coefficient  Atom+Function         Bfn.  Coefficient  Atom+Function  
  ----- ------------  ---------------      ----- ------------  ---------------
    25     -2.533664  2 H  s                 34      2.533664  3 H  s          
     8      2.473720  1 O  px                24     -1.534170  2 H  s          
    33      1.534170  3 H  s                 17      1.329086  1 O  d  1       
    30      0.703436  2 H  px                39      0.703436  3 H  px         
    27      0.680300  2 H  px                36      0.680300  3 H  px         


 center of mass
 --------------
 x =   0.00000000 y =   0.00000000 z =   0.09760123

 moments of inertia (a.u.)
 ------------------
           2.197735387303           0.000000000000           0.000000000000
           0.000000000000           6.322357589609           0.000000000000
           0.000000000000           0.000000000000           4.124622202307

     Multipole analysis of the density
     ---------------------------------

     L   x y z        total         alpha         beta         nuclear
     -   - - -        -----         -----         ----         -------
     0   0 0 0     -0.000000     -5.000000     -5.000000     10.000000

     1   1 0 0      0.000000      0.000000      0.000000      0.000000
     1   0 1 0     -0.000000     -0.000000     -0.000000      0.000000
     1   0 0 1     -0.724553     -0.362277     -0.362277      0.000000

     2   2 0 0     -3.339760     -3.716179     -3.716179      4.092598
     2   1 1 0     -0.000000     -0.000000     -0.000000      0.000000
     2   1 0 1      0.000000      0.000000      0.000000      0.000000
     2   0 2 0     -5.758564     -2.879282     -2.879282      0.000000
     2   0 1 1     -0.000000     -0.000000     -0.000000      0.000000
     2   0 0 2     -4.789317     -3.376849     -3.376849      1.964381


 Task  times  cpu:        0.6s     wall:        0.6s


                                NWChem Input Module
                                -------------------


  pbe96 is a nonlocal functional; adding pw91lda local functional. 

                                 NWChem DFT Module
                                 -----------------




 Summary of "ao basis" -> "ao basis" (spherical)
 ------------------------------------------------------------------------------
       Tag                 Description            Shells   Functions and Types
 ---------------- ------------------------------  ------  ---------------------
 O                        aug-cc-pvdz                9       23   4s3p2d
 H                        aug-cc-pvdz                5        9   3s2p


      Symmetry analysis of basis
      --------------------------

        a1         18
        a2          4
        b1         12
        b2          7

  int_init: cando_txs set to always be  F
  Caching 1-el integrals 

            General Information
            -------------------
          SCF calculation type: DFT
          Wavefunction type:  closed shell.
          No. of atoms     :     3
          No. of electrons :    10
           Alpha electrons :     5
            Beta electrons :     5
          Charge           :     0
          Spin multiplicity:     1
          Use of symmetry is: on ; symmetry adaption is: on 
          Maximum number of iterations: 100
          This is a Direct SCF calculation.
          AO basis - number of functions:    41
                     number of shells:    19
          Convergence on energy requested:  1.00D-06
          Convergence on density requested:  1.00D-05
          Convergence on gradient requested:  5.00D-04

              XC Information
              --------------
                     Hartree-Fock (Exact) Exchange  0.250          
          PerdewBurkeErnzerhof Exchange Functional  1.000          
                     CAM-PBE96 Exchange Functional -0.250          
            Perdew 1991 LDA Correlation Functional  1.000 local    
           PerdewBurkeErnz. Correlation Functional  1.000 non-local

           Range-Separation Parameters        
           ---------------------------
           Alpha           :  0.00
           Beta            :  1.00
           Gamma           :  0.33
           Short-Range HF  :     T

             Grid Information
             ----------------
          Grid used for XC integration:  medium    
          Radial quadrature: Mura-Knowles        
          Angular quadrature: Lebedev. 
          Tag              B.-S. Rad. Rad. Pts. Rad. Cut. Ang. Pts.
          ---              ---------- --------- --------- ---------
          O                   0.60       49           9.0       434
          H                   0.35       45          11.0       434
          Grid pruning is: on 
          Number of quadrature shells:    94
          Spatial weights used:  Erf1

          Convergence Information
          -----------------------
          Convergence aids based upon iterative change in 
          total energy or number of iterations. 
          Levelshifting, if invoked, occurs when the 
          HOMO/LUMO gap drops below (HL_TOL):  1.00D-02
          DIIS, if invoked, will attempt to extrapolate 
          using up to (NFOCK): 10 stored Fock matrices.

                    Damping( 0%)  Levelshifting(0.5)       DIIS
                  --------------- ------------------- ---------------
          dE  on:    start            ASAP                start   
          dE off:    2 iters        100 iters           100 iters 


      Screening Tolerance Information
      -------------------------------
          Density screening/tol_rho:  1.00D-10
          AO Gaussian exp screening on grid/accAOfunc:  14
          CD Gaussian exp screening on grid/accCDfunc:  20
          XC Gaussian exp screening on grid/accXCfunc:  20
          Schwarz screening/accCoul:  1.00D-08


 Loading old vectors from job with title :




      Symmetry analysis of molecular orbitals - initial
      -------------------------------------------------

  Numbering of irreducible representations: 

     1 a1          2 a2          3 b1          4 b2      

  Orbital symmetries:

     1 a1          2 a1          3 b1          4 a1          5 b2      
     6 a1          7 b1          8 a1          9 b2         10 a1      
    11 b1         12 b1         13 a1         14 a2         15 a1      

   Time after variat. SCF:      0.6
   Time prior to 1st pass:      0.6

 Grid_pts file          = ./h2o-hse.gridpts.0
 Record size in doubles =  12289        No. of grid_pts per rec  =   3070
 Max. records in memory =      5        Max. recs in file   = 253312716


           Memory utilization after 1st SCF pass: 
           Heap Space remaining (MW):       51.75            51749840
          Stack Space remaining (MW):       86.25            86246804

   convergence    iter        energy       DeltaE   RMS-Dens  Diis-err    time
 ---------------- ----- ----------------- --------- --------- ---------  ------
 d= 0,ls=0.0,diis     1    -76.3880284138 -8.56D+01  5.87D-08  4.69D-12     0.7
 d= 0,ls=0.0,diis     2    -76.3880284138  8.10D-13  3.00D-08  8.22D-12     0.8


         Total DFT energy =      -76.388028413827
      One electron energy =     -122.953432689871
           Coulomb energy =       46.645462154588
    Exchange-Corr. energy =       -9.272152547201
 Nuclear repulsion energy =        9.192094668657

 Numeric. integr. density =        9.999999253378

     Total iterative time =      0.2s



                  Occupations of the irreducible representations
                  ----------------------------------------------

                     irrep           alpha         beta
                     --------     --------     --------
                     a1                3.0          3.0
                     a2                0.0          0.0
                     b1                1.0          1.0
                     b2                1.0          1.0


                       DFT Final Molecular Orbital Analysis
                       ------------------------------------

 Vector    1  Occ=2.000000D+00  E=-1.918943D+01  Symmetry=a1
              MO Center=  1.1D-17,  3.1D-22,  1.2D-01, r^2= 1.5D-02
   Bfn.  Coefficient  Atom+Function         Bfn.  Coefficient  Atom+Function  
  ----- ------------  ---------------      ----- ------------  ---------------
     1      1.004051  1 O  s          

 Vector    2  Occ=2.000000D+00  E=-1.003109D+00  Symmetry=a1
              MO Center= -2.3D-16, -1.3D-16, -7.8D-02, r^2= 4.9D-01
   Bfn.  Coefficient  Atom+Function         Bfn.  Coefficient  Atom+Function  
  ----- ------------  ---------------      ----- ------------  ---------------
     2      0.448033  1 O  s                  3      0.360075  1 O  s          
    24      0.216486  2 H  s                 33      0.216486  3 H  s          
     7     -0.108414  1 O  pz                 4      0.066317  1 O  s          
    27     -0.037468  2 H  px                36      0.037468  3 H  px         
    25     -0.032321  2 H  s                 34     -0.032321  3 H  s          

 Vector    3  Occ=2.000000D+00  E=-5.131212D-01  Symmetry=b1
              MO Center=  2.1D-16,  2.3D-31, -9.5D-02, r^2= 7.7D-01
   Bfn.  Coefficient  Atom+Function         Bfn.  Coefficient  Atom+Function  
  ----- ------------  ---------------      ----- ------------  ---------------
     5      0.512438  1 O  px                24      0.364527  2 H  s          
    33     -0.364527  3 H  s                  8      0.153854  1 O  px         
    25      0.114499  2 H  s                 34     -0.114499  3 H  s          
    22     -0.041838  1 O  d  1              29      0.032463  2 H  pz         
    38     -0.032463  3 H  pz                17      0.025088  1 O  d  1       

 Vector    4  Occ=2.000000D+00  E=-3.720387D-01  Symmetry=a1
              MO Center= -4.2D-16,  2.1D-16,  1.8D-01, r^2= 7.4D-01
   Bfn.  Coefficient  Atom+Function         Bfn.  Coefficient  Atom+Function  
  ----- ------------  ---------------      ----- ------------  ---------------
     7      0.550473  1 O  pz                 3      0.337274  1 O  s          
    10      0.296574  1 O  pz                24     -0.212395  2 H  s          
    33     -0.212395  3 H  s                  2      0.167071  1 O  s          
     4      0.097089  1 O  s                 25     -0.068330  2 H  s          
    34     -0.068330  3 H  s                 13      0.047292  1 O  pz         

 Vector    5  Occ=2.000000D+00  E=-2.933980D-01  Symmetry=b2
              MO Center= -1.7D-16, -8.0D-16,  7.3D-02, r^2= 7.1D-01
   Bfn.  Coefficient  Atom+Function         Bfn.  Coefficient  Atom+Function  
  ----- ------------  ---------------      ----- ------------  ---------------
     6      0.631847  1 O  py                 9      0.424116  1 O  py         
    12      0.087331  1 O  py                28      0.028339  2 H  py         
    37      0.028339  3 H  py         

 Vector    6  Occ=0.000000D+00  E=-2.916648D-02  Symmetry=a1
              MO Center= -1.5D-15,  2.2D-15, -7.6D-01, r^2= 7.0D+00
   Bfn.  Coefficient  Atom+Function         Bfn.  Coefficient  Atom+Function  
  ----- ------------  ---------------      ----- ------------  ---------------
    26      0.513957  2 H  s                 35      0.513957  3 H  s          
     4     -0.349737  1 O  s                  3     -0.254071  1 O  s          
    25      0.226541  2 H  s                 34      0.226541  3 H  s          
     7      0.150038  1 O  pz                10      0.135767  1 O  pz         
     2     -0.129537  1 O  s                 24      0.056666  2 H  s          

 Vector    7  Occ=0.000000D+00  E= 2.223501D-02  Symmetry=b1
              MO Center=  2.5D-15, -2.6D-31, -7.2D-01, r^2= 1.2D+01
   Bfn.  Coefficient  Atom+Function         Bfn.  Coefficient  Atom+Function  
  ----- ------------  ---------------      ----- ------------  ---------------
    26      2.320515  2 H  s                 35     -2.320515  3 H  s          
    11     -0.431316  1 O  px                25      0.383141  2 H  s          
    34     -0.383141  3 H  s                  5     -0.171282  1 O  px         
     8     -0.172065  1 O  px                30      0.026371  2 H  px         
    39      0.026371  3 H  px         

 Vector    8  Occ=0.000000D+00  E= 9.639686D-02  Symmetry=a1
              MO Center= -1.5D-14,  1.9D-16,  4.2D-01, r^2= 9.2D+00
   Bfn.  Coefficient  Atom+Function         Bfn.  Coefficient  Atom+Function  
  ----- ------------  ---------------      ----- ------------  ---------------
     4      3.194753  1 O  s                 13     -1.453759  1 O  pz         
    25     -1.111965  2 H  s                 34     -1.111965  3 H  s          
    26     -0.775485  2 H  s                 35     -0.775485  3 H  s          
    30      0.272074  2 H  px                39     -0.272074  3 H  px         
     7      0.245553  1 O  pz                 3      0.228183  1 O  s          

 Vector    9  Occ=0.000000D+00  E= 1.118799D-01  Symmetry=b2
              MO Center= -1.1D-15, -1.6D-14,  2.7D-01, r^2= 6.0D+00
   Bfn.  Coefficient  Atom+Function         Bfn.  Coefficient  Atom+Function  
  ----- ------------  ---------------      ----- ------------  ---------------
    12      1.292650  1 O  py                 9     -0.273187  1 O  py         
     6     -0.238175  1 O  py                31     -0.156998  2 H  py         
    40     -0.156998  3 H  py                20     -0.036208  1 O  d -1       

 Vector   10  Occ=0.000000D+00  E= 1.254074D-01  Symmetry=a1
              MO Center= -9.5D-18,  2.9D-15, -3.7D-01, r^2= 8.0D+00
   Bfn.  Coefficient  Atom+Function         Bfn.  Coefficient  Atom+Function  
  ----- ------------  ---------------      ----- ------------  ---------------
     4      1.464343  1 O  s                 13      0.820911  1 O  pz         
    26     -0.641146  2 H  s                 35     -0.641146  3 H  s          
    30      0.313438  2 H  px                39     -0.313438  3 H  px         
    32     -0.278326  2 H  pz                41     -0.278326  3 H  pz         
     3     -0.226096  1 O  s                 25      0.213773  2 H  s          

 Vector   11  Occ=0.000000D+00  E= 1.448996D-01  Symmetry=b1
              MO Center=  3.9D-14, -1.5D-15, -7.9D-01, r^2= 8.7D+00
   Bfn.  Coefficient  Atom+Function         Bfn.  Coefficient  Atom+Function  
  ----- ------------  ---------------      ----- ------------  ---------------
    26      2.491010  2 H  s                 35     -2.491010  3 H  s          
    11     -1.247588  1 O  px                25      0.573014  2 H  s          
    34     -0.573014  3 H  s                 32      0.535914  2 H  pz         
    41     -0.535914  3 H  pz                30     -0.497307  2 H  px         
    39     -0.497307  3 H  px                 5      0.340749  1 O  px         

 Vector   12  Occ=0.000000D+00  E= 1.717655D-01  Symmetry=b1
              MO Center=  1.8D-14, -3.9D-16,  5.2D-01, r^2= 7.1D+00
   Bfn.  Coefficient  Atom+Function         Bfn.  Coefficient  Atom+Function  
  ----- ------------  ---------------      ----- ------------  ---------------
    11      2.688588  1 O  px                25     -2.224982  2 H  s          
    34      2.224982  3 H  s                 26     -1.899787  2 H  s          
    35      1.899787  3 H  s                  8      0.291759  1 O  px         
    24     -0.182282  2 H  s                 33      0.182282  3 H  s          
    30      0.152362  2 H  px                39      0.152362  3 H  px         

 Vector   13  Occ=0.000000D+00  E= 2.144040D-01  Symmetry=a1
              MO Center= -9.2D-15, -8.3D-15, -1.5D-01, r^2= 4.9D+00
   Bfn.  Coefficient  Atom+Function         Bfn.  Coefficient  Atom+Function  
  ----- ------------  ---------------      ----- ------------  ---------------
     4      4.675798  1 O  s                 25     -2.261724  2 H  s          
    34     -2.261724  3 H  s                 13     -0.587499  1 O  pz         
    32     -0.498895  2 H  pz                41     -0.498895  3 H  pz         
    26     -0.404819  2 H  s                 35     -0.404819  3 H  s          
    30     -0.285305  2 H  px                39      0.285305  3 H  px         

 Vector   14  Occ=0.000000D+00  E= 2.668159D-01  Symmetry=a2
              MO Center=  1.4D-15,  1.9D-15, -5.0D-01, r^2= 3.8D+00
   Bfn.  Coefficient  Atom+Function         Bfn.  Coefficient  Atom+Function  
  ----- ------------  ---------------      ----- ------------  ---------------
    31      1.099623  2 H  py                40     -1.099623  3 H  py         
    19     -0.077447  1 O  d -2              14      0.035728  1 O  d -2       

 Vector   15  Occ=0.000000D+00  E= 2.814701D-01  Symmetry=a1
              MO Center= -1.5D-14,  1.2D-15, -4.4D-02, r^2= 5.2D+00
   Bfn.  Coefficient  Atom+Function         Bfn.  Coefficient  Atom+Function  
  ----- ------------  ---------------      ----- ------------  ---------------
     4      4.648233  1 O  s                 25     -2.352552  2 H  s          
    34     -2.352552  3 H  s                 13     -1.976693  1 O  pz         
    10     -0.685498  1 O  pz                32      0.639984  2 H  pz         
    41      0.639984  3 H  pz                30      0.393003  2 H  px         
    39     -0.393003  3 H  px                26     -0.375769  2 H  s          

 Vector   16  Occ=0.000000D+00  E= 3.095578D-01  Symmetry=b2
              MO Center= -7.9D-18,  1.8D-14, -3.2D-01, r^2= 4.4D+00
   Bfn.  Coefficient  Atom+Function         Bfn.  Coefficient  Atom+Function  
  ----- ------------  ---------------      ----- ------------  ---------------
    12      1.276960  1 O  py                31     -1.173628  2 H  py         
    40     -1.173628  3 H  py                 9      0.577151  1 O  py         
     6      0.165488  1 O  py                20     -0.025163  1 O  d -1       

 Vector   17  Occ=0.000000D+00  E= 4.305425D-01  Symmetry=b1
              MO Center=  1.2D-14,  4.0D-17, -3.8D-01, r^2= 5.4D+00
   Bfn.  Coefficient  Atom+Function         Bfn.  Coefficient  Atom+Function  
  ----- ------------  ---------------      ----- ------------  ---------------
    11      2.279473  1 O  px                30     -2.011598  2 H  px         
    39     -2.011598  3 H  px                32     -1.186922  2 H  pz         
    41      1.186922  3 H  pz                26     -1.035727  2 H  s          
    35      1.035727  3 H  s                 25      0.723897  2 H  s          
    34     -0.723897  3 H  s                  8      0.235299  1 O  px         

 Vector   18  Occ=0.000000D+00  E= 4.930708D-01  Symmetry=a1
              MO Center=  2.7D-14, -5.1D-17, -6.4D-01, r^2= 5.0D+00
   Bfn.  Coefficient  Atom+Function         Bfn.  Coefficient  Atom+Function  
  ----- ------------  ---------------      ----- ------------  ---------------
     4      5.324627  1 O  s                 25     -2.896892  2 H  s          
    34     -2.896892  3 H  s                  3      2.474278  1 O  s          
    30      1.303419  2 H  px                39     -1.303419  3 H  px         
    32     -1.146105  2 H  pz                41     -1.146105  3 H  pz         
    26     -0.602677  2 H  s                 35     -0.602677  3 H  s          

 Vector   19  Occ=0.000000D+00  E= 5.145792D-01  Symmetry=b1
              MO Center= -3.3D-14, -2.2D-16, -4.7D-01, r^2= 5.1D+00
   Bfn.  Coefficient  Atom+Function         Bfn.  Coefficient  Atom+Function  
  ----- ------------  ---------------      ----- ------------  ---------------
    25      6.980447  2 H  s                 34     -6.980447  3 H  s          
    30     -3.085215  2 H  px                39     -3.085215  3 H  px         
    11     -1.892736  1 O  px                32      1.498875  2 H  pz         
    41     -1.498875  3 H  pz                26      1.435031  2 H  s          
    35     -1.435031  3 H  s                  8     -1.369748  1 O  px         

 Vector   20  Occ=0.000000D+00  E= 6.089276D-01  Symmetry=b1
              MO Center= -1.5D-14,  5.5D-30, -7.1D-02, r^2= 3.7D+00
   Bfn.  Coefficient  Atom+Function         Bfn.  Coefficient  Atom+Function  
  ----- ------------  ---------------      ----- ------------  ---------------
    25      5.458085  2 H  s                 34     -5.458085  3 H  s          
    11     -2.079307  1 O  px                30     -1.402219  2 H  px         
    39     -1.402219  3 H  px                 8     -0.848669  1 O  px         
    26      0.658417  2 H  s                 35     -0.658417  3 H  s          
    22     -0.640857  1 O  d  1              32      0.427024  2 H  pz         

 Vector   21  Occ=0.000000D+00  E= 7.226529D-01  Symmetry=a1
              MO Center=  8.7D-15,  8.0D-15, -2.6D-01, r^2= 3.0D+00
   Bfn.  Coefficient  Atom+Function         Bfn.  Coefficient  Atom+Function  
  ----- ------------  ---------------      ----- ------------  ---------------
     4      5.729534  1 O  s                 25     -3.826079  2 H  s          
    34     -3.826079  3 H  s                 13     -1.421943  1 O  pz         
     3      1.225475  1 O  s                 23      0.680744  1 O  d  2       
    24      0.539658  2 H  s                 33      0.539658  3 H  s          
    32     -0.411928  2 H  pz                41     -0.411928  3 H  pz         

 Vector   22  Occ=0.000000D+00  E= 8.853164D-01  Symmetry=b2
              MO Center= -1.4D-14,  1.5D-14,  4.1D-01, r^2= 2.0D+00
   Bfn.  Coefficient  Atom+Function         Bfn.  Coefficient  Atom+Function  
  ----- ------------  ---------------      ----- ------------  ---------------
    20      1.088569  1 O  d -1              12     -0.796780  1 O  py         
    31      0.596852  2 H  py                40      0.596852  3 H  py         
     6     -0.243502  1 O  py                 9      0.048321  1 O  py         

 Vector   23  Occ=0.000000D+00  E= 8.979275D-01  Symmetry=a1
              MO Center= -8.6D-15, -2.5D-14,  4.1D-01, r^2= 2.1D+00
   Bfn.  Coefficient  Atom+Function         Bfn.  Coefficient  Atom+Function  
  ----- ------------  ---------------      ----- ------------  ---------------
     4      1.099624  1 O  s                 21     -1.102398  1 O  d  0       
    25     -0.766097  2 H  s                 34     -0.766097  3 H  s          
    32     -0.720987  2 H  pz                41     -0.720987  3 H  pz         
     3      0.639121  1 O  s                 13      0.525877  1 O  pz         
     7      0.162822  1 O  pz                10     -0.163406  1 O  pz         

 Vector   24  Occ=0.000000D+00  E= 9.329561D-01  Symmetry=a2
              MO Center=  1.6D-14, -1.0D-15, -3.1D-02, r^2= 2.1D+00
   Bfn.  Coefficient  Atom+Function         Bfn.  Coefficient  Atom+Function  
  ----- ------------  ---------------      ----- ------------  ---------------
    19      1.215561  1 O  d -2              31     -0.789749  2 H  py         
    40      0.789749  3 H  py                28      0.048125  2 H  py         
    37     -0.048125  3 H  py         

 Vector   25  Occ=0.000000D+00  E= 1.049993D+00  Symmetry=a1
              MO Center= -2.2D-14,  1.5D-15, -1.6D-01, r^2= 2.1D+00
   Bfn.  Coefficient  Atom+Function         Bfn.  Coefficient  Atom+Function  
  ----- ------------  ---------------      ----- ------------  ---------------
     4      3.636560  1 O  s                 25     -2.608161  2 H  s          
    34     -2.608161  3 H  s                  3      1.550198  1 O  s          
    10     -1.251231  1 O  pz                13     -0.816642  1 O  pz         
    23     -0.768567  1 O  d  2              30      0.739925  2 H  px         
    39     -0.739925  3 H  px                 7      0.561342  1 O  pz         

 Vector   26  Occ=0.000000D+00  E= 1.180264D+00  Symmetry=b2
              MO Center= -8.2D-15,  2.7D-16, -2.1D-01, r^2= 1.6D+00
   Bfn.  Coefficient  Atom+Function         Bfn.  Coefficient  Atom+Function  
  ----- ------------  ---------------      ----- ------------  ---------------
     9      1.635849  1 O  py                 6     -0.952751  1 O  py         
    31     -0.636218  2 H  py                40     -0.636218  3 H  py         
    20     -0.445289  1 O  d -1              12      0.173870  1 O  py         

 Vector   27  Occ=0.000000D+00  E= 1.207578D+00  Symmetry=b1
              MO Center=  9.2D-15,  8.6D-16,  2.6D-01, r^2= 2.1D+00
   Bfn.  Coefficient  Atom+Function         Bfn.  Coefficient  Atom+Function  
  ----- ------------  ---------------      ----- ------------  ---------------
    25      4.834197  2 H  s                 34     -4.834197  3 H  s          
     8     -2.051284  1 O  px                30     -1.370436  2 H  px         
    39     -1.370436  3 H  px                32      1.181395  2 H  pz         
    41     -1.181395  3 H  pz                11     -1.173494  1 O  px         
    22      0.781930  1 O  d  1               5      0.595196  1 O  px         

 Vector   28  Occ=0.000000D+00  E= 1.296513D+00  Symmetry=a1
              MO Center= -1.0D-15,  3.4D-16,  2.4D-01, r^2= 1.8D+00
   Bfn.  Coefficient  Atom+Function         Bfn.  Coefficient  Atom+Function  
  ----- ------------  ---------------      ----- ------------  ---------------
    10     -1.590514  1 O  pz                 4      1.518348  1 O  s          
    24     -0.876266  2 H  s                 33     -0.876266  3 H  s          
    23      0.807050  1 O  d  2               7      0.660419  1 O  pz         
     2      0.514051  1 O  s                  3     -0.427043  1 O  s          
    25     -0.337422  2 H  s                 34     -0.337422  3 H  s          

 Vector   29  Occ=0.000000D+00  E= 1.716496D+00  Symmetry=b1
              MO Center=  3.4D-15,  1.6D-18, -3.0D-01, r^2= 1.8D+00
   Bfn.  Coefficient  Atom+Function         Bfn.  Coefficient  Atom+Function  
  ----- ------------  ---------------      ----- ------------  ---------------
    11      1.069523  1 O  px                25     -0.793043  2 H  s          
    34      0.793043  3 H  s                  8      0.760287  1 O  px         
    32     -0.665534  2 H  pz                41      0.665534  3 H  pz         
    29      0.659284  2 H  pz                38     -0.659284  3 H  pz         
    22      0.655726  1 O  d  1              27      0.498662  2 H  px         

 Vector   30  Occ=0.000000D+00  E= 1.730859D+00  Symmetry=a2
              MO Center=  6.2D-14,  1.1D-16, -2.6D-01, r^2= 1.5D+00
   Bfn.  Coefficient  Atom+Function         Bfn.  Coefficient  Atom+Function  
  ----- ------------  ---------------      ----- ------------  ---------------
    28     -0.947648  2 H  py                37      0.947648  3 H  py         
    19      0.883080  1 O  d -2              31      0.089636  2 H  py         
    40     -0.089636  3 H  py                14     -0.070410  1 O  d -2       

 Vector   31  Occ=0.000000D+00  E= 1.824930D+00  Symmetry=b2
              MO Center= -5.6D-14,  1.2D-16, -4.1D-01, r^2= 1.4D+00
   Bfn.  Coefficient  Atom+Function         Bfn.  Coefficient  Atom+Function  
  ----- ------------  ---------------      ----- ------------  ---------------
    28      0.993592  2 H  py                37      0.993592  3 H  py         
     9     -0.790060  1 O  py                20      0.704964  1 O  d -1       
    12      0.178061  1 O  py                31     -0.087519  2 H  py         
    40     -0.087519  3 H  py                15     -0.061076  1 O  d -1       

 Vector   32  Occ=0.000000D+00  E= 2.092607D+00  Symmetry=a1
              MO Center= -1.6D-15,  8.4D-18, -2.1D-01, r^2= 1.6D+00
   Bfn.  Coefficient  Atom+Function         Bfn.  Coefficient  Atom+Function  
  ----- ------------  ---------------      ----- ------------  ---------------
     3      1.712187  1 O  s                  4      1.318706  1 O  s          
    21     -1.295559  1 O  d  0              25     -1.061115  2 H  s          
    34     -1.061115  3 H  s                 29     -0.963635  2 H  pz         
    38     -0.963635  3 H  pz                23      0.740818  1 O  d  2       
     2     -0.637747  1 O  s                 27     -0.637510  2 H  px         

 Vector   33  Occ=0.000000D+00  E= 2.130520D+00  Symmetry=b1
              MO Center=  2.4D-15,  6.4D-17, -3.5D-01, r^2= 1.4D+00
   Bfn.  Coefficient  Atom+Function         Bfn.  Coefficient  Atom+Function  
  ----- ------------  ---------------      ----- ------------  ---------------
    25      2.615394  2 H  s                 34     -2.615394  3 H  s          
     8     -1.902439  1 O  px                30     -1.223978  2 H  px         
    39     -1.223978  3 H  px                 5      0.924361  1 O  px         
    27      0.706793  2 H  px                36      0.706793  3 H  px         
    24      0.630951  2 H  s                 33     -0.630951  3 H  s          

 Vector   34  Occ=0.000000D+00  E= 2.274009D+00  Symmetry=a1
              MO Center=  1.8D-15,  8.0D-18, -4.0D-01, r^2= 1.4D+00
   Bfn.  Coefficient  Atom+Function         Bfn.  Coefficient  Atom+Function  
  ----- ------------  ---------------      ----- ------------  ---------------
     3      2.057332  1 O  s                  2     -1.619103  1 O  s          
     4      1.423948  1 O  s                 25     -1.014225  2 H  s          
    34     -1.014225  3 H  s                  1     -0.721051  1 O  s          
    30      0.595886  2 H  px                39     -0.595886  3 H  px         
    29      0.577754  2 H  pz                38      0.577754  3 H  pz         

 Vector   35  Occ=0.000000D+00  E= 2.385956D+00  Symmetry=b1
              MO Center=  3.3D-14,  1.1D-16, -2.2D-01, r^2= 1.7D+00
   Bfn.  Coefficient  Atom+Function         Bfn.  Coefficient  Atom+Function  
  ----- ------------  ---------------      ----- ------------  ---------------
    25      4.528279  2 H  s                 34     -4.528279  3 H  s          
     8     -3.819000  1 O  px                24      2.186047  2 H  s          
    33     -2.186047  3 H  s                 22     -1.978682  1 O  d  1       
    30     -1.332730  2 H  px                39     -1.332730  3 H  px         
    11     -1.218258  1 O  px                29      0.626902  2 H  pz         

 Vector   36  Occ=0.000000D+00  E= 2.630711D+00  Symmetry=a1
              MO Center= -1.2D-14,  1.9D-17, -1.4D-01, r^2= 1.7D+00
   Bfn.  Coefficient  Atom+Function         Bfn.  Coefficient  Atom+Function  
  ----- ------------  ---------------      ----- ------------  ---------------
     3      5.737063  1 O  s                  4      4.510385  1 O  s          
    25     -3.261325  2 H  s                 34     -3.261325  3 H  s          
    10     -2.386230  1 O  pz                24     -1.676880  2 H  s          
    33     -1.676880  3 H  s                  2     -1.399701  1 O  s          
    27      0.903223  2 H  px                36     -0.903223  3 H  px         

 Vector   37  Occ=0.000000D+00  E= 3.261472D+00  Symmetry=b2
              MO Center=  8.1D-16,  5.6D-17,  1.3D-01, r^2= 7.5D-01
   Bfn.  Coefficient  Atom+Function         Bfn.  Coefficient  Atom+Function  
  ----- ------------  ---------------      ----- ------------  ---------------
    15      1.193693  1 O  d -1              20     -0.685149  1 O  d -1       
    12      0.323695  1 O  py                31     -0.312915  2 H  py         
    40     -0.312915  3 H  py                 9      0.168794  1 O  py         
    28      0.108358  2 H  py                37      0.108358  3 H  py         
     6     -0.047269  1 O  py         

 Vector   38  Occ=0.000000D+00  E= 3.275585D+00  Symmetry=a1
              MO Center=  1.3D-16,  3.9D-17,  1.3D-01, r^2= 7.7D-01
   Bfn.  Coefficient  Atom+Function         Bfn.  Coefficient  Atom+Function  
  ----- ------------  ---------------      ----- ------------  ---------------
    16      1.194068  1 O  d  0               3      0.660187  1 O  s          
    21     -0.632339  1 O  d  0              32     -0.327102  2 H  pz         
    41     -0.327102  3 H  pz                 4      0.273467  1 O  s          
    13      0.246451  1 O  pz                25     -0.228490  2 H  s          
    34     -0.228490  3 H  s                  2     -0.190489  1 O  s          

 Vector   39  Occ=0.000000D+00  E= 3.288857D+00  Symmetry=a2
              MO Center= -9.4D-16,  3.8D-17,  8.0D-02, r^2= 7.5D-01
   Bfn.  Coefficient  Atom+Function         Bfn.  Coefficient  Atom+Function  
  ----- ------------  ---------------      ----- ------------  ---------------
    14      1.206365  1 O  d -2              19     -0.713751  1 O  d -2       
    31      0.338749  2 H  py                40     -0.338749  3 H  py         
    28     -0.129849  2 H  py                37      0.129849  3 H  py         

 Vector   40  Occ=0.000000D+00  E= 3.601872D+00  Symmetry=a1
              MO Center= -5.6D-15,  1.2D-17, -1.2D-03, r^2= 8.7D-01
   Bfn.  Coefficient  Atom+Function         Bfn.  Coefficient  Atom+Function  
  ----- ------------  ---------------      ----- ------------  ---------------
     3      3.615382  1 O  s                  4      1.686880  1 O  s          
    10     -1.470321  1 O  pz                25     -1.368332  2 H  s          
    34     -1.368332  3 H  s                 24     -1.290246  2 H  s          
    33     -1.290246  3 H  s                 18      1.213267  1 O  d  2       
    27      0.715312  2 H  px                36     -0.715312  3 H  px         

 Vector   41  Occ=0.000000D+00  E= 3.869018D+00  Symmetry=b1
              MO Center= -4.0D-16, -1.5D-17,  3.8D-02, r^2= 8.8D-01
   Bfn.  Coefficient  Atom+Function         Bfn.  Coefficient  Atom+Function  
  ----- ------------  ---------------      ----- ------------  ---------------
    25     -2.533663  2 H  s                 34      2.533663  3 H  s          
     8      2.473720  1 O  px                24     -1.534170  2 H  s          
    33      1.534170  3 H  s                 17      1.329086  1 O  d  1       
    30      0.703436  2 H  px                39      0.703436  3 H  px         
    27      0.680300  2 H  px                36      0.680300  3 H  px         


 center of mass
 --------------
 x =   0.00000000 y =   0.00000000 z =   0.09760123

 moments of inertia (a.u.)
 ------------------
           2.197735387303           0.000000000000           0.000000000000
           0.000000000000           6.322357589609           0.000000000000
           0.000000000000           0.000000000000           4.124622202307

     Multipole analysis of the density
     ---------------------------------

     L   x y z        total         alpha         beta         nuclear
     -   - - -        -----         -----         ----         -------
     0   0 0 0     -0.000000     -5.000000     -5.000000     10.000000

     1   1 0 0     -0.000000     -0.000000     -0.000000      0.000000
     1   0 1 0     -0.000000     -0.000000     -0.000000      0.000000
     1   0 0 1     -0.724552     -0.362276     -0.362276      0.000000

     2   2 0 0     -3.339757     -3.716177     -3.716177      4.092598
     2   1 1 0     -0.000000     -0.000000     -0.000000      0.000000
     2   1 0 1     -0.000000     -0.000000     -0.000000      0.000000
     2   0 2 0     -5.758561     -2.879280     -2.879280      0.000000
     2   0 1 1     -0.000000     -0.000000     -0.000000      0.000000
     2   0 0 2     -4.789314     -3.376847     -3.376847      1.964381


 Task  times  cpu:        0.2s     wall:        0.2s


                                NWChem Input Module
                                -------------------


  pbe96 is a nonlocal functional; adding pw91lda local functional. 

                                 NWChem DFT Module
                                 -----------------




 Summary of "ao basis" -> "ao basis" (spherical)
 ------------------------------------------------------------------------------
       Tag                 Description            Shells   Functions and Types
 ---------------- ------------------------------  ------  ---------------------
 O                        aug-cc-pvdz                9       23   4s3p2d
 H                        aug-cc-pvdz                5        9   3s2p


      Symmetry analysis of basis
      --------------------------

        a1         18
        a2          4
        b1         12
        b2          7

  int_init: cando_txs set to always be  F
  Caching 1-el integrals 

            General Information
            -------------------
          SCF calculation type: DFT
          Wavefunction type:  closed shell.
          No. of atoms     :     3
          No. of electrons :    10
           Alpha electrons :     5
            Beta electrons :     5
          Charge           :     0
          Spin multiplicity:     1
          Use of symmetry is: on ; symmetry adaption is: on 
          Maximum number of iterations: 100
          This is a Direct SCF calculation.
          AO basis - number of functions:    41
                     number of shells:    19
          Convergence on energy requested:  1.00D-06
          Convergence on density requested:  1.00D-05
          Convergence on gradient requested:  5.00D-04

              XC Information
              --------------
                     Hartree-Fock (Exact) Exchange  0.250          
          PerdewBurkeErnzerhof Exchange Functional  1.000          
                     CAM-PBE96 Exchange Functional -0.250          
            Perdew 1991 LDA Correlation Functional  1.000 local    
           PerdewBurkeErnz. Correlation Functional  1.000 non-local

           Range-Separation Parameters        
           ---------------------------
           Alpha           :  0.00
           Beta            :  1.00
           Gamma           :  0.11
           Short-Range HF  :     T

             Grid Information
             ----------------
          Grid used for XC integration:  medium    
[...]

 Vector   19  Occ=0.000000D+00  E= 5.262264D-01  Symmetry=b1
              MO Center=  5.1D-14,  2.3D-16, -4.4D-01, r^2= 5.2D+00
   Bfn.  Coefficient  Atom+Function         Bfn.  Coefficient  Atom+Function  
  ----- ------------  ---------------      ----- ------------  ---------------
    25      7.156071  2 H  s                 34     -7.156071  3 H  s          
    30     -3.098944  2 H  px                39     -3.098944  3 H  px         
    11     -1.976696  1 O  px                32      1.528635  2 H  pz         
    41     -1.528635  3 H  pz                26      1.444974  2 H  s          
    35     -1.444974  3 H  s                  8     -1.415760  1 O  px         

 Vector   20  Occ=0.000000D+00  E= 6.242626D-01  Symmetry=b1
              MO Center= -1.4D-14, -3.7D-31, -8.7D-02, r^2= 3.5D+00
   Bfn.  Coefficient  Atom+Function         Bfn.  Coefficient  Atom+Function  
  ----- ------------  ---------------      ----- ------------  ---------------
    25      5.236656  2 H  s                 34     -5.236656  3 H  s          
    11     -1.999704  1 O  px                30     -1.315252  2 H  px         
    39     -1.315252  3 H  px                 8     -0.815054  1 O  px         
    22     -0.647684  1 O  d  1              26      0.609542  2 H  s          
    35     -0.609542  3 H  s                 24     -0.428388  2 H  s          

 Vector   21  Occ=0.000000D+00  E= 7.393520D-01  Symmetry=a1
              MO Center=  6.4D-15, -2.4D-14, -2.6D-01, r^2= 3.0D+00
   Bfn.  Coefficient  Atom+Function         Bfn.  Coefficient  Atom+Function  
  ----- ------------  ---------------      ----- ------------  ---------------
     4      5.642457  1 O  s                 25     -3.778795  2 H  s          
    34     -3.778795  3 H  s                 13     -1.399491  1 O  pz         
     3      1.217220  1 O  s                 23      0.685375  1 O  d  2       
    24      0.537900  2 H  s                 33      0.537900  3 H  s          
    32     -0.405318  2 H  pz                41     -0.405318  3 H  pz         

 Vector   22  Occ=0.000000D+00  E= 9.034494D-01  Symmetry=b2
              MO Center= -1.4D-14, -1.1D-15,  4.0D-01, r^2= 2.0D+00
   Bfn.  Coefficient  Atom+Function         Bfn.  Coefficient  Atom+Function  
  ----- ------------  ---------------      ----- ------------  ---------------
    20      1.091258  1 O  d -1              12     -0.787900  1 O  py         
    31      0.594416  2 H  py                40      0.594416  3 H  py         
     6     -0.238984  1 O  py                 9      0.041993  1 O  py         

 Vector   23  Occ=0.000000D+00  E= 9.157427D-01  Symmetry=a1
              MO Center= -2.5D-15, -1.5D-15,  4.0D-01, r^2= 2.1D+00
   Bfn.  Coefficient  Atom+Function         Bfn.  Coefficient  Atom+Function  
  ----- ------------  ---------------      ----- ------------  ---------------
    21     -1.105859  1 O  d  0               4      1.057464  1 O  s          
    25     -0.740401  2 H  s                 34     -0.740401  3 H  s          
    32     -0.713603  2 H  pz                41     -0.713603  3 H  pz         
     3      0.627242  1 O  s                 13      0.525959  1 O  pz         
     7      0.159398  1 O  pz                10     -0.155010  1 O  pz         

 Vector   24  Occ=0.000000D+00  E= 9.505445D-01  Symmetry=a2
              MO Center=  1.3D-14,  7.1D-16, -2.8D-02, r^2= 2.1D+00
   Bfn.  Coefficient  Atom+Function         Bfn.  Coefficient  Atom+Function  
  ----- ------------  ---------------      ----- ------------  ---------------
    19      1.216434  1 O  d -2              31     -0.783519  2 H  py         
    40      0.783519  3 H  py                28      0.047997  2 H  py         
    37     -0.047997  3 H  py         

 Vector   25  Occ=0.000000D+00  E= 1.069863D+00  Symmetry=a1
              MO Center=  2.3D-14, -7.7D-16, -1.6D-01, r^2= 2.1D+00
   Bfn.  Coefficient  Atom+Function         Bfn.  Coefficient  Atom+Function  
  ----- ------------  ---------------      ----- ------------  ---------------
     4      3.612138  1 O  s                 25     -2.596507  2 H  s          
    34     -2.596507  3 H  s                  3      1.554499  1 O  s          
    10     -1.252379  1 O  pz                13     -0.807789  1 O  pz         
    23     -0.766966  1 O  d  2              30      0.734386  2 H  px         
    39     -0.734386  3 H  px                 7      0.564388  1 O  pz         

 Vector   26  Occ=0.000000D+00  E= 1.201583D+00  Symmetry=b2
              MO Center= -7.2D-15,  1.9D-14, -2.1D-01, r^2= 1.6D+00
   Bfn.  Coefficient  Atom+Function         Bfn.  Coefficient  Atom+Function  
  ----- ------------  ---------------      ----- ------------  ---------------
     9      1.633221  1 O  py                 6     -0.955643  1 O  py         
    31     -0.629280  2 H  py                40     -0.629280  3 H  py         
    20     -0.440980  1 O  d -1              12      0.169323  1 O  py         

 Vector   27  Occ=0.000000D+00  E= 1.227088D+00  Symmetry=b1
              MO Center=  4.9D-15, -7.6D-16,  2.6D-01, r^2= 2.1D+00
   Bfn.  Coefficient  Atom+Function         Bfn.  Coefficient  Atom+Function  
  ----- ------------  ---------------      ----- ------------  ---------------
    25      4.805109  2 H  s                 34     -4.805109  3 H  s          
     8     -2.050672  1 O  px                30     -1.360339  2 H  px         
    39     -1.360339  3 H  px                32      1.173926  2 H  pz         
    41     -1.173926  3 H  pz                11     -1.165021  1 O  px         
    22      0.778758  1 O  d  1               5      0.597982  1 O  px         

 Vector   28  Occ=0.000000D+00  E= 1.318029D+00  Symmetry=a1
              MO Center= -2.2D-14,  4.4D-16,  2.4D-01, r^2= 1.8D+00
   Bfn.  Coefficient  Atom+Function         Bfn.  Coefficient  Atom+Function  
  ----- ------------  ---------------      ----- ------------  ---------------
    10     -1.588021  1 O  pz                 4      1.496924  1 O  s          
    24     -0.877501  2 H  s                 33     -0.877501  3 H  s          
    23      0.806268  1 O  d  2               7      0.661217  1 O  pz         
     2      0.515067  1 O  s                  3     -0.426350  1 O  s          
    25     -0.327215  2 H  s                 34     -0.327215  3 H  s          

 Vector   29  Occ=0.000000D+00  E= 1.738405D+00  Symmetry=b1
              MO Center=  1.4D-14, -2.9D-16, -3.0D-01, r^2= 1.8D+00
   Bfn.  Coefficient  Atom+Function         Bfn.  Coefficient  Atom+Function  
  ----- ------------  ---------------      ----- ------------  ---------------
    11      1.059687  1 O  px                25     -0.786116  2 H  s          
    34      0.786116  3 H  s                  8      0.757889  1 O  px         
    22      0.657137  1 O  d  1              29      0.659122  2 H  pz         
    32     -0.659690  2 H  pz                38     -0.659122  3 H  pz         
    41      0.659690  3 H  pz                27      0.498865  2 H  px         

 Vector   30  Occ=0.000000D+00  E= 1.753315D+00  Symmetry=a2
              MO Center=  6.9D-14,  1.6D-16, -2.6D-01, r^2= 1.5D+00
   Bfn.  Coefficient  Atom+Function         Bfn.  Coefficient  Atom+Function  
  ----- ------------  ---------------      ----- ------------  ---------------
    28     -0.947673  2 H  py                37      0.947673  3 H  py         
    19      0.882752  1 O  d -2              31      0.088552  2 H  py         
    40     -0.088552  3 H  py                14     -0.070621  1 O  d -2       

 Vector   31  Occ=0.000000D+00  E= 1.847529D+00  Symmetry=b2
              MO Center= -6.3D-14,  3.8D-17, -4.1D-01, r^2= 1.4D+00
   Bfn.  Coefficient  Atom+Function         Bfn.  Coefficient  Atom+Function  
  ----- ------------  ---------------      ----- ------------  ---------------
    28      0.993612  2 H  py                37      0.993612  3 H  py         
     9     -0.789637  1 O  py                20      0.704672  1 O  d -1       
    12      0.176392  1 O  py                31     -0.086446  2 H  py         
    40     -0.086446  3 H  py                15     -0.061136  1 O  d -1       

 Vector   32  Occ=0.000000D+00  E= 2.114478D+00  Symmetry=a1
              MO Center= -1.0D-14,  7.6D-17, -2.1D-01, r^2= 1.6D+00
   Bfn.  Coefficient  Atom+Function         Bfn.  Coefficient  Atom+Function  
  ----- ------------  ---------------      ----- ------------  ---------------
     3      1.711484  1 O  s                  4      1.312695  1 O  s          
    21     -1.294662  1 O  d  0              25     -1.057575  2 H  s          
    34     -1.057575  3 H  s                 29     -0.963735  2 H  pz         
    38     -0.963735  3 H  pz                23      0.740405  1 O  d  2       
     2     -0.638464  1 O  s                 27     -0.637212  2 H  px         

 Vector   33  Occ=0.000000D+00  E= 2.154241D+00  Symmetry=b1
              MO Center= -4.4D-15,  4.0D-17, -3.5D-01, r^2= 1.4D+00
   Bfn.  Coefficient  Atom+Function         Bfn.  Coefficient  Atom+Function  
  ----- ------------  ---------------      ----- ------------  ---------------
    25      2.617243  2 H  s                 34     -2.617243  3 H  s          
     8     -1.912394  1 O  px                30     -1.221035  2 H  px         
    39     -1.221035  3 H  px                 5      0.925183  1 O  px         
    27      0.705566  2 H  px                36      0.705566  3 H  px         
    24      0.637846  2 H  s                 33     -0.637846  3 H  s          

 Vector   34  Occ=0.000000D+00  E= 2.297997D+00  Symmetry=a1
              MO Center= -1.5D-14,  3.6D-17, -3.9D-01, r^2= 1.4D+00
   Bfn.  Coefficient  Atom+Function         Bfn.  Coefficient  Atom+Function  
  ----- ------------  ---------------      ----- ------------  ---------------
     3      2.070146  1 O  s                  2     -1.623988  1 O  s          
     4      1.431231  1 O  s                 25     -1.021080  2 H  s          
    34     -1.021080  3 H  s                  1     -0.723292  1 O  s          
    30      0.594848  2 H  px                39     -0.594848  3 H  px         
    29      0.576937  2 H  pz                38      0.576937  3 H  pz         

 Vector   35  Occ=0.000000D+00  E= 2.410385D+00  Symmetry=b1
              MO Center=  2.0D-14,  1.4D-16, -2.2D-01, r^2= 1.7D+00
   Bfn.  Coefficient  Atom+Function         Bfn.  Coefficient  Atom+Function  
  ----- ------------  ---------------      ----- ------------  ---------------
    25      4.498511  2 H  s                 34     -4.498511  3 H  s          
     8     -3.807619  1 O  px                24      2.185499  2 H  s          
    33     -2.185499  3 H  s                 22     -1.975044  1 O  d  1       
    30     -1.323193  2 H  px                39     -1.323193  3 H  px         
    11     -1.209513  1 O  px                29      0.627571  2 H  pz         

 Vector   36  Occ=0.000000D+00  E= 2.654889D+00  Symmetry=a1
              MO Center=  4.6D-15,  5.7D-17, -1.4D-01, r^2= 1.7D+00
   Bfn.  Coefficient  Atom+Function         Bfn.  Coefficient  Atom+Function  
  ----- ------------  ---------------      ----- ------------  ---------------
     3      5.727468  1 O  s                  4      4.484911  1 O  s          
    25     -3.244541  2 H  s                 34     -3.244541  3 H  s          
    10     -2.383123  1 O  pz                24     -1.680041  2 H  s          
    33     -1.680041  3 H  s                  2     -1.394598  1 O  s          
    27      0.904850  2 H  px                36     -0.904850  3 H  px         

 Vector   37  Occ=0.000000D+00  E= 3.288719D+00  Symmetry=b2
              MO Center=  6.0D-16,  6.2D-17,  1.3D-01, r^2= 7.4D-01
   Bfn.  Coefficient  Atom+Function         Bfn.  Coefficient  Atom+Function  
  ----- ------------  ---------------      ----- ------------  ---------------
    15      1.193679  1 O  d -1              20     -0.683585  1 O  d -1       
    12      0.321893  1 O  py                31     -0.311290  2 H  py         
    40     -0.311290  3 H  py                 9      0.167701  1 O  py         
    28      0.108361  2 H  py                37      0.108361  3 H  py         
     6     -0.046981  1 O  py         

 Vector   38  Occ=0.000000D+00  E= 3.302635D+00  Symmetry=a1
              MO Center= -2.3D-16,  2.4D-18,  1.3D-01, r^2= 7.7D-01
   Bfn.  Coefficient  Atom+Function         Bfn.  Coefficient  Atom+Function  
  ----- ------------  ---------------      ----- ------------  ---------------
    16      1.194045  1 O  d  0               3      0.654306  1 O  s          
    21     -0.630479  1 O  d  0              32     -0.325066  2 H  pz         
    41     -0.325066  3 H  pz                 4      0.269784  1 O  s          
    13      0.245435  1 O  pz                25     -0.225657  2 H  s          
    34     -0.225657  3 H  s                  2     -0.189138  1 O  s          

 Vector   39  Occ=0.000000D+00  E= 3.315923D+00  Symmetry=a2
              MO Center= -7.8D-16, -2.0D-17,  8.0D-02, r^2= 7.5D-01
   Bfn.  Coefficient  Atom+Function         Bfn.  Coefficient  Atom+Function  
  ----- ------------  ---------------      ----- ------------  ---------------
    14      1.206339  1 O  d -2              19     -0.711918  1 O  d -2       
    31      0.337083  2 H  py                40     -0.337083  3 H  py         
    28     -0.129922  2 H  py                37      0.129922  3 H  py         

 Vector   40  Occ=0.000000D+00  E= 3.629394D+00  Symmetry=a1
              MO Center=  7.5D-15,  3.4D-17, -6.5D-04, r^2= 8.7D-01
   Bfn.  Coefficient  Atom+Function         Bfn.  Coefficient  Atom+Function  
  ----- ------------  ---------------      ----- ------------  ---------------
     3      3.608057  1 O  s                  4      1.678655  1 O  s          
    10     -1.467194  1 O  pz                25     -1.361935  2 H  s          
    34     -1.361935  3 H  s                 24     -1.289974  2 H  s          
    33     -1.289974  3 H  s                 18      1.213419  1 O  d  2       
    27      0.714178  2 H  px                36     -0.714178  3 H  px         

 Vector   41  Occ=0.000000D+00  E= 3.896885D+00  Symmetry=b1
              MO Center= -1.2D-14,  4.6D-17,  3.8D-02, r^2= 8.8D-01
   Bfn.  Coefficient  Atom+Function         Bfn.  Coefficient  Atom+Function  
  ----- ------------  ---------------      ----- ------------  ---------------
    25     -2.527002  2 H  s                 34      2.527002  3 H  s          
     8      2.471172  1 O  px                24     -1.534879  2 H  s          
    33      1.534879  3 H  s                 17      1.328999  1 O  d  1       
    30      0.701966  2 H  px                39      0.701966  3 H  px         
    27      0.679489  2 H  px                36      0.679489  3 H  px         


 center of mass
 --------------
 x =   0.00000000 y =   0.00000000 z =   0.09760123

 moments of inertia (a.u.)
 ------------------
           2.197735387303           0.000000000000           0.000000000000
           0.000000000000           6.322357589609           0.000000000000
           0.000000000000           0.000000000000           4.124622202307

     Multipole analysis of the density
     ---------------------------------

     L   x y z        total         alpha         beta         nuclear
     -   - - -        -----         -----         ----         -------
     0   0 0 0     -0.000000     -5.000000     -5.000000     10.000000

     1   1 0 0     -0.000000     -0.000000     -0.000000      0.000000
     1   0 1 0     -0.000000     -0.000000     -0.000000      0.000000
     1   0 0 1     -0.732469     -0.366235     -0.366235      0.000000

     2   2 0 0     -3.329199     -3.710899     -3.710899      4.092598
     2   1 1 0      0.000000      0.000000      0.000000      0.000000
     2   1 0 1      0.000000      0.000000      0.000000      0.000000
     2   0 2 0     -5.755039     -2.877520     -2.877520      0.000000
     2   0 1 1     -0.000000     -0.000000     -0.000000      0.000000
     2   0 0 2     -4.782196     -3.373288     -3.373288      1.964381


 Task  times  cpu:        0.4s     wall:        0.4s


                                NWChem Input Module
                                -------------------


 Summary of allocated global arrays
-----------------------------------
  No active global arrays



                         GA Statistics for process    0
                         ------------------------------

       create   destroy   get      put      acc     scatter   gather  read&inc
calls:  483      483     5136     1872     1795        0        0     1709     
number of processes/call 1.46e+00 1.43e+00 1.36e+00 0.00e+00 0.00e+00
bytes total:             1.04e+07 2.27e+06 5.52e+06 0.00e+00 0.00e+00 1.37e+04
bytes remote:            4.99e+06 8.56e+05 2.14e+06 0.00e+00 0.00e+00 0.00e+00
Max memory consumed for GA by this process: 180344 bytes

MA_summarize_allocated_blocks: starting scan ...
heap block 'gridpts', handle 114, address 0x55dbaa7421e8:
	type of elements:		double precision
	number of elements:		34435228
	address of client space:	0x55dbaa742240
	index for client space:		11960411
	total number of bytes:		275481920
MA_summarize_allocated_blocks: scan completed: 1 heap block, 0 stack blocks
MA usage statistics:

	allocation statistics:
					      heap	     stack
					      ----	     -----
	current number of blocks	         1	         0
	maximum number of blocks	        19	        57
	current total bytes		 275481920	         0
	maximum total bytes		 275978576	  22511560
	maximum total K-bytes		    275979	     22512
	maximum total M-bytes		       276	        23


                                     CITATION
                                     --------
                Please cite the following reference when publishing
                           results obtained with NWChem:

                 M. Valiev, E.J. Bylaska, N. Govind, K. Kowalski,
              T.P. Straatsma, H.J.J. van Dam, D. Wang, J. Nieplocha,
                        E. Apra, T.L. Windus, W.A. de Jong
                 "NWChem: a comprehensive and scalable open-source
                  solution for large scale molecular simulations"
                      Comput. Phys. Commun. 181, 1477 (2010)
                           doi:10.1016/j.cpc.2010.04.018

                                      AUTHORS
                                      -------
          E. Apra, E. J. Bylaska, W. A. de Jong, N. Govind, K. Kowalski,
       T. P. Straatsma, M. Valiev, H. J. J. van Dam, D. Wang, T. L. Windus,
        J. Hammond, J. Autschbach, K. Bhaskaran-Nair, J. Brabec, K. Lopata,
    S. A. Fischer, S. Krishnamoorthy, M. Jacquelin, W. Ma, M. Klemm, O. Villa,
      Y. Chen, V. Anisimov, F. Aquino, S. Hirata, M. T. Hackler, V. Konjkov,
            D. Mejia-Rodriguez, T. Risthaus, M. Malagoli, A. Marenich,
   A. Otero-de-la-Roza, J. Mullin, P. Nichols, R. Peverati, J. Pittner, Y. Zhao,
        P.-D. Fan, A. Fonari, M. J. Williamson, R. J. Harrison, J. R. Rehr,
      M. Dupuis, D. Silverstein, D. M. A. Smith, J. Nieplocha, V. Tipparaju,
    M. Krishnan, B. E. Van Kuiken, A. Vazquez-Mayagoitia, L. Jensen, M. Swart,
      Q. Wu, T. Van Voorhis, A. A. Auer, M. Nooijen, L. D. Crosby, E. Brown,
      G. Cisneros, G. I. Fann, H. Fruchtl, J. Garza, K. Hirao, R. A. Kendall,
      J. A. Nichols, K. Tsemekhman, K. Wolinski, J. Anchell, D. E. Bernholdt,
      P. Borowski, T. Clark, D. Clerc, H. Dachsel, M. J. O. Deegan, K. Dyall,
    D. Elwood, E. Glendening, M. Gutowski, A. C. Hess, J. Jaffe, B. G. Johnson,
     J. Ju, R. Kobayashi, R. Kutteh, Z. Lin, R. Littlefield, X. Long, B. Meng,
      T. Nakajima, S. Niu, L. Pollack, M. Rosing, K. Glaesemann, G. Sandrone,
      M. Stave, H. Taylor, G. Thomas, J. H. van Lenthe, A. T. Wong, Z. Zhang.

 Total times  cpu:        1.2s     wall:        1.2s
