 argument  1 = /home/list1234/source/nwchem-6.8.1-release/QA/tests/h2o-ssb-d-opt/h2o-ssb-d-opt.nw



============================== echo of input deck ==============================
title "h2o ssb-d-dft"

echo
start h2o-ssb-d-opt

geometry units au
 O 0       0        0
 H 0       1.430   -1.107
 H 0      -1.430   -1.107
end

basis
  O library 6-31g*
  H library 6-31g*
end

dft
  iterations 99
  CONVERGENCE density 1.0e-6
  CONVERGENCE gradient 1.0e-6
  convergence damp 90 nolevelshifting
  convergence diison 0.01
  TOLERANCES tight
  grid fine
  xc ssb-d
end

task dft optimize
================================================================================


                                         
                                         


              Northwest Computational Chemistry Package (NWChem) 6.8
              ------------------------------------------------------


                    Environmental Molecular Sciences Laboratory
                       Pacific Northwest National Laboratory
                                Richland, WA 99352

                              Copyright (c) 1994-2018
                       Pacific Northwest National Laboratory
                            Battelle Memorial Institute

             NWChem is an open-source computational chemistry package
                        distributed under the terms of the
                      Educational Community License (ECL) 2.0
             A copy of the license is included with this distribution
                              in the LICENSE.TXT file

                                  ACKNOWLEDGMENT
                                  --------------

            This software and its documentation were developed at the
            EMSL at Pacific Northwest National Laboratory, a multiprogram
            national laboratory, operated for the U.S. Department of Energy
            by Battelle under Contract Number DE-AC05-76RL01830. Support
            for this work was provided by the Department of Energy Office
            of Biological and Environmental Research, Office of Basic
            Energy Sciences, and the Office of Advanced Scientific Computing.


           Job information
           ---------------

    hostname        = list1234-B360M-H
    program         = /home/list1234/source/nwchem-6.8.1-release/bin/LINUX64/nwchem
    date            = Sun Jun 30 07:49:29 2019

    compiled        = Sun_Jun_30_05:21:11_2019
    source          = /home/list1234/source/nwchem-6.8.1-release
    nwchem branch   = Development
    nwchem revision = N/A
    ga revision     = 5.6.5
    use scalapack   = T
    input           = /home/list1234/source/nwchem-6.8.1-release/QA/tests/h2o-ssb-d-opt/h2o-ssb-d-opt.nw
    prefix          = h2o-ssb-d-opt.
    data base       = ./h2o-ssb-d-opt.db
    status          = startup
    nproc           =        4
    time left       =     -1s



           Memory information
           ------------------

    heap     =   86247164 doubles =    658.0 Mbytes
    stack    =   86247169 doubles =    658.0 Mbytes
    global   =  172494336 doubles =   1316.0 Mbytes (distinct from heap & stack)
    total    =  344988669 doubles =   2632.1 Mbytes
    verify   = yes
    hardfail = no 


           Directory information
           ---------------------

  0 permanent = .
  0 scratch   = .




                                NWChem Input Module
                                -------------------


                                   h2o ssb-d-dft
                                   -------------
 C2V symmetry detected

          ------
          auto-z
          ------
  no constraints, skipping    0.0000000000000000     
  no constraints, skipping    0.0000000000000000     


                             Geometry "geometry" -> ""
                             -------------------------

 Output coordinates in a.u. (scale by  1.000000000 to convert to a.u.)

  No.       Tag          Charge          X              Y              Z
 ---- ---------------- ---------- -------------- -------------- --------------
    1 O                    8.0000     0.00000000     0.00000000     0.22140000
    2 H                    1.0000    -1.43000000     0.00000000    -0.88560000
    3 H                    1.0000     1.43000000     0.00000000    -0.88560000

      Atomic Mass 
      ----------- 

      O                 15.994910
      H                  1.007825


 Effective nuclear repulsion energy (a.u.)       9.1971984402

            Nuclear Dipole moment (a.u.) 
            ----------------------------
        X                 Y               Z
 ---------------- ---------------- ----------------
     0.0000000000     0.0000000000     0.0000000000

      Symmetry information
      --------------------

 Group name             C2v       
 Group number             16
 Group order               4
 No. of unique centers     2

      Symmetry unique atoms

     1    2



                                Z-matrix (autoz)
                                -------- 

 Units are Angstrom for bonds and degrees for angles

      Type          Name      I     J     K     L     M      Value
      ----------- --------  ----- ----- ----- ----- ----- ----------
    1 Stretch                  1     2                       0.95697
    2 Stretch                  1     3                       0.95697
    3 Bend                     2     1     3               104.51124


            XYZ format geometry
            -------------------
     3
 geometry
 O                     0.00000000     0.00000000     0.11715984
 H                    -0.75672347     0.00000000    -0.46863937
 H                     0.75672347     0.00000000    -0.46863937

 ==============================================================================
                                internuclear distances
 ------------------------------------------------------------------------------
       center one      |      center two      | atomic units |       a.u.
 ------------------------------------------------------------------------------
    2 H                |   1 O                |     1.80841  |     1.80841
    3 H                |   1 O                |     1.80841  |     1.80841
 ------------------------------------------------------------------------------
                         number of included internuclear distances:          2
 ==============================================================================



 ==============================================================================
                                 internuclear angles
 ------------------------------------------------------------------------------
        center 1       |       center 2       |       center 3       |  degrees
 ------------------------------------------------------------------------------
    2 H                |   1 O                |   3 H                |   104.51
 ------------------------------------------------------------------------------
                            number of included internuclear angles:          1
 ==============================================================================



                      Basis "ao basis" -> "" (cartesian)
                      -----
  O (Oxygen)
  ----------
            Exponent  Coefficients 
       -------------- ---------------------------------------------------------
  1 S  5.48467170E+03  0.001831
  1 S  8.25234950E+02  0.013950
  1 S  1.88046960E+02  0.068445
  1 S  5.29645000E+01  0.232714
  1 S  1.68975700E+01  0.470193
  1 S  5.79963530E+00  0.358521

  2 S  1.55396160E+01 -0.110778
  2 S  3.59993360E+00 -0.148026
  2 S  1.01376180E+00  1.130767

  3 P  1.55396160E+01  0.070874
  3 P  3.59993360E+00  0.339753
  3 P  1.01376180E+00  0.727159

  4 S  2.70005800E-01  1.000000

  5 P  2.70005800E-01  1.000000

  6 D  8.00000000E-01  1.000000

  H (Hydrogen)
  ------------
            Exponent  Coefficients 
       -------------- ---------------------------------------------------------
  1 S  1.87311370E+01  0.033495
  1 S  2.82539370E+00  0.234727
  1 S  6.40121700E-01  0.813757

  2 S  1.61277800E-01  1.000000



 Summary of "ao basis" -> "" (cartesian)
 ------------------------------------------------------------------------------
       Tag                 Description            Shells   Functions and Types
 ---------------- ------------------------------  ------  ---------------------
 O                           6-31g*                  6       15   3s2p1d
 H                           6-31g*                  2        2   2s




                           NWChem Geometry Optimization
                           ----------------------------




                                   h2o ssb-d-dft


  no constraints, skipping    0.0000000000000000     
 maximum gradient threshold         (gmax) =   0.000450
 rms gradient threshold             (grms) =   0.000300
 maximum cartesian step threshold   (xmax) =   0.001800
 rms cartesian step threshold       (xrms) =   0.001200
 fixed trust radius                (trust) =   0.300000
 maximum step size to saddle      (sadstp) =   0.100000
 energy precision                  (eprec) =   5.0D-06
 maximum number of steps          (nptopt) =   20
 initial hessian option           (inhess) =    0
 line search option               (linopt) =    1
 hessian update option            (modupd) =    1
 saddle point option              (modsad) =    0
 initial eigen-mode to follow     (moddir) =    0
 initial variable to follow       (vardir) =    0
 follow first negative mode     (firstneg) =    T
 apply conjugacy                    (opcg) =    F
 source of zmatrix                         =   autoz   


          -------------------
          Energy Minimization
          -------------------


 Names of Z-matrix variables 
    1              2              3         

 Variables with the same non-blank name are constrained to be equal


 Using diagonal initial Hessian 
 Scaling for Hessian diagonals: bonds = 1.00  angles = 0.25  torsions = 0.10

          --------
          Step   0
          --------


                         Geometry "geometry" -> "geometry"
                         ---------------------------------

 Output coordinates in a.u. (scale by  1.000000000 to convert to a.u.)

  No.       Tag          Charge          X              Y              Z
 ---- ---------------- ---------- -------------- -------------- --------------
    1 O                    8.0000     0.00000000     0.00000000     0.22140000
    2 H                    1.0000    -1.43000000     0.00000000    -0.88560000
    3 H                    1.0000     1.43000000     0.00000000    -0.88560000

      Atomic Mass 
      ----------- 

      O                 15.994910
      H                  1.007825


 Effective nuclear repulsion energy (a.u.)       9.1971984402

            Nuclear Dipole moment (a.u.) 
            ----------------------------
        X                 Y               Z
 ---------------- ---------------- ----------------
     0.0000000000     0.0000000000     0.0000000000

      Symmetry information
      --------------------

 Group name             C2v       
 Group number             16
 Group order               4
 No. of unique centers     2

      Symmetry unique atoms

     1    2


                                 NWChem DFT Module
                                 -----------------


                                   h2o ssb-d-dft




 Summary of "ao basis" -> "ao basis" (cartesian)
 ------------------------------------------------------------------------------
       Tag                 Description            Shells   Functions and Types
 ---------------- ------------------------------  ------  ---------------------
 O                           6-31g*                  6       15   3s2p1d
 H                           6-31g*                  2        2   2s


      Symmetry analysis of basis
      --------------------------

        a1         10
        a2          1
        b1          5
        b2          3

  Caching 1-el integrals 

            General Information
            -------------------
          SCF calculation type: DFT
          Wavefunction type:  closed shell.
          No. of atoms     :     3
          No. of electrons :    10
           Alpha electrons :     5
            Beta electrons :     5
          Charge           :     0
          Spin multiplicity:     1
          Use of symmetry is: on ; symmetry adaption is: on 
          Maximum number of iterations:  99
          AO basis - number of functions:    19
                     number of shells:    10
          Convergence on energy requested:  1.00D-06
          Convergence on density requested:  1.00D-06
          Convergence on gradient requested:  1.00D-06

              XC Information
              --------------
                        SSB-D Method XC Functional
                        Slater Exchange Functional  1.080 local    
                         SSB-1 Exchange Functional  1.000 non-local
                           KT1 gradient correction  0.359 non-local
            Perdew 1991 LDA Correlation Functional  1.000 local    
              simplified PBE Correlation Potential  1.000 non-local

             Grid Information
             ----------------
          Grid used for XC integration:  fine      
          Radial quadrature: Mura-Knowles        
          Angular quadrature: Lebedev. 
          Tag              B.-S. Rad. Rad. Pts. Rad. Cut. Ang. Pts.
          ---              ---------- --------- --------- ---------
          O                   0.60       70           5.0       590
          H                   0.35       60           6.0       590
          Grid pruning is: on 
          Number of quadrature shells:   130
          Spatial weights used:  Erf1

          Convergence Information
          -----------------------
          Convergence aids based upon iterative change in 
          total energy or number of iterations. 
          Levelshifting, if invoked, occurs when the 
          HOMO/LUMO gap drops below (HL_TOL):  1.00D-02
          DIIS, if invoked, will attempt to extrapolate 
          using up to (NFOCK): 10 stored Fock matrices.

                    Damping(90%)  Levelshifting(0.0)       DIIS
                  --------------- ------------------- ---------------
          dE  on:    start             N/A                start   
          dE off:    2 iters           N/A               99 iters 


      Screening Tolerance Information
      -------------------------------
          Density screening/tol_rho:  1.00D-10
          AO Gaussian exp screening on grid/accAOfunc:  14
          CD Gaussian exp screening on grid/accCDfunc:  20
          XC Gaussian exp screening on grid/accXCfunc:  20
          Schwarz screening/accCoul:  1.00D-08

      Dispersion Parameters
      ---------------------

          s6 scale factor :        0.847455000000
              vdW contrib :       -0.000030233226


      Superposition of Atomic Density Guess
      -------------------------------------

 Sum of atomic energies:         -75.75081731

      Non-variational initial energy
      ------------------------------

 Total energy =     -75.919952
 1-e energy   =    -121.737767
 2-e energy   =      36.620616
 HOMO         =      -0.470482
 LUMO         =       0.114886


      Symmetry analysis of molecular orbitals - initial
      -------------------------------------------------

  Numbering of irreducible representations: 

     1 a1          2 a2          3 b1          4 b2      

  Orbital symmetries:

     1 a1          2 a1          3 b1          4 a1          5 b2      
     6 a1          7 b1          8 b1          9 a1         10 b2      
    11 a1         12 b1         13 a1         14 a1         15 a2      

   Time after variat. SCF:      0.1
   Time prior to 1st pass:      0.1

 Grid_pts file          = ./h2o-ssb-d-opt.gridpts.0
 Record size in doubles =  12289        No. of grid_pts per rec  =   3070
 Max. records in memory =      8        Max. recs in file   = 253312716


           Memory utilization after 1st SCF pass: 
           Heap Space remaining (MW):       51.71            51707284
          Stack Space remaining (MW):       86.25            86246932

   convergence    iter        energy       DeltaE   RMS-Dens  Diis-err    time
 ---------------- ----- ----------------- --------- --------- ---------  ------
 d=90,ls=0.0,diis     1    -76.8983467817 -8.61D+01  4.70D-02  3.42D-01     0.1
 d=90,ls=0.0,diis     2    -76.9054434856 -7.10D-03  1.93D-02  2.13D-01     0.1
 d= 0,ls=0.0,diis     3    -76.9094429963 -4.00D-03  1.78D-02  1.76D-01     0.1
 d= 0,ls=0.0,diis     4    -76.9391985654 -2.98D-02  3.00D-04  1.20D-04     0.1
 d= 0,ls=0.0,diis     5    -76.9392099810 -1.14D-05  2.97D-05  4.86D-07     0.1
 d= 0,ls=0.0,diis     6    -76.9392100358 -5.48D-08  3.52D-06  7.49D-09     0.1
 d= 0,ls=0.0,diis     7    -76.9392100366 -8.28D-10  2.30D-07  2.75D-11     0.2


         Total DFT energy =      -76.939210036627
      One electron energy =     -123.161056719130
           Coulomb energy =       46.927124898756
    Exchange-Corr. energy =       -9.902446423225
 Nuclear repulsion energy =        9.197198440198

    Dispersion correction =       -0.000030233226

 Numeric. integr. density =       10.000000404053

     Total iterative time =      0.1s



                  Occupations of the irreducible representations
                  ----------------------------------------------

                     irrep           alpha         beta
                     --------     --------     --------
                     a1                3.0          3.0
                     a2                0.0          0.0
                     b1                1.0          1.0
                     b2                1.0          1.0


                       DFT Final Molecular Orbital Analysis
                       ------------------------------------

 Vector    1  Occ=2.000000D+00  E=-1.893083D+01  Symmetry=a1
              MO Center= -5.0D-19, -5.0D-24,  1.2D-01, r^2= 1.5D-02
   Bfn.  Coefficient  Atom+Function         Bfn.  Coefficient  Atom+Function  
  ----- ------------  ---------------      ----- ------------  ---------------
     1      0.995135  1 O  s          

 Vector    2  Occ=2.000000D+00  E=-9.407672D-01  Symmetry=a1
              MO Center=  3.8D-18,  2.9D-40, -9.1D-02, r^2= 4.9D-01
   Bfn.  Coefficient  Atom+Function         Bfn.  Coefficient  Atom+Function  
  ----- ------------  ---------------      ----- ------------  ---------------
     2      0.481300  1 O  s                  6      0.415606  1 O  s          
     1     -0.206609  1 O  s                 16      0.142807  2 H  s          
    18      0.142807  3 H  s                  5     -0.129796  1 O  pz         
     9     -0.062625  1 O  pz         

 Vector    3  Occ=2.000000D+00  E=-4.791437D-01  Symmetry=b1
              MO Center=  2.0D-17, -8.7D-42, -1.1D-01, r^2= 7.7D-01
   Bfn.  Coefficient  Atom+Function         Bfn.  Coefficient  Atom+Function  
  ----- ------------  ---------------      ----- ------------  ---------------
     3      0.516131  1 O  px                 7      0.268471  1 O  px         
    16     -0.245559  2 H  s                 18      0.245559  3 H  s          
    17     -0.128987  2 H  s                 19      0.128987  3 H  s          
    12     -0.071489  1 O  dxz        

 Vector    4  Occ=2.000000D+00  E=-3.255334D-01  Symmetry=a1
              MO Center=  1.2D-16,  9.7D-15,  1.9D-01, r^2= 6.9D-01
   Bfn.  Coefficient  Atom+Function         Bfn.  Coefficient  Atom+Function  
  ----- ------------  ---------------      ----- ------------  ---------------
     5      0.549835  1 O  pz                 6      0.402671  1 O  s          
     9      0.370684  1 O  pz                 2      0.190867  1 O  s          
    16     -0.148278  2 H  s                 18     -0.148278  3 H  s          
    17     -0.111926  2 H  s                 19     -0.111926  3 H  s          
     1     -0.088605  1 O  s                 15     -0.053112  1 O  dzz        

 Vector    5  Occ=2.000000D+00  E=-2.378343D-01  Symmetry=b2
              MO Center=  1.8D-17, -9.4D-15,  9.5D-02, r^2= 6.0D-01
   Bfn.  Coefficient  Atom+Function         Bfn.  Coefficient  Atom+Function  
  ----- ------------  ---------------      ----- ------------  ---------------
     4      0.640998  1 O  py                 8      0.509834  1 O  py         
    14     -0.064667  1 O  dyz        

 Vector    6  Occ=0.000000D+00  E= 4.032729D-02  Symmetry=a1
              MO Center= -4.4D-15, -2.4D-16, -6.0D-01, r^2= 2.4D+00
   Bfn.  Coefficient  Atom+Function         Bfn.  Coefficient  Atom+Function  
  ----- ------------  ---------------      ----- ------------  ---------------
     6      1.240359  1 O  s                 17     -0.962716  2 H  s          
    19     -0.962716  3 H  s                  9     -0.474144  1 O  pz         
     5     -0.284801  1 O  pz                 2      0.132748  1 O  s          
    16     -0.109916  2 H  s                 18     -0.109916  3 H  s          
     1     -0.098241  1 O  s                 13     -0.053000  1 O  dyy        

 Vector    7  Occ=0.000000D+00  E= 1.255456D-01  Symmetry=b1
              MO Center=  4.2D-15,  5.8D-31, -5.6D-01, r^2= 2.5D+00
   Bfn.  Coefficient  Atom+Function         Bfn.  Coefficient  Atom+Function  
  ----- ------------  ---------------      ----- ------------  ---------------
    17      1.277487  2 H  s                 19     -1.277487  3 H  s          
     7      0.757589  1 O  px                 3      0.423515  1 O  px         
    16      0.121872  2 H  s                 18     -0.121872  3 H  s          
    12     -0.027015  1 O  dxz        

 Vector    8  Occ=0.000000D+00  E= 7.199651D-01  Symmetry=b1
              MO Center= -1.2D-16,  4.0D-32, -1.5D-01, r^2= 1.6D+00
   Bfn.  Coefficient  Atom+Function         Bfn.  Coefficient  Atom+Function  
  ----- ------------  ---------------      ----- ------------  ---------------
    16      0.833356  2 H  s                 18     -0.833356  3 H  s          
    17     -0.675411  2 H  s                 19      0.675411  3 H  s          
     7      0.406567  1 O  px                12      0.353308  1 O  dxz        
     3      0.193459  1 O  px         

 Vector    9  Occ=0.000000D+00  E= 8.056339D-01  Symmetry=a1
              MO Center=  5.6D-16,  2.3D-17, -3.7D-01, r^2= 1.3D+00
   Bfn.  Coefficient  Atom+Function         Bfn.  Coefficient  Atom+Function  
  ----- ------------  ---------------      ----- ------------  ---------------
    16      0.799094  2 H  s                 18      0.799094  3 H  s          
    17     -0.607820  2 H  s                 19     -0.607820  3 H  s          
     5      0.566016  1 O  pz                 6      0.352625  1 O  s          
     2     -0.279672  1 O  s                 13     -0.182134  1 O  dyy        
     9     -0.174833  1 O  pz                10      0.141325  1 O  dxx        

 Vector   10  Occ=0.000000D+00  E= 8.486538D-01  Symmetry=a1
              MO Center=  1.0D-15,  4.9D-17,  4.8D-01, r^2= 1.2D+00
   Bfn.  Coefficient  Atom+Function         Bfn.  Coefficient  Atom+Function  
  ----- ------------  ---------------      ----- ------------  ---------------
     6      1.336181  1 O  s                  9      0.895030  1 O  pz         
     2     -0.778750  1 O  s                  5     -0.697465  1 O  pz         
    16      0.308042  2 H  s                 18      0.308042  3 H  s          
    13     -0.287565  1 O  dyy               15     -0.273172  1 O  dzz        
    17     -0.253043  2 H  s                 19     -0.253043  3 H  s          

 Vector   11  Occ=0.000000D+00  E= 8.562040D-01  Symmetry=b2
              MO Center=  3.5D-17, -4.1D-17,  1.1D-01, r^2= 1.1D+00
   Bfn.  Coefficient  Atom+Function         Bfn.  Coefficient  Atom+Function  
  ----- ------------  ---------------      ----- ------------  ---------------
     8     -1.036619  1 O  py                 4      0.961842  1 O  py         
    14      0.033632  1 O  dyz        

 Vector   12  Occ=0.000000D+00  E= 1.030858D+00  Symmetry=b1
              MO Center=  4.5D-16,  5.4D-17,  1.0D-01, r^2= 1.5D+00
   Bfn.  Coefficient  Atom+Function         Bfn.  Coefficient  Atom+Function  
  ----- ------------  ---------------      ----- ------------  ---------------
     7      1.660265  1 O  px                 3     -0.983850  1 O  px         
    17      0.949504  2 H  s                 19     -0.949504  3 H  s          
    12      0.025314  1 O  dxz        

 Vector   13  Occ=0.000000D+00  E= 1.150345D+00  Symmetry=a1
              MO Center= -1.7D-15,  2.3D-17, -3.7D-01, r^2= 1.4D+00
   Bfn.  Coefficient  Atom+Function         Bfn.  Coefficient  Atom+Function  
  ----- ------------  ---------------      ----- ------------  ---------------
     6      3.626571  1 O  s                  2     -1.465867  1 O  s          
     9     -1.093178  1 O  pz                17     -0.808490  2 H  s          
    19     -0.808490  3 H  s                 10     -0.662980  1 O  dxx        
     5      0.408641  1 O  pz                15     -0.370075  1 O  dzz        
    16     -0.317907  2 H  s                 18     -0.317907  3 H  s          

 Vector   14  Occ=0.000000D+00  E= 1.637742D+00  Symmetry=a1
              MO Center=  4.6D-18,  2.4D-16,  1.7D-01, r^2= 6.2D-01
   Bfn.  Coefficient  Atom+Function         Bfn.  Coefficient  Atom+Function  
  ----- ------------  ---------------      ----- ------------  ---------------
    15      1.012570  1 O  dzz               10     -0.574378  1 O  dxx        
    13     -0.358312  1 O  dyy                6     -0.304131  1 O  s          
     9      0.165621  1 O  pz                 2      0.108124  1 O  s          
    16      0.092553  2 H  s                 18      0.092553  3 H  s          
    17      0.053406  2 H  s                 19      0.053406  3 H  s          

 Vector   15  Occ=0.000000D+00  E= 1.653054D+00  Symmetry=a2
              MO Center=  8.3D-17, -5.3D-17,  1.2D-01, r^2= 6.1D-01
   Bfn.  Coefficient  Atom+Function         Bfn.  Coefficient  Atom+Function  
  ----- ------------  ---------------      ----- ------------  ---------------
    11      1.732051  1 O  dxy        

 Vector   16  Occ=0.000000D+00  E= 1.690376D+00  Symmetry=b2
              MO Center= -1.4D-16, -2.9D-16,  1.4D-01, r^2= 6.1D-01
   Bfn.  Coefficient  Atom+Function         Bfn.  Coefficient  Atom+Function  
  ----- ------------  ---------------      ----- ------------  ---------------
    14      1.730516  1 O  dyz                8      0.039198  1 O  py         

 Vector   17  Occ=0.000000D+00  E= 2.201156D+00  Symmetry=a1
              MO Center= -4.7D-16, -2.7D-17, -2.2D-03, r^2= 8.4D-01
   Bfn.  Coefficient  Atom+Function         Bfn.  Coefficient  Atom+Function  
  ----- ------------  ---------------      ----- ------------  ---------------
     6      1.603549  1 O  s                 13     -1.130224  1 O  dyy        
    16     -0.837812  2 H  s                 18     -0.837812  3 H  s          
     9     -0.758397  1 O  pz                10      0.751482  1 O  dxx        
     2     -0.525873  1 O  s                 17     -0.154278  2 H  s          
    19     -0.154278  3 H  s                  5      0.055431  1 O  pz         

 Vector   18  Occ=0.000000D+00  E= 2.496859D+00  Symmetry=b1
              MO Center=  7.7D-17, -1.1D-18,  6.4D-02, r^2= 8.7D-01
   Bfn.  Coefficient  Atom+Function         Bfn.  Coefficient  Atom+Function  
  ----- ------------  ---------------      ----- ------------  ---------------
    12      2.224543  1 O  dxz               16     -0.953580  2 H  s          
    18      0.953580  3 H  s                  7     -0.879586  1 O  px         
    17      0.041213  2 H  s                 19     -0.041213  3 H  s          

 Vector   19  Occ=0.000000D+00  E= 3.468845D+00  Symmetry=a1
              MO Center= -2.6D-16, -3.3D-20,  1.2D-01, r^2= 1.0D+00
   Bfn.  Coefficient  Atom+Function         Bfn.  Coefficient  Atom+Function  
  ----- ------------  ---------------      ----- ------------  ---------------
     6      3.744864  1 O  s                 13     -1.583794  1 O  dyy        
    15     -1.559286  1 O  dzz               10     -1.536799  1 O  dxx        
    17     -0.571807  2 H  s                 19     -0.571807  3 H  s          
     1     -0.466313  1 O  s                  9     -0.336630  1 O  pz         
     2      0.268835  1 O  s                 16      0.124341  2 H  s          


 center of mass
 --------------
 x =   0.00000000 y =   0.00000000 z =   0.09751021

 moments of inertia (a.u.)
 ------------------
           2.193637940261           0.000000000000           0.000000000000
           0.000000000000           6.315440625261           0.000000000000
           0.000000000000           0.000000000000           4.121802685000

     Multipole analysis of the density
     ---------------------------------

     L   x y z        total         alpha         beta         nuclear
     -   - - -        -----         -----         ----         -------
     0   0 0 0     -0.000000     -5.000000     -5.000000     10.000000

     1   1 0 0     -0.000000     -0.000000     -0.000000      0.000000
     1   0 1 0      0.000000      0.000000      0.000000      0.000000
     1   0 0 1     -0.777890     -0.388945     -0.388945      0.000000

     2   2 0 0     -3.152793     -3.621297     -3.621297      4.089800
     2   1 1 0      0.000000      0.000000      0.000000      0.000000
     2   1 0 1      0.000000      0.000000      0.000000      0.000000
     2   0 2 0     -5.316024     -2.658012     -2.658012      0.000000
     2   0 1 1      0.000000      0.000000      0.000000      0.000000
     2   0 0 2     -4.430170     -3.195444     -3.195444      1.960718


            General Information
            -------------------
          SCF calculation type: DFT
          Wavefunction type:  closed shell.
          No. of atoms     :     3
          No. of electrons :    10
           Alpha electrons :     5
            Beta electrons :     5
          Charge           :     0
          Spin multiplicity:     1
          Use of symmetry is: on ; symmetry adaption is: on 
          Maximum number of iterations:  99
          AO basis - number of functions:    19
                     number of shells:    10
          Convergence on energy requested:  1.00D-06
          Convergence on density requested:  1.00D-06
          Convergence on gradient requested:  1.00D-06

              XC Information
              --------------
                        SSB-D Method XC Functional
                        Slater Exchange Functional  1.080 local    
                         SSB-1 Exchange Functional  1.000 non-local
                           KT1 gradient correction  0.359 non-local
            Perdew 1991 LDA Correlation Functional  1.000 local    
              simplified PBE Correlation Potential  1.000 non-local

             Grid Information
             ----------------
          Grid used for XC integration:  fine      
          Radial quadrature: Mura-Knowles        
          Angular quadrature: Lebedev. 
          Tag              B.-S. Rad. Rad. Pts. Rad. Cut. Ang. Pts.
          ---              ---------- --------- --------- ---------
          O                   0.60       70           5.0       590
          H                   0.35       60           6.0       590
          Grid pruning is: on 
          Number of quadrature shells:   130
          Spatial weights used:  Erf1

          Convergence Information
          -----------------------
          Convergence aids based upon iterative change in 
          total energy or number of iterations. 
          Levelshifting, if invoked, occurs when the 
          HOMO/LUMO gap drops below (HL_TOL):  1.00D-02
          DIIS, if invoked, will attempt to extrapolate 
          using up to (NFOCK): 10 stored Fock matrices.

                    Damping(90%)  Levelshifting(0.0)       DIIS
                  --------------- ------------------- ---------------
          dE  on:    start             N/A                start   
          dE off:    2 iters           N/A               99 iters 


      Screening Tolerance Information
      -------------------------------
          Density screening/tol_rho:  1.00D-10
          AO Gaussian exp screening on grid/accAOfunc:  14
          CD Gaussian exp screening on grid/accCDfunc:  20
          XC Gaussian exp screening on grid/accXCfunc:  20
          Schwarz screening/accCoul:  1.00D-08



                            NWChem DFT Gradient Module
                            --------------------------


                                   h2o ssb-d-dft



  charge          =   0.00
  wavefunction    = closed shell

  Using symmetry


                         DFT ENERGY GRADIENTS

    atom               coordinates                        gradient
                 x          y          z           x          y          z
   1 O       0.000000   0.000000   0.221400    0.000000   0.000000  -0.012476
   2 H      -1.430000   0.000000  -0.885600    0.001821   0.000000   0.006238
   3 H       1.430000   0.000000  -0.885600   -0.001821   0.000000   0.006238

                 ----------------------------------------
                 |  Time  |  1-e(secs)   |  2-e(secs)   |
                 ----------------------------------------
                 |  CPU   |       0.00   |       0.01   |
                 ----------------------------------------
                 |  WALL  |       0.00   |       0.01   |
                 ----------------------------------------
  no constraints, skipping    0.0000000000000000     

@ Step       Energy      Delta E   Gmax     Grms     Xrms     Xmax   Walltime
@ ---- ---------------- -------- -------- -------- -------- -------- --------
@    0     -76.93921004  0.0D+00  0.00526  0.00478  0.00000  0.00000      0.2
                                                                    



                                Z-matrix (autoz)
                                -------- 

 Units are Angstrom for bonds and degrees for angles

      Type          Name      I     J     K     L     M      Value     Gradient
      ----------- --------  ----- ----- ----- ----- ----- ---------- ----------
    1 Stretch                  1     2                       0.95697   -0.00526
    2 Stretch                  1     3                       0.95697   -0.00526
    3 Bend                     2     1     3               104.51124    0.00365

  no constraints, skipping    0.0000000000000000     
  no constraints, skipping    0.0000000000000000     
  no constraints, skipping    0.0000000000000000     
  no constraints, skipping    0.0000000000000000     

                                 NWChem DFT Module
                                 -----------------


                                   h2o ssb-d-dft




 Summary of "ao basis" -> "ao basis" (cartesian)
 ------------------------------------------------------------------------------
       Tag                 Description            Shells   Functions and Types
 ---------------- ------------------------------  ------  ---------------------
 O                           6-31g*                  6       15   3s2p1d
 H                           6-31g*                  2        2   2s


      Symmetry analysis of basis
      --------------------------

        a1         10
        a2          1
        b1          5
        b2          3

  Caching 1-el integrals 

            General Information
            -------------------
          SCF calculation type: DFT
          Wavefunction type:  closed shell.
          No. of atoms     :     3
          No. of electrons :    10
           Alpha electrons :     5
            Beta electrons :     5
          Charge           :     0
          Spin multiplicity:     1
          Use of symmetry is: on ; symmetry adaption is: on 
          Maximum number of iterations:  99
          AO basis - number of functions:    19
                     number of shells:    10
          Convergence on energy requested:  1.00D-06
          Convergence on density requested:  1.00D-06
          Convergence on gradient requested:  1.00D-06

              XC Information
              --------------
                        SSB-D Method XC Functional
                        Slater Exchange Functional  1.080 local    
                         SSB-1 Exchange Functional  1.000 non-local
                           KT1 gradient correction  0.359 non-local
            Perdew 1991 LDA Correlation Functional  1.000 local    
              simplified PBE Correlation Potential  1.000 non-local

             Grid Information
             ----------------
          Grid used for XC integration:  fine      
          Radial quadrature: Mura-Knowles        
          Angular quadrature: Lebedev. 
          Tag              B.-S. Rad. Rad. Pts. Rad. Cut. Ang. Pts.
          ---              ---------- --------- --------- ---------
          O                   0.60       70           5.0       590
          H                   0.35       60           6.0       590
          Grid pruning is: on 
          Number of quadrature shells:   130
          Spatial weights used:  Erf1

          Convergence Information
          -----------------------
          Convergence aids based upon iterative change in 
          total energy or number of iterations. 
          Levelshifting, if invoked, occurs when the 
          HOMO/LUMO gap drops below (HL_TOL):  1.00D-02
          DIIS, if invoked, will attempt to extrapolate 
          using up to (NFOCK): 10 stored Fock matrices.

                    Damping(90%)  Levelshifting(0.0)       DIIS
                  --------------- ------------------- ---------------
          dE  on:    start             N/A                start   
          dE off:    2 iters           N/A               99 iters 


      Screening Tolerance Information
      -------------------------------
          Density screening/tol_rho:  1.00D-10
          AO Gaussian exp screening on grid/accAOfunc:  14
          CD Gaussian exp screening on grid/accCDfunc:  20
          XC Gaussian exp screening on grid/accXCfunc:  20
          Schwarz screening/accCoul:  1.00D-08

      Dispersion Parameters
      ---------------------

          s6 scale factor :        0.847455000000
              vdW contrib :       -0.000028397597


 Loading old vectors from job with title :

h2o ssb-d-dft


      Symmetry analysis of molecular orbitals - initial
      -------------------------------------------------

  Numbering of irreducible representations: 

     1 a1          2 a2          3 b1          4 b2      

  Orbital symmetries:

     1 a1          2 a1          3 b1          4 a1          5 b2      
     6 a1          7 b1          8 b1          9 a1         10 a1      
    11 b2         12 b1         13 a1         14 a1         15 a2      

   Time after variat. SCF:      0.2
   Time prior to 1st pass:      0.2

 Grid_pts file          = ./h2o-ssb-d-opt.gridpts.0
 Record size in doubles =  12289        No. of grid_pts per rec  =   3070
 Max. records in memory =      8        Max. recs in file   = 253312716


           Memory utilization after 1st SCF pass: 
           Heap Space remaining (MW):       51.71            51707284
          Stack Space remaining (MW):       86.25            86246932

   convergence    iter        energy       DeltaE   RMS-Dens  Diis-err    time
 ---------------- ----- ----------------- --------- --------- ---------  ------
 d=90,ls=0.0,diis     1    -76.9393119039 -8.61D+01  2.02D-03  5.83D-04     0.3
 d=90,ls=0.0,diis     2    -76.9393245813 -1.27D-05  1.34D-03  4.44D-04     0.3
 d= 0,ls=0.0,diis     3    -76.9393333237 -8.74D-06  1.30D-03  3.72D-04     0.3
 d= 0,ls=0.0,diis     4    -76.9394205598 -8.72D-05  9.34D-06  6.39D-08     0.3
 d= 0,ls=0.0,diis     5    -76.9394205668 -7.04D-09  2.23D-07  2.30D-11     0.3


         Total DFT energy =      -76.939420566796
      One electron energy =     -123.032630325514
           Coulomb energy =       46.858802975259
    Exchange-Corr. energy =       -9.894985622303
 Nuclear repulsion energy =        9.129420803360

    Dispersion correction =       -0.000028397597

 Numeric. integr. density =       10.000000397108

     Total iterative time =      0.1s



                  Occupations of the irreducible representations
                  ----------------------------------------------

                     irrep           alpha         beta
                     --------     --------     --------
                     a1                3.0          3.0
                     a2                0.0          0.0
                     b1                1.0          1.0
                     b2                1.0          1.0


                       DFT Final Molecular Orbital Analysis
                       ------------------------------------

 Vector    1  Occ=2.000000D+00  E=-1.893336D+01  Symmetry=a1
              MO Center=  2.7D-19, -6.9D-30,  1.3D-01, r^2= 1.5D-02
   Bfn.  Coefficient  Atom+Function         Bfn.  Coefficient  Atom+Function  
  ----- ------------  ---------------      ----- ------------  ---------------
     1      0.995139  1 O  s          

 Vector    2  Occ=2.000000D+00  E=-9.393959D-01  Symmetry=a1
              MO Center= -2.4D-16,  1.0D-16, -8.2D-02, r^2= 4.9D-01
   Bfn.  Coefficient  Atom+Function         Bfn.  Coefficient  Atom+Function  
  ----- ------------  ---------------      ----- ------------  ---------------
     2      0.480856  1 O  s                  6      0.417966  1 O  s          
     1     -0.206479  1 O  s                 16      0.141709  2 H  s          
    18      0.141709  3 H  s                  5     -0.130772  1 O  pz         
     9     -0.064363  1 O  pz         

 Vector    3  Occ=2.000000D+00  E=-4.724839D-01  Symmetry=b1
              MO Center=  4.3D-16, -3.6D-19, -1.0D-01, r^2= 7.8D-01
   Bfn.  Coefficient  Atom+Function         Bfn.  Coefficient  Atom+Function  
  ----- ------------  ---------------      ----- ------------  ---------------
     3      0.516329  1 O  px                 7      0.271813  1 O  px         
    16     -0.243676  2 H  s                 18      0.243676  3 H  s          
    17     -0.133185  2 H  s                 19      0.133185  3 H  s          
    12     -0.072513  1 O  dxz        

 Vector    4  Occ=2.000000D+00  E=-3.300464D-01  Symmetry=a1
              MO Center= -4.3D-16, -1.5D-16,  2.0D-01, r^2= 7.0D-01
   Bfn.  Coefficient  Atom+Function         Bfn.  Coefficient  Atom+Function  
  ----- ------------  ---------------      ----- ------------  ---------------
     5      0.545924  1 O  pz                 6      0.406870  1 O  s          
     9      0.365076  1 O  pz                 2      0.194133  1 O  s          
    16     -0.151031  2 H  s                 18     -0.151031  3 H  s          
    17     -0.114565  2 H  s                 19     -0.114565  3 H  s          
     1     -0.090019  1 O  s                 15     -0.053409  1 O  dzz        

 Vector    5  Occ=2.000000D+00  E=-2.378981D-01  Symmetry=b2
              MO Center=  8.4D-17,  2.7D-16,  1.1D-01, r^2= 6.0D-01
   Bfn.  Coefficient  Atom+Function         Bfn.  Coefficient  Atom+Function  
  ----- ------------  ---------------      ----- ------------  ---------------
     4      0.641346  1 O  py                 8      0.509451  1 O  py         
    14     -0.064975  1 O  dyz        

 Vector    6  Occ=0.000000D+00  E= 3.778795D-02  Symmetry=a1
              MO Center= -1.2D-15, -2.0D-16, -6.1D-01, r^2= 2.4D+00
   Bfn.  Coefficient  Atom+Function         Bfn.  Coefficient  Atom+Function  
  ----- ------------  ---------------      ----- ------------  ---------------
     6      1.218028  1 O  s                 17     -0.952809  2 H  s          
    19     -0.952809  3 H  s                  9     -0.482959  1 O  pz         
     5     -0.292404  1 O  pz                 2      0.131151  1 O  s          
    16     -0.109805  2 H  s                 18     -0.109805  3 H  s          
     1     -0.096881  1 O  s                 13     -0.052442  1 O  dyy        

 Vector    7  Occ=0.000000D+00  E= 1.218420D-01  Symmetry=b1
              MO Center=  1.3D-15, -9.9D-19, -5.5D-01, r^2= 2.4D+00
   Bfn.  Coefficient  Atom+Function         Bfn.  Coefficient  Atom+Function  
  ----- ------------  ---------------      ----- ------------  ---------------
    17      1.263081  2 H  s                 19     -1.263081  3 H  s          
     7      0.748019  1 O  px                 3      0.426714  1 O  px         
    16      0.128381  2 H  s                 18     -0.128381  3 H  s          
    12     -0.025475  1 O  dxz        

 Vector    8  Occ=0.000000D+00  E= 7.086831D-01  Symmetry=b1
              MO Center= -9.0D-16,  2.4D-17, -1.7D-01, r^2= 1.6D+00
   Bfn.  Coefficient  Atom+Function         Bfn.  Coefficient  Atom+Function  
  ----- ------------  ---------------      ----- ------------  ---------------
    16      0.830212  2 H  s                 18     -0.830212  3 H  s          
    17     -0.709116  2 H  s                 19      0.709116  3 H  s          
     7      0.376284  1 O  px                12      0.346709  1 O  dxz        
     3      0.184695  1 O  px         

 Vector    9  Occ=0.000000D+00  E= 8.053756D-01  Symmetry=a1
              MO Center=  8.1D-16, -2.2D-17, -3.4D-01, r^2= 1.3D+00
   Bfn.  Coefficient  Atom+Function         Bfn.  Coefficient  Atom+Function  
  ----- ------------  ---------------      ----- ------------  ---------------
    16      0.773278  2 H  s                 18      0.773278  3 H  s          
     5      0.617318  1 O  pz                17     -0.612118  2 H  s          
    19     -0.612118  3 H  s                  6      0.354689  1 O  s          
     2     -0.260137  1 O  s                  9     -0.249957  1 O  pz         
    13     -0.173160  1 O  dyy               10      0.131204  1 O  dxx        

 Vector   10  Occ=0.000000D+00  E= 8.488734D-01  Symmetry=a1
              MO Center=  2.7D-16, -1.3D-17,  4.7D-01, r^2= 1.3D+00
   Bfn.  Coefficient  Atom+Function         Bfn.  Coefficient  Atom+Function  
  ----- ------------  ---------------      ----- ------------  ---------------
     6      1.446402  1 O  s                  9      0.855500  1 O  pz         
     2     -0.833034  1 O  s                  5     -0.648855  1 O  pz         
    16      0.346300  2 H  s                 18      0.346300  3 H  s          
    13     -0.309690  1 O  dyy               17     -0.302356  2 H  s          
    19     -0.302356  3 H  s                 15     -0.282554  1 O  dzz        

 Vector   11  Occ=0.000000D+00  E= 8.557577D-01  Symmetry=b2
              MO Center=  6.1D-18, -3.8D-23,  1.3D-01, r^2= 1.1D+00
   Bfn.  Coefficient  Atom+Function         Bfn.  Coefficient  Atom+Function  
  ----- ------------  ---------------      ----- ------------  ---------------
     8     -1.036779  1 O  py                 4      0.961613  1 O  py         
    14      0.034750  1 O  dyz        

 Vector   12  Occ=0.000000D+00  E= 1.026846D+00  Symmetry=b1
              MO Center= -8.0D-16, -1.1D-16,  1.2D-01, r^2= 1.5D+00
   Bfn.  Coefficient  Atom+Function         Bfn.  Coefficient  Atom+Function  
  ----- ------------  ---------------      ----- ------------  ---------------
     7      1.640406  1 O  px                 3     -0.981886  1 O  px         
    17      0.934700  2 H  s                 19     -0.934700  3 H  s          
    12      0.025982  1 O  dxz        

 Vector   13  Occ=0.000000D+00  E= 1.157148D+00  Symmetry=a1
              MO Center=  9.2D-16,  1.4D-17, -3.6D-01, r^2= 1.4D+00
   Bfn.  Coefficient  Atom+Function         Bfn.  Coefficient  Atom+Function  
  ----- ------------  ---------------      ----- ------------  ---------------
     6      3.556439  1 O  s                  2     -1.432194  1 O  s          
     9     -1.130058  1 O  pz                17     -0.775236  2 H  s          
    19     -0.775236  3 H  s                 10     -0.662280  1 O  dxx        
     5      0.415007  1 O  pz                15     -0.374395  1 O  dzz        
    16     -0.354006  2 H  s                 18     -0.354006  3 H  s          

 Vector   14  Occ=0.000000D+00  E= 1.632457D+00  Symmetry=a1
              MO Center= -1.4D-16, -3.1D-18,  1.9D-01, r^2= 6.2D-01
   Bfn.  Coefficient  Atom+Function         Bfn.  Coefficient  Atom+Function  
  ----- ------------  ---------------      ----- ------------  ---------------
    15      1.005183  1 O  dzz               10     -0.610609  1 O  dxx        
    13     -0.316735  1 O  dyy                6     -0.291699  1 O  s          
     9      0.163980  1 O  pz                 2      0.105105  1 O  s          
    16      0.086074  2 H  s                 18      0.086074  3 H  s          
    17      0.052306  2 H  s                 19      0.052306  3 H  s          

 Vector   15  Occ=0.000000D+00  E= 1.656741D+00  Symmetry=a2
              MO Center= -3.3D-16,  9.0D-17,  1.3D-01, r^2= 6.1D-01
   Bfn.  Coefficient  Atom+Function         Bfn.  Coefficient  Atom+Function  
  ----- ------------  ---------------      ----- ------------  ---------------
    11      1.732051  1 O  dxy        

 Vector   16  Occ=0.000000D+00  E= 1.688770D+00  Symmetry=b2
              MO Center=  2.4D-16,  5.9D-24,  1.6D-01, r^2= 6.1D-01
   Bfn.  Coefficient  Atom+Function         Bfn.  Coefficient  Atom+Function  
  ----- ------------  ---------------      ----- ------------  ---------------
    14      1.730483  1 O  dyz                8      0.039948  1 O  py         

 Vector   17  Occ=0.000000D+00  E= 2.192214D+00  Symmetry=a1
              MO Center=  4.9D-17,  6.2D-18,  3.1D-03, r^2= 8.4D-01
   Bfn.  Coefficient  Atom+Function         Bfn.  Coefficient  Atom+Function  
  ----- ------------  ---------------      ----- ------------  ---------------
     6      1.600297  1 O  s                 13     -1.141619  1 O  dyy        
    16     -0.829747  2 H  s                 18     -0.829747  3 H  s          
     9     -0.775315  1 O  pz                10      0.707923  1 O  dxx        
     2     -0.535302  1 O  s                 17     -0.154230  2 H  s          
    19     -0.154230  3 H  s                 15      0.101023  1 O  dzz        

 Vector   18  Occ=0.000000D+00  E= 2.479573D+00  Symmetry=b1
              MO Center= -8.9D-17, -6.6D-21,  7.5D-02, r^2= 8.7D-01
   Bfn.  Coefficient  Atom+Function         Bfn.  Coefficient  Atom+Function  
  ----- ------------  ---------------      ----- ------------  ---------------
    12      2.211331  1 O  dxz               16     -0.931003  2 H  s          
    18      0.931003  3 H  s                  7     -0.832349  1 O  px         
    17      0.058666  2 H  s                 19     -0.058666  3 H  s          
     3      0.028874  1 O  px         

 Vector   19  Occ=0.000000D+00  E= 3.460904D+00  Symmetry=a1
              MO Center= -2.5D-16, -3.8D-19,  1.3D-01, r^2= 1.0D+00
   Bfn.  Coefficient  Atom+Function         Bfn.  Coefficient  Atom+Function  
  ----- ------------  ---------------      ----- ------------  ---------------
     6      3.718279  1 O  s                 13     -1.583260  1 O  dyy        
    15     -1.552140  1 O  dzz               10     -1.529455  1 O  dxx        
    17     -0.560841  2 H  s                 19     -0.560841  3 H  s          
     1     -0.465159  1 O  s                  9     -0.344514  1 O  pz         
     2      0.275277  1 O  s                  5      0.118916  1 O  pz         


 center of mass
 --------------
 x =   0.00000000 y =   0.00000000 z =   0.11812877

 moments of inertia (a.u.)
 ------------------
           2.343412182247           0.000000000000           0.000000000000
           0.000000000000           6.402818414953           0.000000000000
           0.000000000000           0.000000000000           4.059406232706

     Multipole analysis of the density
     ---------------------------------

     L   x y z        total         alpha         beta         nuclear
     -   - - -        -----         -----         ----         -------
     0   0 0 0     -0.000000     -5.000000     -5.000000     10.000000

     1   1 0 0      0.000000      0.000000      0.000000      0.000000
     1   0 1 0      0.000000      0.000000      0.000000      0.000000
     1   0 0 1     -0.791651     -0.482549     -0.482549      0.173447

     2   2 0 0     -3.219024     -3.623456     -3.623456      4.027888
     2   1 1 0      0.000000      0.000000      0.000000      0.000000
     2   1 0 1      0.000000      0.000000      0.000000      0.000000
     2   0 2 0     -5.327907     -2.663954     -2.663954      0.000000
     2   0 1 1      0.000000      0.000000      0.000000      0.000000
     2   0 0 2     -4.417014     -3.257306     -3.257306      2.097598

 Line search: 
     step= 1.00 grad=-4.3D-04 hess= 2.2D-04 energy=    -76.939421 mode=accept  
 new step= 1.00                   predicted energy=    -76.939421
  no constraints, skipping    0.0000000000000000     
  no constraints, skipping    0.0000000000000000     
  no constraints, skipping    0.0000000000000000     
  no constraints, skipping    0.0000000000000000     

          --------
          Step   1
          --------


                         Geometry "geometry" -> "geometry"
                         ---------------------------------

 Output coordinates in a.u. (scale by  1.000000000 to convert to a.u.)

  No.       Tag          Charge          X              Y              Z
 ---- ---------------- ---------- -------------- -------------- --------------
    1 O                    8.0000     0.00000000     0.00000000     0.24617812
    2 H                    1.0000    -1.41913495     0.00000000    -0.89798906
    3 H                    1.0000     1.41913495     0.00000000    -0.89798906

      Atomic Mass 
      ----------- 

      O                 15.994910
      H                  1.007825


 Effective nuclear repulsion energy (a.u.)       9.1294208034

            Nuclear Dipole moment (a.u.) 
            ----------------------------
        X                 Y               Z
 ---------------- ---------------- ----------------
     0.0000000000     0.0000000000     0.1734468650

      Symmetry information
      --------------------

 Group name             C2v       
 Group number             16
 Group order               4
 No. of unique centers     2

      Symmetry unique atoms

     1    2


                                 NWChem DFT Module
                                 -----------------


                                   h2o ssb-d-dft




 Summary of "ao basis" -> "ao basis" (cartesian)
 ------------------------------------------------------------------------------
       Tag                 Description            Shells   Functions and Types
 ---------------- ------------------------------  ------  ---------------------
 O                           6-31g*                  6       15   3s2p1d
 H                           6-31g*                  2        2   2s


      Symmetry analysis of basis
      --------------------------

        a1         10
        a2          1
        b1          5
        b2          3


  The DFT is already converged 

         Total DFT energy =    -76.939420566796


            General Information
            -------------------
          SCF calculation type: DFT
          Wavefunction type:  closed shell.
          No. of atoms     :     3
          No. of electrons :    10
           Alpha electrons :     5
            Beta electrons :     5
          Charge           :     0
          Spin multiplicity:     1
          Use of symmetry is: on ; symmetry adaption is: on 
          Maximum number of iterations:  99
          AO basis - number of functions:    19
                     number of shells:    10
          Convergence on energy requested:  1.00D-06
          Convergence on density requested:  1.00D-06
          Convergence on gradient requested:  1.00D-06

              XC Information
              --------------
                        SSB-D Method XC Functional
                        Slater Exchange Functional  1.080 local    
                         SSB-1 Exchange Functional  1.000 non-local
                           KT1 gradient correction  0.359 non-local
            Perdew 1991 LDA Correlation Functional  1.000 local    
              simplified PBE Correlation Potential  1.000 non-local

             Grid Information
             ----------------
          Grid used for XC integration:  fine      
          Radial quadrature: Mura-Knowles        
          Angular quadrature: Lebedev. 
          Tag              B.-S. Rad. Rad. Pts. Rad. Cut. Ang. Pts.
          ---              ---------- --------- --------- ---------
          O                   0.60       70           5.0       590
          H                   0.35       60           6.0       590
          Grid pruning is: on 
          Number of quadrature shells:   130
          Spatial weights used:  Erf1

          Convergence Information
          -----------------------
          Convergence aids based upon iterative change in 
          total energy or number of iterations. 
          Levelshifting, if invoked, occurs when the 
          HOMO/LUMO gap drops below (HL_TOL):  1.00D-02
          DIIS, if invoked, will attempt to extrapolate 
          using up to (NFOCK): 10 stored Fock matrices.

                    Damping(90%)  Levelshifting(0.0)       DIIS
                  --------------- ------------------- ---------------
          dE  on:    start             N/A                start   
          dE off:    2 iters           N/A               99 iters 


      Screening Tolerance Information
      -------------------------------
          Density screening/tol_rho:  1.00D-10
          AO Gaussian exp screening on grid/accAOfunc:  14
          CD Gaussian exp screening on grid/accCDfunc:  20
          XC Gaussian exp screening on grid/accXCfunc:  20
          Schwarz screening/accCoul:  1.00D-08



                            NWChem DFT Gradient Module
                            --------------------------


                                   h2o ssb-d-dft



  charge          =   0.00
  wavefunction    = closed shell

  Using symmetry


                         DFT ENERGY GRADIENTS

    atom               coordinates                        gradient
                 x          y          z           x          y          z
   1 O       0.000000   0.000000   0.246178    0.000000   0.000000   0.000812
   2 H      -1.419135   0.000000  -0.897989   -0.001152   0.000000  -0.000406
   3 H       1.419135   0.000000  -0.897989    0.001152   0.000000  -0.000406

                 ----------------------------------------
                 |  Time  |  1-e(secs)   |  2-e(secs)   |
                 ----------------------------------------
                 |  CPU   |       0.00   |       0.01   |
                 ----------------------------------------
                 |  WALL  |       0.00   |       0.01   |
                 ----------------------------------------
  no constraints, skipping    0.0000000000000000     

  Step       Energy      Delta E   Gmax     Grms     Xrms     Xmax   Walltime
  ---- ---------------- -------- -------- -------- -------- -------- --------
@    1     -76.93942057 -2.1D-04  0.00115  0.00097  0.01144  0.02478      0.4
                                                                    



                                Z-matrix (autoz)
                                -------- 

 Units are Angstrom for bonds and degrees for angles

      Type          Name      I     J     K     L     M      Value     Gradient
      ----------- --------  ----- ----- ----- ----- ----- ---------- ----------
    1 Stretch                  1     2                       0.96465    0.00115
    2 Stretch                  1     3                       0.96465    0.00115
    3 Bend                     2     1     3               102.24551    0.00039

  no constraints, skipping    0.0000000000000000     
  no constraints, skipping    0.0000000000000000     
  no constraints, skipping    0.0000000000000000     
  no constraints, skipping    0.0000000000000000     

                                 NWChem DFT Module
                                 -----------------


                                   h2o ssb-d-dft




 Summary of "ao basis" -> "ao basis" (cartesian)
 ------------------------------------------------------------------------------
       Tag                 Description            Shells   Functions and Types
 ---------------- ------------------------------  ------  ---------------------
 O                           6-31g*                  6       15   3s2p1d
 H                           6-31g*                  2        2   2s


      Symmetry analysis of basis
      --------------------------

        a1         10
        a2          1
        b1          5
        b2          3

  Caching 1-el integrals 

            General Information
            -------------------
          SCF calculation type: DFT
          Wavefunction type:  closed shell.
          No. of atoms     :     3
          No. of electrons :    10
           Alpha electrons :     5
            Beta electrons :     5
          Charge           :     0
          Spin multiplicity:     1
          Use of symmetry is: on ; symmetry adaption is: on 
          Maximum number of iterations:  99
          AO basis - number of functions:    19
                     number of shells:    10
          Convergence on energy requested:  1.00D-06
          Convergence on density requested:  1.00D-06
          Convergence on gradient requested:  1.00D-06

              XC Information
              --------------
                        SSB-D Method XC Functional
                        Slater Exchange Functional  1.080 local    
                         SSB-1 Exchange Functional  1.000 non-local
                           KT1 gradient correction  0.359 non-local
            Perdew 1991 LDA Correlation Functional  1.000 local    
              simplified PBE Correlation Potential  1.000 non-local

             Grid Information
             ----------------
          Grid used for XC integration:  fine      
          Radial quadrature: Mura-Knowles        
          Angular quadrature: Lebedev. 
          Tag              B.-S. Rad. Rad. Pts. Rad. Cut. Ang. Pts.
          ---              ---------- --------- --------- ---------
          O                   0.60       70           5.0       590
          H                   0.35       60           6.0       590
          Grid pruning is: on 
          Number of quadrature shells:   130
          Spatial weights used:  Erf1

          Convergence Information
          -----------------------
          Convergence aids based upon iterative change in 
          total energy or number of iterations. 
          Levelshifting, if invoked, occurs when the 
          HOMO/LUMO gap drops below (HL_TOL):  1.00D-02
          DIIS, if invoked, will attempt to extrapolate 
          using up to (NFOCK): 10 stored Fock matrices.

                    Damping(90%)  Levelshifting(0.0)       DIIS
                  --------------- ------------------- ---------------
          dE  on:    start             N/A                start   
          dE off:    2 iters           N/A               99 iters 


      Screening Tolerance Information
      -------------------------------
          Density screening/tol_rho:  1.00D-10
          AO Gaussian exp screening on grid/accAOfunc:  14
          CD Gaussian exp screening on grid/accCDfunc:  20
          XC Gaussian exp screening on grid/accXCfunc:  20
          Schwarz screening/accCoul:  1.00D-08

      Dispersion Parameters
      ---------------------

          s6 scale factor :        0.847455000000
              vdW contrib :       -0.000027554051


 Loading old vectors from job with title :

h2o ssb-d-dft


      Symmetry analysis of molecular orbitals - initial
      -------------------------------------------------

  Numbering of irreducible representations: 

     1 a1          2 a2          3 b1          4 b2      

  Orbital symmetries:

     1 a1          2 a1          3 b1          4 a1          5 b2      
     6 a1          7 b1          8 b1          9 a1         10 a1      
    11 b2         12 b1         13 a1         14 a1         15 a2      

   Time after variat. SCF:      0.4
   Time prior to 1st pass:      0.4

 Grid_pts file          = ./h2o-ssb-d-opt.gridpts.0
 Record size in doubles =  12289        No. of grid_pts per rec  =   3070
 Max. records in memory =      8        Max. recs in file   = 253312716


           Memory utilization after 1st SCF pass: 
           Heap Space remaining (MW):       51.71            51707284
          Stack Space remaining (MW):       86.25            86246932

   convergence    iter        energy       DeltaE   RMS-Dens  Diis-err    time
 ---------------- ----- ----------------- --------- --------- ---------  ------
 d=90,ls=0.0,diis     1    -76.9394216567 -8.61D+01  1.70D-04  1.61D-05     0.4
 d=90,ls=0.0,diis     2    -76.9394218894 -2.33D-07  1.29D-04  1.19D-05     0.4
 d= 0,ls=0.0,diis     3    -76.9394220387 -1.49D-07  1.12D-04  9.97D-06     0.4
 d= 0,ls=0.0,diis     4    -76.9394235079 -1.47D-06  4.56D-06  2.11D-08     0.4
 d= 0,ls=0.0,diis     5    -76.9394235100 -2.12D-09  1.70D-07  2.25D-11     0.5


         Total DFT energy =      -76.939423510043
      One electron energy =     -123.057902258744
           Coulomb energy =       46.870781386402
    Exchange-Corr. energy =       -9.896475136039
 Nuclear repulsion energy =        9.144200052389

    Dispersion correction =       -0.000027554051

 Numeric. integr. density =       10.000000392942

     Total iterative time =      0.1s



                  Occupations of the irreducible representations
                  ----------------------------------------------

                     irrep           alpha         beta
                     --------     --------     --------
                     a1                3.0          3.0
                     a2                0.0          0.0
                     b1                1.0          1.0
                     b2                1.0          1.0


                       DFT Final Molecular Orbital Analysis
                       ------------------------------------

 Vector    1  Occ=2.000000D+00  E=-1.893323D+01  Symmetry=a1
              MO Center= -1.2D-18,  2.2D-30,  1.3D-01, r^2= 1.5D-02
   Bfn.  Coefficient  Atom+Function         Bfn.  Coefficient  Atom+Function  
  ----- ------------  ---------------      ----- ------------  ---------------
     1      0.995139  1 O  s          

 Vector    2  Occ=2.000000D+00  E=-9.402851D-01  Symmetry=a1
              MO Center= -4.5D-18,  6.6D-18, -8.2D-02, r^2= 4.9D-01
   Bfn.  Coefficient  Atom+Function         Bfn.  Coefficient  Atom+Function  
  ----- ------------  ---------------      ----- ------------  ---------------
     2      0.480677  1 O  s                  6      0.417072  1 O  s          
     1     -0.206375  1 O  s                 16      0.142149  2 H  s          
    18      0.142149  3 H  s                  5     -0.131428  1 O  pz         
     9     -0.064401  1 O  pz         

 Vector    3  Occ=2.000000D+00  E=-4.724664D-01  Symmetry=b1
              MO Center= -1.2D-17, -3.2D-41, -1.0D-01, r^2= 7.8D-01
   Bfn.  Coefficient  Atom+Function         Bfn.  Coefficient  Atom+Function  
  ----- ------------  ---------------      ----- ------------  ---------------
     3      0.516709  1 O  px                 7      0.271848  1 O  px         
    16     -0.243649  2 H  s                 18      0.243649  3 H  s          
    17     -0.133218  2 H  s                 19      0.133218  3 H  s          
    12     -0.072720  1 O  dxz        

 Vector    4  Occ=2.000000D+00  E=-3.307416D-01  Symmetry=a1
              MO Center= -1.6D-19, -5.6D-34,  2.0D-01, r^2= 7.0D-01
   Bfn.  Coefficient  Atom+Function         Bfn.  Coefficient  Atom+Function  
  ----- ------------  ---------------      ----- ------------  ---------------
     5      0.545687  1 O  pz                 6      0.407768  1 O  s          
     9      0.364483  1 O  pz                 2      0.194715  1 O  s          
    16     -0.151139  2 H  s                 18     -0.151139  3 H  s          
    17     -0.114217  2 H  s                 19     -0.114217  3 H  s          
     1     -0.090270  1 O  s                 15     -0.053572  1 O  dzz        

 Vector    5  Occ=2.000000D+00  E=-2.381063D-01  Symmetry=b2
              MO Center= -4.3D-17, -1.8D-15,  1.1D-01, r^2= 6.0D-01
   Bfn.  Coefficient  Atom+Function         Bfn.  Coefficient  Atom+Function  
  ----- ------------  ---------------      ----- ------------  ---------------
     4      0.641347  1 O  py                 8      0.509442  1 O  py         
    14     -0.065264  1 O  dyz        

 Vector    6  Occ=0.000000D+00  E= 3.819138D-02  Symmetry=a1
              MO Center=  1.2D-15,  1.9D-15, -6.1D-01, r^2= 2.4D+00
   Bfn.  Coefficient  Atom+Function         Bfn.  Coefficient  Atom+Function  
  ----- ------------  ---------------      ----- ------------  ---------------
     6      1.220445  1 O  s                 17     -0.954063  2 H  s          
    19     -0.954063  3 H  s                  9     -0.483755  1 O  pz         
     5     -0.292155  1 O  pz                 2      0.130757  1 O  s          
    16     -0.108904  2 H  s                 18     -0.108904  3 H  s          
     1     -0.096815  1 O  s                 13     -0.052607  1 O  dyy        

 Vector    7  Occ=0.000000D+00  E= 1.223481D-01  Symmetry=b1
              MO Center= -1.4D-15, -1.8D-18, -5.5D-01, r^2= 2.4D+00
   Bfn.  Coefficient  Atom+Function         Bfn.  Coefficient  Atom+Function  
  ----- ------------  ---------------      ----- ------------  ---------------
    17      1.266968  2 H  s                 19     -1.266968  3 H  s          
     7      0.748128  1 O  px                 3      0.426269  1 O  px         
    16      0.128297  2 H  s                 18     -0.128297  3 H  s          
    12     -0.025516  1 O  dxz        

 Vector    8  Occ=0.000000D+00  E= 7.083006D-01  Symmetry=b1
              MO Center= -2.8D-17,  8.4D-33, -1.7D-01, r^2= 1.6D+00
   Bfn.  Coefficient  Atom+Function         Bfn.  Coefficient  Atom+Function  
  ----- ------------  ---------------      ----- ------------  ---------------
    16      0.830118  2 H  s                 18     -0.830118  3 H  s          
    17     -0.706674  2 H  s                 19      0.706674  3 H  s          
     7      0.381641  1 O  px                12      0.345876  1 O  dxz        
     3      0.181980  1 O  px         

 Vector    9  Occ=0.000000D+00  E= 8.078964D-01  Symmetry=a1
              MO Center=  5.4D-17, -1.3D-16, -3.2D-01, r^2= 1.3D+00
   Bfn.  Coefficient  Atom+Function         Bfn.  Coefficient  Atom+Function  
  ----- ------------  ---------------      ----- ------------  ---------------
    16      0.765364  2 H  s                 18      0.765364  3 H  s          
     5      0.633435  1 O  pz                17     -0.606001  2 H  s          
    19     -0.606001  3 H  s                  6      0.333137  1 O  s          
     9     -0.269131  1 O  pz                 2     -0.248091  1 O  s          
    13     -0.169003  1 O  dyy               10      0.133041  1 O  dxx        

 Vector   10  Occ=0.000000D+00  E= 8.489699D-01  Symmetry=a1
              MO Center= -5.3D-17,  8.6D-18,  4.5D-01, r^2= 1.3D+00
   Bfn.  Coefficient  Atom+Function         Bfn.  Coefficient  Atom+Function  
  ----- ------------  ---------------      ----- ------------  ---------------
     6      1.457137  1 O  s                  9      0.849743  1 O  pz         
     2     -0.840832  1 O  s                  5     -0.634412  1 O  pz         
    16      0.362459  2 H  s                 18      0.362459  3 H  s          
    13     -0.314248  1 O  dyy               17     -0.314695  2 H  s          
    19     -0.314695  3 H  s                 15     -0.283408  1 O  dzz        

 Vector   11  Occ=0.000000D+00  E= 8.556788D-01  Symmetry=b2
              MO Center= -3.2D-17,  6.8D-21,  1.3D-01, r^2= 1.1D+00
   Bfn.  Coefficient  Atom+Function         Bfn.  Coefficient  Atom+Function  
  ----- ------------  ---------------      ----- ------------  ---------------
     8     -1.036777  1 O  py                 4      0.961612  1 O  py         
    14      0.034867  1 O  dyz        

 Vector   12  Occ=0.000000D+00  E= 1.026916D+00  Symmetry=b1
              MO Center= -4.6D-16, -5.7D-17,  1.2D-01, r^2= 1.5D+00
   Bfn.  Coefficient  Atom+Function         Bfn.  Coefficient  Atom+Function  
  ----- ------------  ---------------      ----- ------------  ---------------
     7      1.639149  1 O  px                 3     -0.982461  1 O  px         
    17      0.939256  2 H  s                 19     -0.939256  3 H  s          

 Vector   13  Occ=0.000000D+00  E= 1.158460D+00  Symmetry=a1
              MO Center= -3.7D-17,  6.6D-18, -3.6D-01, r^2= 1.4D+00
   Bfn.  Coefficient  Atom+Function         Bfn.  Coefficient  Atom+Function  
  ----- ------------  ---------------      ----- ------------  ---------------
     6      3.558259  1 O  s                  2     -1.430422  1 O  s          
     9     -1.134527  1 O  pz                17     -0.775152  2 H  s          
    19     -0.775152  3 H  s                 10     -0.662342  1 O  dxx        
     5      0.413713  1 O  pz                15     -0.375218  1 O  dzz        
    16     -0.357887  2 H  s                 18     -0.357887  3 H  s          

 Vector   14  Occ=0.000000D+00  E= 1.631218D+00  Symmetry=a1
              MO Center=  1.5D-17, -6.9D-18,  1.9D-01, r^2= 6.2D-01
   Bfn.  Coefficient  Atom+Function         Bfn.  Coefficient  Atom+Function  
  ----- ------------  ---------------      ----- ------------  ---------------
    15      1.004085  1 O  dzz               10     -0.615072  1 O  dxx        
    13     -0.311380  1 O  dyy                6     -0.291522  1 O  s          
     9      0.164162  1 O  pz                 2      0.104900  1 O  s          
    16      0.085546  2 H  s                 18      0.085546  3 H  s          
    17      0.052582  2 H  s                 19      0.052582  3 H  s          

 Vector   15  Occ=0.000000D+00  E= 1.656669D+00  Symmetry=a2
              MO Center=  7.0D-16,  5.9D-17,  1.3D-01, r^2= 6.1D-01
   Bfn.  Coefficient  Atom+Function         Bfn.  Coefficient  Atom+Function  
  ----- ------------  ---------------      ----- ------------  ---------------
    11      1.732051  1 O  dxy        

 Vector   16  Occ=0.000000D+00  E= 1.688171D+00  Symmetry=b2
              MO Center= -6.2D-16, -3.4D-24,  1.6D-01, r^2= 6.1D-01
   Bfn.  Coefficient  Atom+Function         Bfn.  Coefficient  Atom+Function  
  ----- ------------  ---------------      ----- ------------  ---------------
    14      1.730470  1 O  dyz                8      0.040103  1 O  py         

 Vector   17  Occ=0.000000D+00  E= 2.194185D+00  Symmetry=a1
              MO Center=  7.7D-17,  3.9D-17,  2.6D-03, r^2= 8.4D-01
   Bfn.  Coefficient  Atom+Function         Bfn.  Coefficient  Atom+Function  
  ----- ------------  ---------------      ----- ------------  ---------------
     6      1.610361  1 O  s                 13     -1.144212  1 O  dyy        
    16     -0.833713  2 H  s                 18     -0.833713  3 H  s          
     9     -0.781575  1 O  pz                10      0.703024  1 O  dxx        
     2     -0.536657  1 O  s                 17     -0.156485  2 H  s          
    19     -0.156485  3 H  s                 15      0.107453  1 O  dzz        

 Vector   18  Occ=0.000000D+00  E= 2.481452D+00  Symmetry=b1
              MO Center= -1.0D-16,  2.9D-21,  7.6D-02, r^2= 8.7D-01
   Bfn.  Coefficient  Atom+Function         Bfn.  Coefficient  Atom+Function  
  ----- ------------  ---------------      ----- ------------  ---------------
    12      2.214602  1 O  dxz               16     -0.932895  2 H  s          
    18      0.932895  3 H  s                  7     -0.830971  1 O  px         
    17      0.059004  2 H  s                 19     -0.059004  3 H  s          
     3      0.026755  1 O  px         

 Vector   19  Occ=0.000000D+00  E= 3.461106D+00  Symmetry=a1
              MO Center= -4.0D-17, -6.8D-20,  1.3D-01, r^2= 1.0D+00
   Bfn.  Coefficient  Atom+Function         Bfn.  Coefficient  Atom+Function  
  ----- ------------  ---------------      ----- ------------  ---------------
     6      3.720634  1 O  s                 13     -1.583370  1 O  dyy        
    15     -1.552333  1 O  dzz               10     -1.530183  1 O  dxx        
    17     -0.561475  2 H  s                 19     -0.561475  3 H  s          
     1     -0.465246  1 O  s                  9     -0.345623  1 O  pz         
     2      0.274689  1 O  s                  5      0.119466  1 O  pz         


 center of mass
 --------------
 x =   0.00000000 y =   0.00000000 z =   0.11917812

 moments of inertia (a.u.)
 ------------------
           2.351166962404           0.000000000000           0.000000000000
           0.000000000000           6.381282072543           0.000000000000
           0.000000000000           0.000000000000           4.030115110139

     Multipole analysis of the density
     ---------------------------------

     L   x y z        total         alpha         beta         nuclear
     -   - - -        -----         -----         ----         -------
     0   0 0 0     -0.000000     -5.000000     -5.000000     10.000000

     1   1 0 0      0.000000      0.000000      0.000000      0.000000
     1   0 1 0      0.000000      0.000000      0.000000      0.000000
     1   0 0 1     -0.793153     -0.487714     -0.487714      0.182274

     2   2 0 0     -3.229985     -3.614404     -3.614404      3.998824
     2   1 1 0      0.000000      0.000000      0.000000      0.000000
     2   1 0 1      0.000000      0.000000      0.000000      0.000000
     2   0 2 0     -5.325806     -2.662903     -2.662903      0.000000
     2   0 1 1      0.000000      0.000000      0.000000      0.000000
     2   0 0 2     -4.412492     -3.258668     -3.258668      2.104843

 Line search: 
     step= 1.00 grad=-1.0D-05 hess= 7.3D-06 energy=    -76.939424 mode=accept  
 new step= 1.00                   predicted energy=    -76.939424
  no constraints, skipping    0.0000000000000000     
  no constraints, skipping    0.0000000000000000     
  no constraints, skipping    0.0000000000000000     
  no constraints, skipping    0.0000000000000000     

          --------
          Step   2
          --------


                         Geometry "geometry" -> "geometry"
                         ---------------------------------

 Output coordinates in a.u. (scale by  1.000000000 to convert to a.u.)

  No.       Tag          Charge          X              Y              Z
 ---- ---------------- ---------- -------------- -------------- --------------
    1 O                    8.0000     0.00000000     0.00000000     0.24743917
    2 H                    1.0000    -1.41400571     0.00000000    -0.89861958
    3 H                    1.0000     1.41400571     0.00000000    -0.89861958

      Atomic Mass 
      ----------- 

      O                 15.994910
      H                  1.007825


 Effective nuclear repulsion energy (a.u.)       9.1442000524

            Nuclear Dipole moment (a.u.) 
            ----------------------------
        X                 Y               Z
[...]
     9     -1.132984  1 O  pz                17     -0.775364  2 H  s          
    19     -0.775364  3 H  s                 10     -0.662342  1 O  dxx        
     5      0.414074  1 O  pz                15     -0.374931  1 O  dzz        
    16     -0.356521  2 H  s                 18     -0.356521  3 H  s          

 Vector   14  Occ=0.000000D+00  E= 1.631619D+00  Symmetry=a1
              MO Center= -9.2D-17,  1.6D-17,  1.9D-01, r^2= 6.2D-01
   Bfn.  Coefficient  Atom+Function         Bfn.  Coefficient  Atom+Function  
  ----- ------------  ---------------      ----- ------------  ---------------
    15      1.004471  1 O  dzz               10     -0.613523  1 O  dxx        
    13     -0.313231  1 O  dyy                6     -0.291678  1 O  s          
     9      0.164133  1 O  pz                 2      0.104991  1 O  s          
    16      0.085752  2 H  s                 18      0.085752  3 H  s          
    17      0.052510  2 H  s                 19      0.052510  3 H  s          

 Vector   15  Occ=0.000000D+00  E= 1.656670D+00  Symmetry=a2
              MO Center= -4.1D-17,  1.6D-17,  1.3D-01, r^2= 6.1D-01
   Bfn.  Coefficient  Atom+Function         Bfn.  Coefficient  Atom+Function  
  ----- ------------  ---------------      ----- ------------  ---------------
    11      1.732051  1 O  dxy        

 Vector   16  Occ=0.000000D+00  E= 1.688361D+00  Symmetry=b2
              MO Center=  2.7D-16,  3.2D-25,  1.6D-01, r^2= 6.1D-01
   Bfn.  Coefficient  Atom+Function         Bfn.  Coefficient  Atom+Function  
  ----- ------------  ---------------      ----- ------------  ---------------
    14      1.730474  1 O  dyz                8      0.040053  1 O  py         

 Vector   17  Occ=0.000000D+00  E= 2.193630D+00  Symmetry=a1
              MO Center=  1.5D-16, -1.3D-17,  2.7D-03, r^2= 8.4D-01
   Bfn.  Coefficient  Atom+Function         Bfn.  Coefficient  Atom+Function  
  ----- ------------  ---------------      ----- ------------  ---------------
     6      1.607341  1 O  s                 13     -1.143374  1 O  dyy        
    16     -0.832551  2 H  s                 18     -0.832551  3 H  s          
     9     -0.779590  1 O  pz                10      0.704751  1 O  dxx        
     2     -0.536199  1 O  s                 17     -0.155808  2 H  s          
    19     -0.155808  3 H  s                 15      0.105239  1 O  dzz        

 Vector   18  Occ=0.000000D+00  E= 2.480993D+00  Symmetry=b1
              MO Center= -6.8D-17, -3.1D-21,  7.6D-02, r^2= 8.7D-01
   Bfn.  Coefficient  Atom+Function         Bfn.  Coefficient  Atom+Function  
  ----- ------------  ---------------      ----- ------------  ---------------
    12      2.213697  1 O  dxz               16     -0.932452  2 H  s          
    18      0.932452  3 H  s                  7     -0.831643  1 O  px         
    17      0.058812  2 H  s                 19     -0.058812  3 H  s          
     3      0.027364  1 O  px         

 Vector   19  Occ=0.000000D+00  E= 3.461090D+00  Symmetry=a1
              MO Center=  3.6D-17, -8.5D-20,  1.3D-01, r^2= 1.0D+00
   Bfn.  Coefficient  Atom+Function         Bfn.  Coefficient  Atom+Function  
  ----- ------------  ---------------      ----- ------------  ---------------
     6      3.720078  1 O  s                 13     -1.583342  1 O  dyy        
    15     -1.552316  1 O  dzz               10     -1.530002  1 O  dxx        
    17     -0.561346  2 H  s                 19     -0.561346  3 H  s          
     1     -0.465226  1 O  s                  9     -0.345249  1 O  pz         
     2      0.274829  1 O  s                  5      0.119299  1 O  pz         


 center of mass
 --------------
 x =   0.00000000 y =   0.00000000 z =   0.11874944

 moments of inertia (a.u.)
 ------------------
           2.347997430705           0.000000000000           0.000000000000
           0.000000000000           6.387280823594           0.000000000000
           0.000000000000           0.000000000000           4.039283392889

     Multipole analysis of the density
     ---------------------------------

     L   x y z        total         alpha         beta         nuclear
     -   - - -        -----         -----         ----         -------
     0   0 0 0     -0.000000     -5.000000     -5.000000     10.000000

     1   1 0 0      0.000000      0.000000      0.000000      0.000000
     1   0 1 0      0.000000      0.000000      0.000000      0.000000
     1   0 0 1     -0.792627     -0.485648     -0.485648      0.178668

     2   2 0 0     -3.226316     -3.617119     -3.617119      4.007921
     2   1 1 0      0.000000      0.000000      0.000000      0.000000
     2   1 0 1     -0.000000     -0.000000     -0.000000      0.000000
     2   0 2 0     -5.326374     -2.663187     -2.663187      0.000000
     2   0 1 1      0.000000      0.000000      0.000000      0.000000
     2   0 0 2     -4.413927     -3.257904     -3.257904      2.101880

 Line search: 
     step= 1.00 grad=-1.3D-06 hess= 6.7D-07 energy=    -76.939424 mode=accept  
 new step= 1.00                   predicted energy=    -76.939424
  no constraints, skipping    0.0000000000000000     
  no constraints, skipping    0.0000000000000000     
  no constraints, skipping    0.0000000000000000     

          --------
          Step   3
          --------


                         Geometry "geometry" -> "geometry"
                         ---------------------------------

 Output coordinates in a.u. (scale by  1.000000000 to convert to a.u.)

  No.       Tag          Charge          X              Y              Z
 ---- ---------------- ---------- -------------- -------------- --------------
    1 O                    8.0000     0.00000000     0.00000000     0.24692401
    2 H                    1.0000    -1.41561319     0.00000000    -0.89836200
    3 H                    1.0000     1.41561319     0.00000000    -0.89836200

      Atomic Mass 
      ----------- 

      O                 15.994910
      H                  1.007825


 Effective nuclear repulsion energy (a.u.)       9.1401152568

            Nuclear Dipole moment (a.u.) 
            ----------------------------
        X                 Y               Z
 ---------------- ---------------- ----------------
     0.0000000000     0.0000000000     0.1786680392

      Symmetry information
      --------------------

 Group name             C2v       
 Group number             16
 Group order               4
 No. of unique centers     2

      Symmetry unique atoms

     1    2


                                 NWChem DFT Module
                                 -----------------


                                   h2o ssb-d-dft




 Summary of "ao basis" -> "ao basis" (cartesian)
 ------------------------------------------------------------------------------
       Tag                 Description            Shells   Functions and Types
 ---------------- ------------------------------  ------  ---------------------
 O                           6-31g*                  6       15   3s2p1d
 H                           6-31g*                  2        2   2s


      Symmetry analysis of basis
      --------------------------

        a1         10
        a2          1
        b1          5
        b2          3


  The DFT is already converged 

         Total DFT energy =    -76.939424175692


            General Information
            -------------------
          SCF calculation type: DFT
          Wavefunction type:  closed shell.
          No. of atoms     :     3
          No. of electrons :    10
           Alpha electrons :     5
            Beta electrons :     5
          Charge           :     0
          Spin multiplicity:     1
          Use of symmetry is: on ; symmetry adaption is: on 
          Maximum number of iterations:  99
          AO basis - number of functions:    19
                     number of shells:    10
          Convergence on energy requested:  1.00D-06
          Convergence on density requested:  1.00D-06
          Convergence on gradient requested:  1.00D-06

              XC Information
              --------------
                        SSB-D Method XC Functional
                        Slater Exchange Functional  1.080 local    
                         SSB-1 Exchange Functional  1.000 non-local
                           KT1 gradient correction  0.359 non-local
            Perdew 1991 LDA Correlation Functional  1.000 local    
              simplified PBE Correlation Potential  1.000 non-local

             Grid Information
             ----------------
          Grid used for XC integration:  fine      
          Radial quadrature: Mura-Knowles        
          Angular quadrature: Lebedev. 
          Tag              B.-S. Rad. Rad. Pts. Rad. Cut. Ang. Pts.
          ---              ---------- --------- --------- ---------
          O                   0.60       70           5.0       590
          H                   0.35       60           6.0       590
          Grid pruning is: on 
          Number of quadrature shells:   130
          Spatial weights used:  Erf1

          Convergence Information
          -----------------------
          Convergence aids based upon iterative change in 
          total energy or number of iterations. 
          Levelshifting, if invoked, occurs when the 
          HOMO/LUMO gap drops below (HL_TOL):  1.00D-02
          DIIS, if invoked, will attempt to extrapolate 
          using up to (NFOCK): 10 stored Fock matrices.

                    Damping(90%)  Levelshifting(0.0)       DIIS
                  --------------- ------------------- ---------------
          dE  on:    start             N/A                start   
          dE off:    2 iters           N/A               99 iters 


      Screening Tolerance Information
      -------------------------------
          Density screening/tol_rho:  1.00D-10
          AO Gaussian exp screening on grid/accAOfunc:  14
          CD Gaussian exp screening on grid/accCDfunc:  20
          XC Gaussian exp screening on grid/accXCfunc:  20
          Schwarz screening/accCoul:  1.00D-08



                            NWChem DFT Gradient Module
                            --------------------------


                                   h2o ssb-d-dft



  charge          =   0.00
  wavefunction    = closed shell

  Using symmetry


                         DFT ENERGY GRADIENTS

    atom               coordinates                        gradient
                 x          y          z           x          y          z
   1 O       0.000000   0.000000   0.246924    0.000000   0.000000   0.000001
   2 H      -1.415613   0.000000  -0.898362   -0.000002   0.000000  -0.000001
   3 H       1.415613   0.000000  -0.898362    0.000002   0.000000  -0.000001

                 ----------------------------------------
                 |  Time  |  1-e(secs)   |  2-e(secs)   |
                 ----------------------------------------
                 |  CPU   |       0.00   |       0.01   |
                 ----------------------------------------
                 |  WALL  |       0.00   |       0.01   |
                 ----------------------------------------
  no constraints, skipping    0.0000000000000000     

  Step       Energy      Delta E   Gmax     Grms     Xrms     Xmax   Walltime
  ---- ---------------- -------- -------- -------- -------- -------- --------
@    3     -76.93942418 -6.7D-07  0.00000  0.00000  0.00079  0.00161      0.7
                                     ok       ok       ok       ok  



                                Z-matrix (autoz)
                                -------- 

 Units are Angstrom for bonds and degrees for angles

      Type          Name      I     J     K     L     M      Value     Gradient
      ----------- --------  ----- ----- ----- ----- ----- ---------- ----------
    1 Stretch                  1     2                       0.96357    0.00000
    2 Stretch                  1     3                       0.96357    0.00000
    3 Bend                     2     1     3               102.05159    0.00000


      ----------------------
      Optimization converged
      ----------------------


  Step       Energy      Delta E   Gmax     Grms     Xrms     Xmax   Walltime
  ---- ---------------- -------- -------- -------- -------- -------- --------
@    3     -76.93942418 -6.7D-07  0.00000  0.00000  0.00079  0.00161      0.7
                                     ok       ok       ok       ok  



                                Z-matrix (autoz)
                                -------- 

 Units are Angstrom for bonds and degrees for angles

      Type          Name      I     J     K     L     M      Value     Gradient
      ----------- --------  ----- ----- ----- ----- ----- ---------- ----------
    1 Stretch                  1     2                       0.96357    0.00000
    2 Stretch                  1     3                       0.96357    0.00000
    3 Bend                     2     1     3               102.05159    0.00000



                         Geometry "geometry" -> "geometry"
                         ---------------------------------

 Output coordinates in a.u. (scale by  1.000000000 to convert to a.u.)

  No.       Tag          Charge          X              Y              Z
 ---- ---------------- ---------- -------------- -------------- --------------
    1 O                    8.0000     0.00000000     0.00000000     0.24692401
    2 H                    1.0000    -1.41561319     0.00000000    -0.89836200
    3 H                    1.0000     1.41561319     0.00000000    -0.89836200

      Atomic Mass 
      ----------- 

      O                 15.994910
      H                  1.007825


 Effective nuclear repulsion energy (a.u.)       9.1401152568

            Nuclear Dipole moment (a.u.) 
            ----------------------------
        X                 Y               Z
 ---------------- ---------------- ----------------
     0.0000000000     0.0000000000     0.1786680392

      Symmetry information
      --------------------

 Group name             C2v       
 Group number             16
 Group order               4
 No. of unique centers     2

      Symmetry unique atoms

     1    2


                Final and change from initial internal coordinates
                --------------------------------------------------



                                Z-matrix (autoz)
                                -------- 

 Units are Angstrom for bonds and degrees for angles

      Type          Name      I     J     K     L     M      Value       Change
      ----------- --------  ----- ----- ----- ----- ----- ---------- ----------
    1 Stretch                  1     2                       0.96357    0.00660
    2 Stretch                  1     3                       0.96357    0.00660
    3 Bend                     2     1     3               102.05159   -2.45964

 ==============================================================================
                                internuclear distances
 ------------------------------------------------------------------------------
       center one      |      center two      | atomic units |       a.u.
 ------------------------------------------------------------------------------
    2 H                |   1 O                |     1.82089  |     1.82089
    3 H                |   1 O                |     1.82089  |     1.82089
 ------------------------------------------------------------------------------
                         number of included internuclear distances:          2
 ==============================================================================



 ==============================================================================
                                 internuclear angles
 ------------------------------------------------------------------------------
        center 1       |       center 2       |       center 3       |  degrees
 ------------------------------------------------------------------------------
    2 H                |   1 O                |   3 H                |   102.05
 ------------------------------------------------------------------------------
                            number of included internuclear angles:          1
 ==============================================================================




 Task  times  cpu:        0.6s     wall:        0.6s


                                NWChem Input Module
                                -------------------


 Summary of allocated global arrays
-----------------------------------
  No active global arrays



                         GA Statistics for process    0
                         ------------------------------

       create   destroy   get      put      acc     scatter   gather  read&inc
calls:  832      832     9825     1789     3129        0        0     1792     
number of processes/call 1.34e+00 1.40e+00 1.31e+00 0.00e+00 0.00e+00
bytes total:             4.62e+06 1.14e+06 2.36e+06 0.00e+00 0.00e+00 1.43e+04
bytes remote:            1.28e+06 2.24e+05 5.76e+05 0.00e+00 0.00e+00 0.00e+00
Max memory consumed for GA by this process: 66440 bytes

MA_summarize_allocated_blocks: starting scan ...
MA_summarize_allocated_blocks: scan completed: 0 heap blocks, 0 stack blocks
MA usage statistics:

	allocation statistics:
					      heap	     stack
					      ----	     -----
	current number of blocks	         0	         0
	maximum number of blocks	        26	        57
	current total bytes		         0	         0
	maximum total bytes		 276320320	  22510568
	maximum total K-bytes		    276321	     22511
	maximum total M-bytes		       277	        23


                                     CITATION
                                     --------
                Please cite the following reference when publishing
                           results obtained with NWChem:

                 M. Valiev, E.J. Bylaska, N. Govind, K. Kowalski,
              T.P. Straatsma, H.J.J. van Dam, D. Wang, J. Nieplocha,
                        E. Apra, T.L. Windus, W.A. de Jong
                 "NWChem: a comprehensive and scalable open-source
                  solution for large scale molecular simulations"
                      Comput. Phys. Commun. 181, 1477 (2010)
                           doi:10.1016/j.cpc.2010.04.018

                                      AUTHORS
                                      -------
          E. Apra, E. J. Bylaska, W. A. de Jong, N. Govind, K. Kowalski,
       T. P. Straatsma, M. Valiev, H. J. J. van Dam, D. Wang, T. L. Windus,
        J. Hammond, J. Autschbach, K. Bhaskaran-Nair, J. Brabec, K. Lopata,
    S. A. Fischer, S. Krishnamoorthy, M. Jacquelin, W. Ma, M. Klemm, O. Villa,
      Y. Chen, V. Anisimov, F. Aquino, S. Hirata, M. T. Hackler, V. Konjkov,
            D. Mejia-Rodriguez, T. Risthaus, M. Malagoli, A. Marenich,
   A. Otero-de-la-Roza, J. Mullin, P. Nichols, R. Peverati, J. Pittner, Y. Zhao,
        P.-D. Fan, A. Fonari, M. J. Williamson, R. J. Harrison, J. R. Rehr,
      M. Dupuis, D. Silverstein, D. M. A. Smith, J. Nieplocha, V. Tipparaju,
    M. Krishnan, B. E. Van Kuiken, A. Vazquez-Mayagoitia, L. Jensen, M. Swart,
      Q. Wu, T. Van Voorhis, A. A. Auer, M. Nooijen, L. D. Crosby, E. Brown,
      G. Cisneros, G. I. Fann, H. Fruchtl, J. Garza, K. Hirao, R. A. Kendall,
      J. A. Nichols, K. Tsemekhman, K. Wolinski, J. Anchell, D. E. Bernholdt,
      P. Borowski, T. Clark, D. Clerc, H. Dachsel, M. J. O. Deegan, K. Dyall,
    D. Elwood, E. Glendening, M. Gutowski, A. C. Hess, J. Jaffe, B. G. Johnson,
     J. Ju, R. Kobayashi, R. Kutteh, Z. Lin, R. Littlefield, X. Long, B. Meng,
      T. Nakajima, S. Niu, L. Pollack, M. Rosing, K. Glaesemann, G. Sandrone,
      M. Stave, H. Taylor, G. Thomas, J. H. van Lenthe, A. T. Wong, Z. Zhang.

 Total times  cpu:        0.6s     wall:        0.7s
