 argument  1 = /home/list1234/source/nwchem-6.8.1-release/QA/tests/h2o-ssb-d-b3lyp/h2o-ssb-d-b3lyp.nw



============================== echo of input deck ==============================
title "h2o ssb-d-dft and b3lyp"

echo
start h2o-ssb-d-b3lyp

geometry units au
 O 0       0        0
 H 0       1.430   -1.107
 H 0      -1.430   -1.107
end

basis
  O library 6-31g*
  H library 6-31g*
end

dft
  xc ssb-d
end
task dft hessian

dft
  xc b3lyp
end
task dft hessian
================================================================================


                                         
                                         


              Northwest Computational Chemistry Package (NWChem) 6.8
              ------------------------------------------------------


                    Environmental Molecular Sciences Laboratory
                       Pacific Northwest National Laboratory
                                Richland, WA 99352

                              Copyright (c) 1994-2018
                       Pacific Northwest National Laboratory
                            Battelle Memorial Institute

             NWChem is an open-source computational chemistry package
                        distributed under the terms of the
                      Educational Community License (ECL) 2.0
             A copy of the license is included with this distribution
                              in the LICENSE.TXT file

                                  ACKNOWLEDGMENT
                                  --------------

            This software and its documentation were developed at the
            EMSL at Pacific Northwest National Laboratory, a multiprogram
            national laboratory, operated for the U.S. Department of Energy
            by Battelle under Contract Number DE-AC05-76RL01830. Support
            for this work was provided by the Department of Energy Office
            of Biological and Environmental Research, Office of Basic
            Energy Sciences, and the Office of Advanced Scientific Computing.


           Job information
           ---------------

    hostname        = list1234-B360M-H
    program         = /home/list1234/source/nwchem-6.8.1-release/bin/LINUX64/nwchem
    date            = Sun Jun 30 07:59:56 2019

    compiled        = Sun_Jun_30_05:21:11_2019
    source          = /home/list1234/source/nwchem-6.8.1-release
    nwchem branch   = Development
    nwchem revision = N/A
    ga revision     = 5.6.5
    use scalapack   = T
    input           = /home/list1234/source/nwchem-6.8.1-release/QA/tests/h2o-ssb-d-b3lyp/h2o-ssb-d-b3lyp.nw
    prefix          = h2o-ssb-d-b3lyp.
    data base       = ./h2o-ssb-d-b3lyp.db
    status          = startup
    nproc           =        4
    time left       =     -1s



           Memory information
           ------------------

    heap     =   86247166 doubles =    658.0 Mbytes
    stack    =   86247163 doubles =    658.0 Mbytes
    global   =  172494336 doubles =   1316.0 Mbytes (distinct from heap & stack)
    total    =  344988665 doubles =   2632.1 Mbytes
    verify   = yes
    hardfail = no 


           Directory information
           ---------------------

  0 permanent = .
  0 scratch   = .




                                NWChem Input Module
                                -------------------


                              h2o ssb-d-dft and b3lyp
                              -----------------------
 C2V symmetry detected

          ------
          auto-z
          ------
  no constraints, skipping    0.0000000000000000     
  no constraints, skipping    0.0000000000000000     


                             Geometry "geometry" -> ""
                             -------------------------

 Output coordinates in a.u. (scale by  1.000000000 to convert to a.u.)

  No.       Tag          Charge          X              Y              Z
 ---- ---------------- ---------- -------------- -------------- --------------
    1 O                    8.0000     0.00000000     0.00000000     0.22140000
    2 H                    1.0000    -1.43000000     0.00000000    -0.88560000
    3 H                    1.0000     1.43000000     0.00000000    -0.88560000

      Atomic Mass 
      ----------- 

      O                 15.994910
      H                  1.007825


 Effective nuclear repulsion energy (a.u.)       9.1971984402

            Nuclear Dipole moment (a.u.) 
            ----------------------------
        X                 Y               Z
 ---------------- ---------------- ----------------
     0.0000000000     0.0000000000     0.0000000000

      Symmetry information
      --------------------

 Group name             C2v       
 Group number             16
 Group order               4
 No. of unique centers     2

      Symmetry unique atoms

     1    2



                                Z-matrix (autoz)
                                -------- 

 Units are Angstrom for bonds and degrees for angles

      Type          Name      I     J     K     L     M      Value
      ----------- --------  ----- ----- ----- ----- ----- ----------
    1 Stretch                  1     2                       0.95697
    2 Stretch                  1     3                       0.95697
    3 Bend                     2     1     3               104.51124


            XYZ format geometry
            -------------------
     3
 geometry
 O                     0.00000000     0.00000000     0.11715984
 H                    -0.75672347     0.00000000    -0.46863937
 H                     0.75672347     0.00000000    -0.46863937

 ==============================================================================
                                internuclear distances
 ------------------------------------------------------------------------------
       center one      |      center two      | atomic units |       a.u.
 ------------------------------------------------------------------------------
    2 H                |   1 O                |     1.80841  |     1.80841
    3 H                |   1 O                |     1.80841  |     1.80841
 ------------------------------------------------------------------------------
                         number of included internuclear distances:          2
 ==============================================================================



 ==============================================================================
                                 internuclear angles
 ------------------------------------------------------------------------------
        center 1       |       center 2       |       center 3       |  degrees
 ------------------------------------------------------------------------------
    2 H                |   1 O                |   3 H                |   104.51
 ------------------------------------------------------------------------------
                            number of included internuclear angles:          1
 ==============================================================================



                      Basis "ao basis" -> "" (cartesian)
                      -----
  O (Oxygen)
  ----------
            Exponent  Coefficients 
       -------------- ---------------------------------------------------------
  1 S  5.48467170E+03  0.001831
  1 S  8.25234950E+02  0.013950
  1 S  1.88046960E+02  0.068445
  1 S  5.29645000E+01  0.232714
  1 S  1.68975700E+01  0.470193
  1 S  5.79963530E+00  0.358521

  2 S  1.55396160E+01 -0.110778
  2 S  3.59993360E+00 -0.148026
  2 S  1.01376180E+00  1.130767

  3 P  1.55396160E+01  0.070874
  3 P  3.59993360E+00  0.339753
  3 P  1.01376180E+00  0.727159

  4 S  2.70005800E-01  1.000000

  5 P  2.70005800E-01  1.000000

  6 D  8.00000000E-01  1.000000

  H (Hydrogen)
  ------------
            Exponent  Coefficients 
       -------------- ---------------------------------------------------------
  1 S  1.87311370E+01  0.033495
  1 S  2.82539370E+00  0.234727
  1 S  6.40121700E-01  0.813757

  2 S  1.61277800E-01  1.000000



 Summary of "ao basis" -> "" (cartesian)
 ------------------------------------------------------------------------------
       Tag                 Description            Shells   Functions and Types
 ---------------- ------------------------------  ------  ---------------------
 O                           6-31g*                  6       15   3s2p1d
 H                           6-31g*                  2        2   2s




                              NWChem Analytic Hessian
                              -----------------------


                                 NWChem DFT Module
                                 -----------------


                              h2o ssb-d-dft and b3lyp




 Summary of "ao basis" -> "ao basis" (cartesian)
 ------------------------------------------------------------------------------
       Tag                 Description            Shells   Functions and Types
 ---------------- ------------------------------  ------  ---------------------
 O                           6-31g*                  6       15   3s2p1d
 H                           6-31g*                  2        2   2s


  Caching 1-el integrals 

            General Information
            -------------------
          SCF calculation type: DFT
          Wavefunction type:  closed shell.
          No. of atoms     :     3
          No. of electrons :    10
           Alpha electrons :     5
            Beta electrons :     5
          Charge           :     0
          Spin multiplicity:     1
          Use of symmetry is: off; symmetry adaption is: off
          Maximum number of iterations:  30
          AO basis - number of functions:    19
                     number of shells:    10
          Convergence on energy requested:  1.00D-07
          Convergence on density requested:  1.00D-05
          Convergence on gradient requested:  1.00D-06

              XC Information
              --------------
                        SSB-D Method XC Functional
                        Slater Exchange Functional  1.080 local    
                         SSB-1 Exchange Functional  1.000 non-local
                           KT1 gradient correction  0.359 non-local
            Perdew 1991 LDA Correlation Functional  1.000 local    
              simplified PBE Correlation Potential  1.000 non-local

             Grid Information
             ----------------
          Grid used for XC integration:  fine      
          Radial quadrature: Mura-Knowles        
          Angular quadrature: Lebedev. 
          Tag              B.-S. Rad. Rad. Pts. Rad. Cut. Ang. Pts.
          ---              ---------- --------- --------- ---------
          O                   0.60       70           6.0       590
          H                   0.35       60           8.0       590
          Grid pruning is: on 
          Number of quadrature shells:   190
          Spatial weights used:  Erf1

          Convergence Information
          -----------------------
          Convergence aids based upon iterative change in 
          total energy or number of iterations. 
          Levelshifting, if invoked, occurs when the 
          HOMO/LUMO gap drops below (HL_TOL):  1.00D-02
          DIIS, if invoked, will attempt to extrapolate 
          using up to (NFOCK): 10 stored Fock matrices.

                    Damping( 0%)  Levelshifting(0.5)       DIIS
                  --------------- ------------------- ---------------
          dE  on:    start            ASAP                start   
          dE off:    2 iters         30 iters            30 iters 


      Screening Tolerance Information
      -------------------------------
          Density screening/tol_rho:  1.00D-11
          AO Gaussian exp screening on grid/accAOfunc:  16
          CD Gaussian exp screening on grid/accCDfunc:  20
          XC Gaussian exp screening on grid/accXCfunc:  20
          Schwarz screening/accCoul:  1.00D-12

      Dispersion Parameters
      ---------------------

          s6 scale factor :        0.847455000000
              vdW contrib :       -0.000030233226


      Superposition of Atomic Density Guess
      -------------------------------------

 Sum of atomic energies:         -75.75081731

      Non-variational initial energy
      ------------------------------

 Total energy =     -75.919952
 1-e energy   =    -121.737767
 2-e energy   =      36.620616
 HOMO         =      -0.470482
 LUMO         =       0.114886

   Time after variat. SCF:      0.1
   Time prior to 1st pass:      0.1

 Grid_pts file          = ./h2o-ssb-d-b3lyp.gridpts.0
 Record size in doubles =  12289        No. of grid_pts per rec  =   3070
 Max. records in memory =     12        Max. recs in file   = 253312716

 Grid integrated density:      10.000000331484
 Requested integration accuracy:   0.10E-13

           Memory utilization after 1st SCF pass: 
           Heap Space remaining (MW):       51.66            51658166
          Stack Space remaining (MW):       86.25            86246932

   convergence    iter        energy       DeltaE   RMS-Dens  Diis-err    time
 ---------------- ----- ----------------- --------- --------- ---------  ------
 d= 0,ls=0.0,diis     1    -76.8983466944 -8.61D+01  4.70D-02  3.42D-01     0.1
 Grid integrated density:      10.000000443564
 Requested integration accuracy:   0.10E-13
 d= 0,ls=0.0,diis     2    -76.8780026188  2.03D-02  2.65D-02  6.42D-01     0.1
 Grid integrated density:      10.000000257877
 Requested integration accuracy:   0.10E-13
 d= 0,ls=0.0,diis     3    -76.9381802363 -6.02D-02  2.74D-03  1.11D-02     0.2
 Grid integrated density:      10.000000268412
 Requested integration accuracy:   0.10E-13
 d= 0,ls=0.0,diis     4    -76.9392039724 -1.02D-03  2.28D-04  6.24D-05     0.2
 Grid integrated density:      10.000000268373
 Requested integration accuracy:   0.10E-13
 d= 0,ls=0.0,diis     5    -76.9392099026 -5.93D-06  1.57D-05  1.30D-07     0.2
 Grid integrated density:      10.000000268328
 Requested integration accuracy:   0.10E-13
 d= 0,ls=0.0,diis     6    -76.9392099173 -1.47D-08  2.71D-06  5.93D-09     0.2


         Total DFT energy =      -76.939209917321
      One electron energy =     -123.160882053992
           Coulomb energy =       46.926929016714
    Exchange-Corr. energy =       -9.902425087014
 Nuclear repulsion energy =        9.197198440198

    Dispersion correction =       -0.000030233226

 Numeric. integr. density =       10.000000268328

     Total iterative time =      0.2s



                       DFT Final Molecular Orbital Analysis
                       ------------------------------------

 Vector    1  Occ=2.000000D+00  E=-1.893083D+01
              MO Center= -6.6D-14, -1.4D-14,  1.2D-01, r^2= 1.5D-02
   Bfn.  Coefficient  Atom+Function         Bfn.  Coefficient  Atom+Function  
  ----- ------------  ---------------      ----- ------------  ---------------
     1      0.995135  1 O  s          

 Vector    2  Occ=2.000000D+00  E=-9.407669D-01
              MO Center= -7.9D-11, -2.2D-11, -9.1D-02, r^2= 4.9D-01
   Bfn.  Coefficient  Atom+Function         Bfn.  Coefficient  Atom+Function  
  ----- ------------  ---------------      ----- ------------  ---------------
     2      0.481300  1 O  s                  6      0.415606  1 O  s          
     1     -0.206609  1 O  s                 16      0.142807  2 H  s          
    18      0.142807  3 H  s                  5     -0.129795  1 O  pz         
     9     -0.062625  1 O  pz         

 Vector    3  Occ=2.000000D+00  E=-4.791436D-01
              MO Center=  4.1D-11, -3.5D-12, -1.1D-01, r^2= 7.7D-01
   Bfn.  Coefficient  Atom+Function         Bfn.  Coefficient  Atom+Function  
  ----- ------------  ---------------      ----- ------------  ---------------
     3      0.516130  1 O  px                 7      0.268471  1 O  px         
    16     -0.245559  2 H  s                 18      0.245559  3 H  s          
    17     -0.128987  2 H  s                 19      0.128987  3 H  s          
    12     -0.071489  1 O  dxz        

 Vector    4  Occ=2.000000D+00  E=-3.255336D-01
              MO Center= -3.1D-11, -2.1D-11,  1.9D-01, r^2= 6.9D-01
   Bfn.  Coefficient  Atom+Function         Bfn.  Coefficient  Atom+Function  
  ----- ------------  ---------------      ----- ------------  ---------------
     5      0.549835  1 O  pz                 6      0.402671  1 O  s          
     9      0.370684  1 O  pz                 2      0.190867  1 O  s          
    16     -0.148278  2 H  s                 18     -0.148278  3 H  s          
    17     -0.111926  2 H  s                 19     -0.111926  3 H  s          
     1     -0.088605  1 O  s                 15     -0.053113  1 O  dzz        

 Vector    5  Occ=2.000000D+00  E=-2.378344D-01
              MO Center= -8.2D-12,  3.4D-11,  9.5D-02, r^2= 6.0D-01
   Bfn.  Coefficient  Atom+Function         Bfn.  Coefficient  Atom+Function  
  ----- ------------  ---------------      ----- ------------  ---------------
     4      0.640998  1 O  py                 8      0.509834  1 O  py         
    14     -0.064667  1 O  dyz        

 Vector    6  Occ=0.000000D+00  E= 4.032740D-02
              MO Center= -4.8D-10, -8.7D-12, -6.0D-01, r^2= 2.4D+00
   Bfn.  Coefficient  Atom+Function         Bfn.  Coefficient  Atom+Function  
  ----- ------------  ---------------      ----- ------------  ---------------
     6      1.240360  1 O  s                 17     -0.962716  2 H  s          
    19     -0.962716  3 H  s                  9     -0.474144  1 O  pz         
     5     -0.284800  1 O  pz                 2      0.132748  1 O  s          
    16     -0.109916  2 H  s                 18     -0.109916  3 H  s          
     1     -0.098241  1 O  s                 13     -0.053000  1 O  dyy        

 Vector    7  Occ=0.000000D+00  E= 1.255456D-01
              MO Center=  5.2D-10, -6.4D-13, -5.6D-01, r^2= 2.5D+00
   Bfn.  Coefficient  Atom+Function         Bfn.  Coefficient  Atom+Function  
  ----- ------------  ---------------      ----- ------------  ---------------
    17      1.277487  2 H  s                 19     -1.277487  3 H  s          
     7      0.757589  1 O  px                 3      0.423515  1 O  px         
    16      0.121872  2 H  s                 18     -0.121872  3 H  s          
    12     -0.027015  1 O  dxz        

 Vector    8  Occ=0.000000D+00  E= 7.199650D-01
              MO Center= -5.1D-10, -1.0D-12, -1.5D-01, r^2= 1.6D+00
   Bfn.  Coefficient  Atom+Function         Bfn.  Coefficient  Atom+Function  
  ----- ------------  ---------------      ----- ------------  ---------------
    16      0.833356  2 H  s                 18     -0.833356  3 H  s          
    17     -0.675411  2 H  s                 19      0.675411  3 H  s          
     7      0.406567  1 O  px                12      0.353308  1 O  dxz        
     3      0.193459  1 O  px         

 Vector    9  Occ=0.000000D+00  E= 8.056340D-01
              MO Center=  4.9D-10,  1.2D-11, -3.7D-01, r^2= 1.3D+00
   Bfn.  Coefficient  Atom+Function         Bfn.  Coefficient  Atom+Function  
  ----- ------------  ---------------      ----- ------------  ---------------
    16      0.799094  2 H  s                 18      0.799094  3 H  s          
    17     -0.607819  2 H  s                 19     -0.607819  3 H  s          
     5      0.566016  1 O  pz                 6      0.352622  1 O  s          
     2     -0.279670  1 O  s                 13     -0.182133  1 O  dyy        
     9     -0.174834  1 O  pz                10      0.141325  1 O  dxx        

 Vector   10  Occ=0.000000D+00  E= 8.486535D-01
              MO Center= -1.1D-10, -3.5D-10,  4.8D-01, r^2= 1.2D+00
   Bfn.  Coefficient  Atom+Function         Bfn.  Coefficient  Atom+Function  
  ----- ------------  ---------------      ----- ------------  ---------------
     6      1.336182  1 O  s                  9      0.895029  1 O  pz         
     2     -0.778750  1 O  s                  5     -0.697464  1 O  pz         
    16      0.308042  2 H  s                 18      0.308042  3 H  s          
    13     -0.287565  1 O  dyy               15     -0.273173  1 O  dzz        
    17     -0.253044  2 H  s                 19     -0.253044  3 H  s          

 Vector   11  Occ=0.000000D+00  E= 8.562037D-01
              MO Center= -1.2D-12,  3.1D-10,  1.1D-01, r^2= 1.1D+00
   Bfn.  Coefficient  Atom+Function         Bfn.  Coefficient  Atom+Function  
  ----- ------------  ---------------      ----- ------------  ---------------
     8     -1.036619  1 O  py                 4      0.961842  1 O  py         
    14      0.033632  1 O  dyz        

 Vector   12  Occ=0.000000D+00  E= 1.030859D+00
              MO Center=  3.4D-11, -8.0D-14,  1.0D-01, r^2= 1.5D+00
   Bfn.  Coefficient  Atom+Function         Bfn.  Coefficient  Atom+Function  
  ----- ------------  ---------------      ----- ------------  ---------------
     7      1.660264  1 O  px                 3     -0.983850  1 O  px         
    17      0.949504  2 H  s                 19     -0.949504  3 H  s          
    12      0.025314  1 O  dxz        

 Vector   13  Occ=0.000000D+00  E= 1.150345D+00
              MO Center=  9.0D-11,  3.3D-11, -3.7D-01, r^2= 1.4D+00
   Bfn.  Coefficient  Atom+Function         Bfn.  Coefficient  Atom+Function  
  ----- ------------  ---------------      ----- ------------  ---------------
     6      3.626571  1 O  s                  2     -1.465867  1 O  s          
     9     -1.093179  1 O  pz                17     -0.808491  2 H  s          
    19     -0.808491  3 H  s                 10     -0.662981  1 O  dxx        
     5      0.408642  1 O  pz                15     -0.370075  1 O  dzz        
    16     -0.317907  2 H  s                 18     -0.317907  3 H  s          

 Vector   14  Occ=0.000000D+00  E= 1.637741D+00
              MO Center=  4.9D-12,  1.7D-12,  1.7D-01, r^2= 6.2D-01
   Bfn.  Coefficient  Atom+Function         Bfn.  Coefficient  Atom+Function  
  ----- ------------  ---------------      ----- ------------  ---------------
    15      1.012570  1 O  dzz               10     -0.574378  1 O  dxx        
    13     -0.358312  1 O  dyy                6     -0.304131  1 O  s          
     9      0.165621  1 O  pz                 2      0.108124  1 O  s          
    16      0.092553  2 H  s                 18      0.092553  3 H  s          
    17      0.053406  2 H  s                 19      0.053406  3 H  s          

 Vector   15  Occ=0.000000D+00  E= 1.653054D+00
              MO Center=  9.2D-12,  4.4D-12,  1.2D-01, r^2= 6.1D-01
   Bfn.  Coefficient  Atom+Function         Bfn.  Coefficient  Atom+Function  
  ----- ------------  ---------------      ----- ------------  ---------------
    11      1.732051  1 O  dxy        

 Vector   16  Occ=0.000000D+00  E= 1.690377D+00
              MO Center=  2.0D-13,  4.2D-12,  1.4D-01, r^2= 6.1D-01
   Bfn.  Coefficient  Atom+Function         Bfn.  Coefficient  Atom+Function  
  ----- ------------  ---------------      ----- ------------  ---------------
    14      1.730516  1 O  dyz                8      0.039198  1 O  py         

 Vector   17  Occ=0.000000D+00  E= 2.201156D+00
              MO Center=  4.7D-12,  2.7D-12, -2.2D-03, r^2= 8.4D-01
   Bfn.  Coefficient  Atom+Function         Bfn.  Coefficient  Atom+Function  
  ----- ------------  ---------------      ----- ------------  ---------------
     6      1.603548  1 O  s                 13     -1.130224  1 O  dyy        
    16     -0.837812  2 H  s                 18     -0.837812  3 H  s          
     9     -0.758397  1 O  pz                10      0.751483  1 O  dxx        
     2     -0.525873  1 O  s                 17     -0.154277  2 H  s          
    19     -0.154277  3 H  s                  5      0.055431  1 O  pz         

 Vector   18  Occ=0.000000D+00  E= 2.496859D+00
              MO Center=  1.8D-11,  8.3D-13,  6.4D-02, r^2= 8.7D-01
   Bfn.  Coefficient  Atom+Function         Bfn.  Coefficient  Atom+Function  
  ----- ------------  ---------------      ----- ------------  ---------------
    12      2.224543  1 O  dxz               16     -0.953580  2 H  s          
    18      0.953580  3 H  s                  7     -0.879586  1 O  px         
    17      0.041213  2 H  s                 19     -0.041213  3 H  s          

 Vector   19  Occ=0.000000D+00  E= 3.468846D+00
              MO Center= -9.3D-13, -5.3D-13,  1.2D-01, r^2= 1.0D+00
   Bfn.  Coefficient  Atom+Function         Bfn.  Coefficient  Atom+Function  
  ----- ------------  ---------------      ----- ------------  ---------------
     6      3.744864  1 O  s                 13     -1.583794  1 O  dyy        
    15     -1.559286  1 O  dzz               10     -1.536799  1 O  dxx        
    17     -0.571807  2 H  s                 19     -0.571807  3 H  s          
     1     -0.466313  1 O  s                  9     -0.336630  1 O  pz         
     2      0.268835  1 O  s                 16      0.124341  2 H  s          


 center of mass
 --------------
 x =   0.00000000 y =   0.00000000 z =   0.09751021

 moments of inertia (a.u.)
 ------------------
           2.193637940261           0.000000000000           0.000000000000
           0.000000000000           6.315440625261           0.000000000000
           0.000000000000           0.000000000000           4.121802685000

     Multipole analysis of the density
     ---------------------------------

     L   x y z        total         alpha         beta         nuclear
     -   - - -        -----         -----         ----         -------
     0   0 0 0     -0.000000     -5.000000     -5.000000     10.000000

     1   1 0 0      0.000000      0.000000      0.000000      0.000000
     1   0 1 0      0.000000      0.000000      0.000000      0.000000
     1   0 0 1     -0.777889     -0.388945     -0.388945      0.000000

     2   2 0 0     -3.152795     -3.621298     -3.621298      4.089800
     2   1 1 0     -0.000000     -0.000000     -0.000000      0.000000
     2   1 0 1     -0.000000     -0.000000     -0.000000      0.000000
     2   0 2 0     -5.316023     -2.658012     -2.658012      0.000000
     2   0 1 1      0.000000      0.000000      0.000000      0.000000
     2   0 0 2     -4.430171     -3.195444     -3.195444      1.960718


 HESSIAN: the one electron contributions are done in       0.0s


 HESSIAN: 2-el 1st deriv. term done in                     0.0s


 HESSIAN: 2-el 2nd deriv. term done in                     0.0s

  stpr_wrt_fd_from_sq: overwrite of existing file:./h2o-ssb-d-b3lyp.hess
 stpr_wrt_fd_dipole: overwrite of existing file./h2o-ssb-d-b3lyp.fd_ddipole

 HESSIAN: the two electron contributions are done in       0.4s

                                NWChem CPHF Module
                                ------------------


  scftype          =     RHF 
  nclosed          =        5
  nopen            =        0
  variables        =       70
  # of vectors     =        9
  tolerance        = 0.10D-03
  level shift      = 0.00D+00
  max iterations   =       50
  max subspace     =       90

 Grid integrated density:      10.000000268323
 Requested integration accuracy:   0.10E-13
 SCF residual:    7.8901911084796909E-007


Iterative solution of linear equations
  No. of variables       70
  No. of equations        9
  Maximum subspace       90
        Iterations       50
       Convergence  1.0D-04
        Start time      0.9


   iter   nsub   residual    time
   ----  ------  --------  ---------
     1      9    5.24D-01       1.1
     2     18    1.99D-01       1.3
     3     27    2.50D-03       1.5
     4     36    2.28D-05       1.6
 HESSIAN: the CPHF contributions are done
  stpr_wrt_fd_from_sq: overwrite of existing file:./h2o-ssb-d-b3lyp.hess
 stpr_wrt_fd_dipole: overwrite of existing file./h2o-ssb-d-b3lyp.fd_ddipole

 Derivative Dipole

  
  
 X vector of derivative dipole (au) [debye/angstrom]
 d_dipole_x/<atom=   1,x> =    -0.4227     [   -2.0303]
 d_dipole_x/<atom=   1,y> =     0.0000     [    0.0000]
 d_dipole_x/<atom=   1,z> =     0.0000     [    0.0000]
 d_dipole_x/<atom=   2,x> =     0.2113     [    1.0151]
 d_dipole_x/<atom=   2,y> =     0.0000     [    0.0000]
 d_dipole_x/<atom=   2,z> =    -0.1084     [   -0.5206]
 d_dipole_x/<atom=   3,x> =     0.2113     [    1.0151]
 d_dipole_x/<atom=   3,y> =    -0.0000     [   -0.0000]
 d_dipole_x/<atom=   3,z> =     0.1084     [    0.5206]
  
 Y vector of derivative dipole (au) [debye/angstrom]
 d_dipole_y/<atom=   1,x> =    -0.0000     [   -0.0000]
 d_dipole_y/<atom=   1,y> =    -0.7028     [   -3.3755]
 d_dipole_y/<atom=   1,z> =    -0.0000     [   -0.0000]
 d_dipole_y/<atom=   2,x> =     0.0000     [    0.0000]
 d_dipole_y/<atom=   2,y> =     0.3514     [    1.6876]
 d_dipole_y/<atom=   2,z> =     0.0000     [    0.0000]
 d_dipole_y/<atom=   3,x> =    -0.0000     [   -0.0000]
 d_dipole_y/<atom=   3,y> =     0.3514     [    1.6876]
 d_dipole_y/<atom=   3,z> =     0.0000     [    0.0000]
  
 Z vector of derivative dipole (au) [debye/angstrom]
 d_dipole_z/<atom=   1,x> =    -0.0000     [   -0.0000]
 d_dipole_z/<atom=   1,y> =    -0.0000     [   -0.0000]
 d_dipole_z/<atom=   1,z> =    -0.3273     [   -1.5720]
 d_dipole_z/<atom=   2,x> =    -0.0873     [   -0.4193]
 d_dipole_z/<atom=   2,y> =     0.0000     [    0.0000]
 d_dipole_z/<atom=   2,z> =     0.1636     [    0.7860]
 d_dipole_z/<atom=   3,x> =     0.0873     [    0.4193]
 d_dipole_z/<atom=   3,y> =     0.0000     [    0.0000]
 d_dipole_z/<atom=   3,z> =     0.1636     [    0.7860]
  
  
 HESSIAN: the Hessian is done
 Read old hessian file : ./h2o-ssb-d-b3lyp.hess                                                                                                                                                                                                                                         
 vdW contribution to hessian 

              1        2        3        4        5        6        7        8
    1    0.6953  -0.0000  -0.0000  -0.3487   0.0000  -0.2743  -0.3487  -0.0000
    2   -0.0000  -0.0121  -0.0000   0.0000   0.0056   0.0000  -0.0000   0.0056
    3   -0.0000  -0.0000   0.4732  -0.2024   0.0000  -0.2366   0.2024   0.0000
    4   -0.3487   0.0000  -0.2024   0.3779  -0.0000   0.2384  -0.0291  -0.0000
    5    0.0000   0.0056   0.0000  -0.0000  -0.0034  -0.0000   0.0000  -0.0022
    6   -0.2743   0.0000  -0.2366   0.2384  -0.0000   0.2239   0.0359  -0.0000
    7   -0.3487  -0.0000   0.2024  -0.0291   0.0000   0.0359   0.3779   0.0000
    8   -0.0000   0.0056   0.0000  -0.0000  -0.0022  -0.0000   0.0000  -0.0034
    9    0.2743   0.0000  -0.2366  -0.0359  -0.0000   0.0127  -0.2384  -0.0000

              9      
    1    0.2743
    2    0.0000
    3   -0.2366
    4   -0.0359
    5   -0.0000
    6    0.0127
    7   -0.2384
    8   -0.0000
    9    0.2239

              1        2        3        4        5        6        7        8
    1   -0.0000   0.0000   0.0000   0.0000   0.0000   0.0000   0.0000   0.0000
    2    0.0000  -0.0000   0.0000   0.0000   0.0000   0.0000   0.0000   0.0000
    3    0.0000   0.0000  -0.0000   0.0000   0.0000   0.0000  -0.0000   0.0000
    4    0.0000   0.0000   0.0000  -0.0003   0.0000  -0.0000   0.0003   0.0000
    5    0.0000   0.0000   0.0000   0.0000  -0.0000   0.0000   0.0000   0.0000
    6    0.0000   0.0000   0.0000  -0.0000   0.0000  -0.0000   0.0000   0.0000
    7    0.0000   0.0000  -0.0000   0.0003   0.0000   0.0000  -0.0003   0.0000
    8    0.0000   0.0000   0.0000   0.0000   0.0000   0.0000   0.0000  -0.0000
    9   -0.0000   0.0000   0.0000   0.0000   0.0000   0.0000   0.0000   0.0000

              9      
    1   -0.0000
    3    0.0000
    6    0.0000
    7    0.0000
    9   -0.0000

              1        2        3        4        5        6        7        8
    1    0.6953  -0.0000  -0.0000  -0.3487   0.0000  -0.2743  -0.3487  -0.0000
    2   -0.0000  -0.0121  -0.0000   0.0000   0.0056   0.0000  -0.0000   0.0056
    3   -0.0000  -0.0000   0.4732  -0.2024   0.0000  -0.2366   0.2024   0.0000
    4   -0.3487   0.0000  -0.2024   0.3776  -0.0000   0.2384  -0.0288  -0.0000
    5    0.0000   0.0056   0.0000  -0.0000  -0.0035  -0.0000   0.0000  -0.0022
    6   -0.2743   0.0000  -0.2366   0.2384  -0.0000   0.2238   0.0359  -0.0000
    7   -0.3487  -0.0000   0.2024  -0.0288   0.0000   0.0359   0.3776   0.0000
    8   -0.0000   0.0056   0.0000  -0.0000  -0.0022  -0.0000   0.0000  -0.0035
    9    0.2743   0.0000  -0.2366  -0.0359  -0.0000   0.0128  -0.2384  -0.0000

              9      
    1    0.2743
    2    0.0000
    3   -0.2366
    4   -0.0359
    5   -0.0000
    6    0.0128
    7   -0.2384
    8   -0.0000
    9    0.2238
  stpr_wrt_fd_from_sq: overwrite of existing file:./h2o-ssb-d-b3lyp.hess
 New hessian file vdw corrected has been                                written:./h2o-ssb-d-b3lyp.hess                                                                                                                                                                                                                                         
  s6 =   0.84745499999999996     
  vdw to hessian contribution is done

 Task  times  cpu:        1.6s     wall:        1.6s


                                NWChem Input Module
                                -------------------




                              NWChem Analytic Hessian
                              -----------------------


                                 NWChem DFT Module
                                 -----------------


                              h2o ssb-d-dft and b3lyp




 Summary of "ao basis" -> "ao basis" (cartesian)
 ------------------------------------------------------------------------------
       Tag                 Description            Shells   Functions and Types
 ---------------- ------------------------------  ------  ---------------------
 O                           6-31g*                  6       15   3s2p1d
 H                           6-31g*                  2        2   2s


  Caching 1-el integrals 

            General Information
            -------------------
          SCF calculation type: DFT
          Wavefunction type:  closed shell.
          No. of atoms     :     3
          No. of electrons :    10
           Alpha electrons :     5
            Beta electrons :     5
          Charge           :     0
          Spin multiplicity:     1
          Use of symmetry is: off; symmetry adaption is: off
          Maximum number of iterations:  30
          AO basis - number of functions:    19
                     number of shells:    10
          Convergence on energy requested:  1.00D-07
          Convergence on density requested:  1.00D-05
          Convergence on gradient requested:  1.00D-06

              XC Information
              --------------
                         B3LYP Method XC Potential
                     Hartree-Fock (Exact) Exchange  0.200          
                        Slater Exchange Functional  0.800 local    
                    Becke 1988 Exchange Functional  0.720 non-local
              Lee-Yang-Parr Correlation Functional  0.810          
                  VWN I RPA Correlation Functional  0.190 local    

             Grid Information
             ----------------
          Grid used for XC integration:  fine      
          Radial quadrature: Mura-Knowles        
          Angular quadrature: Lebedev. 
          Tag              B.-S. Rad. Rad. Pts. Rad. Cut. Ang. Pts.
          ---              ---------- --------- --------- ---------
          O                   0.60       70           6.0       590
          H                   0.35       60           8.0       590
          Grid pruning is: on 
          Number of quadrature shells:   190
          Spatial weights used:  Erf1

          Convergence Information
          -----------------------
          Convergence aids based upon iterative change in 
          total energy or number of iterations. 
          Levelshifting, if invoked, occurs when the 
          HOMO/LUMO gap drops below (HL_TOL):  1.00D-02
          DIIS, if invoked, will attempt to extrapolate 
          using up to (NFOCK): 10 stored Fock matrices.

                    Damping( 0%)  Levelshifting(0.5)       DIIS
                  --------------- ------------------- ---------------
          dE  on:    start            ASAP                start   
          dE off:    2 iters         30 iters            30 iters 


      Screening Tolerance Information
      -------------------------------
          Density screening/tol_rho:  1.00D-11
          AO Gaussian exp screening on grid/accAOfunc:  16
          CD Gaussian exp screening on grid/accCDfunc:  20
          XC Gaussian exp screening on grid/accXCfunc:  20
          Schwarz screening/accCoul:  1.00D-12


 Loading old vectors from job with title :

h2o ssb-d-dft and b3lyp

   Time after variat. SCF:      1.7
   Time prior to 1st pass:      1.7

 Grid_pts file          = ./h2o-ssb-d-b3lyp.gridpts.0
 Record size in doubles =  12289        No. of grid_pts per rec  =   3070
 Max. records in memory =     12        Max. recs in file   = 253312716

 Grid integrated density:      10.000000268322
 Requested integration accuracy:   0.10E-13

           Memory utilization after 1st SCF pass: 
           Heap Space remaining (MW):       51.66            51658166
          Stack Space remaining (MW):       86.25            86246932

   convergence    iter        energy       DeltaE   RMS-Dens  Diis-err    time
 ---------------- ----- ----------------- --------- --------- ---------  ------
 d= 0,ls=0.0,diis     1    -76.4071050272 -8.56D+01  4.51D-03  6.13D-02     1.7
 Grid integrated density:      10.000000270774
 Requested integration accuracy:   0.10E-13
 d= 0,ls=0.0,diis     2    -76.4086725977 -1.57D-03  5.53D-04  2.29D-04     1.7
 Grid integrated density:      10.000000270940
 Requested integration accuracy:   0.10E-13
 d= 0,ls=0.0,diis     3    -76.4086945835 -2.20D-05  1.63D-04  2.41D-05     1.8
 Grid integrated density:      10.000000270603
 Requested integration accuracy:   0.10E-13
 d= 0,ls=0.0,diis     4    -76.4086968162 -2.23D-06  4.16D-05  1.90D-06     1.8
 Grid integrated density:      10.000000270794
 Requested integration accuracy:   0.10E-13
 d= 0,ls=0.0,diis     5    -76.4086969542 -1.38D-07  1.53D-05  2.58D-07     1.8
 Grid integrated density:      10.000000270743
 Requested integration accuracy:   0.10E-13
 d= 0,ls=0.0,diis     6    -76.4086969783 -2.42D-08  6.37D-07  4.35D-10     1.8


         Total DFT energy =      -76.408696978330
      One electron energy =     -123.133772848688
           Coulomb energy =       46.882527027372
    Exchange-Corr. energy =       -9.354649597212
 Nuclear repulsion energy =        9.197198440198

 Numeric. integr. density =       10.000000270743

     Total iterative time =      0.2s



                       DFT Final Molecular Orbital Analysis
                       ------------------------------------

 Vector    1  Occ=2.000000D+00  E=-1.913569D+01
              MO Center= -3.8D-15, -6.7D-17,  1.2D-01, r^2= 1.5D-02
   Bfn.  Coefficient  Atom+Function         Bfn.  Coefficient  Atom+Function  
  ----- ------------  ---------------      ----- ------------  ---------------
     1      0.992846  1 O  s                  2      0.026236  1 O  s          

 Vector    2  Occ=2.000000D+00  E=-1.002246D+00
              MO Center= -2.2D-12, -8.5D-15, -9.1D-02, r^2= 5.0D-01
   Bfn.  Coefficient  Atom+Function         Bfn.  Coefficient  Atom+Function  
  ----- ------------  ---------------      ----- ------------  ---------------
     2      0.468951  1 O  s                  6      0.434594  1 O  s          
     1     -0.209264  1 O  s                 16      0.141555  2 H  s          
    18      0.141555  3 H  s                  5     -0.129237  1 O  pz         
     9     -0.059506  1 O  pz         

 Vector    3  Occ=2.000000D+00  E=-5.230556D-01
              MO Center=  3.2D-12, -7.1D-17, -1.1D-01, r^2= 7.8D-01
   Bfn.  Coefficient  Atom+Function         Bfn.  Coefficient  Atom+Function  
  ----- ------------  ---------------      ----- ------------  ---------------
     3      0.518746  1 O  px                 7      0.267073  1 O  px         
    16     -0.238857  2 H  s                 18      0.238857  3 H  s          
    17     -0.138556  2 H  s                 19      0.138556  3 H  s          
    12     -0.071416  1 O  dxz        

 Vector    4  Occ=2.000000D+00  E=-3.712451D-01
              MO Center=  3.7D-14, -1.0D-14,  2.0D-01, r^2= 6.9D-01
   Bfn.  Coefficient  Atom+Function         Bfn.  Coefficient  Atom+Function  
  ----- ------------  ---------------      ----- ------------  ---------------
     5      0.554247  1 O  pz                 6      0.409767  1 O  s          
     9      0.374731  1 O  pz                 2      0.176581  1 O  s          
    16     -0.141818  2 H  s                 18     -0.141818  3 H  s          
    17     -0.110701  2 H  s                 19     -0.110701  3 H  s          
     1     -0.087786  1 O  s                 15     -0.052698  1 O  dzz        

 Vector    5  Occ=2.000000D+00  E=-2.917577D-01
              MO Center= -2.3D-14,  1.5D-14,  9.6D-02, r^2= 6.0D-01
   Bfn.  Coefficient  Atom+Function         Bfn.  Coefficient  Atom+Function  
  ----- ------------  ---------------      ----- ------------  ---------------
     4      0.644212  1 O  py                 8      0.506427  1 O  py         
    14     -0.062083  1 O  dyz        

 Vector    6  Occ=0.000000D+00  E= 6.595786D-02
              MO Center=  2.4D-12,  7.8D-16, -6.2D-01, r^2= 2.4D+00
   Bfn.  Coefficient  Atom+Function         Bfn.  Coefficient  Atom+Function  
  ----- ------------  ---------------      ----- ------------  ---------------
     6      1.285924  1 O  s                 17     -0.981824  2 H  s          
    19     -0.981824  3 H  s                  9     -0.472770  1 O  pz         
     5     -0.273579  1 O  pz                 2      0.118722  1 O  s          
     1     -0.101556  1 O  s                 16     -0.093312  2 H  s          
    18     -0.093312  3 H  s                 13     -0.059225  1 O  dyy        

 Vector    7  Occ=0.000000D+00  E= 1.525119D-01
              MO Center= -4.4D-12, -8.8D-18, -5.7D-01, r^2= 2.5D+00
   Bfn.  Coefficient  Atom+Function         Bfn.  Coefficient  Atom+Function  
  ----- ------------  ---------------      ----- ------------  ---------------
    17      1.302543  2 H  s                 19     -1.302543  3 H  s          
     7      0.766985  1 O  px                 3      0.409200  1 O  px         
    16      0.102078  2 H  s                 18     -0.102078  3 H  s          
    12     -0.033350  1 O  dxz        

 Vector    8  Occ=0.000000D+00  E= 7.810387D-01
              MO Center=  4.3D-12, -1.4D-16, -1.3D-01, r^2= 1.6D+00
   Bfn.  Coefficient  Atom+Function         Bfn.  Coefficient  Atom+Function  
  ----- ------------  ---------------      ----- ------------  ---------------
    16      0.842166  2 H  s                 18     -0.842166  3 H  s          
    17     -0.615353  2 H  s                 19      0.615353  3 H  s          
     7      0.479617  1 O  px                12      0.341739  1 O  dxz        
     3      0.166943  1 O  px         

 Vector    9  Occ=0.000000D+00  E= 8.699790D-01
              MO Center= -3.2D-12, -1.3D-13, -9.8D-02, r^2= 1.3D+00
   Bfn.  Coefficient  Atom+Function         Bfn.  Coefficient  Atom+Function  
  ----- ------------  ---------------      ----- ------------  ---------------
     5      0.765769  1 O  pz                16      0.658914  2 H  s          
    18      0.658914  3 H  s                 17     -0.496491  2 H  s          
    19     -0.496491  3 H  s                  9     -0.461890  1 O  pz         
    10      0.176823  1 O  dxx               13     -0.086252  1 O  dyy        
     2     -0.046763  1 O  s                  6     -0.038443  1 O  s          

 Vector   10  Occ=0.000000D+00  E= 8.909124D-01
              MO Center= -5.7D-15, -1.8D-13,  1.1D-01, r^2= 1.1D+00
   Bfn.  Coefficient  Atom+Function         Bfn.  Coefficient  Atom+Function  
  ----- ------------  ---------------      ----- ------------  ---------------
     8     -1.038439  1 O  py                 4      0.959677  1 O  py         
    14      0.027986  1 O  dyz        

 Vector   11  Occ=0.000000D+00  E= 8.958856D-01
              MO Center= -5.6D-13,  2.9D-13,  2.1D-01, r^2= 1.5D+00
   Bfn.  Coefficient  Atom+Function         Bfn.  Coefficient  Atom+Function  
  ----- ------------  ---------------      ----- ------------  ---------------
     6      1.340084  1 O  s                  2     -0.820134  1 O  s          
     9      0.807001  1 O  pz                16      0.550565  2 H  s          
    18      0.550565  3 H  s                  5     -0.485220  1 O  pz         
    17     -0.413348  2 H  s                 19     -0.413348  3 H  s          
    13     -0.332146  1 O  dyy               15     -0.269921  1 O  dzz        

 Vector   12  Occ=0.000000D+00  E= 1.069428D+00
              MO Center= -9.6D-13, -4.8D-16,  8.7D-02, r^2= 1.5D+00
   Bfn.  Coefficient  Atom+Function         Bfn.  Coefficient  Atom+Function  
  ----- ------------  ---------------      ----- ------------  ---------------
     7      1.637701  1 O  px                 3     -0.993312  1 O  px         
    17      0.955101  2 H  s                 19     -0.955101  3 H  s          
    16     -0.030531  2 H  s                 18      0.030531  3 H  s          

 Vector   13  Occ=0.000000D+00  E= 1.192265D+00
              MO Center=  1.4D-12,  2.2D-14, -3.7D-01, r^2= 1.4D+00
   Bfn.  Coefficient  Atom+Function         Bfn.  Coefficient  Atom+Function  
  ----- ------------  ---------------      ----- ------------  ---------------
     6      3.663311  1 O  s                  2     -1.480311  1 O  s          
     9     -1.089927  1 O  pz                17     -0.801199  2 H  s          
    19     -0.801199  3 H  s                 10     -0.658913  1 O  dxx        
     5      0.392609  1 O  pz                15     -0.392474  1 O  dzz        
    16     -0.334895  2 H  s                 18     -0.334895  3 H  s          

 Vector   14  Occ=0.000000D+00  E= 1.729016D+00
              MO Center=  1.3D-14,  4.2D-16,  1.7D-01, r^2= 6.2D-01
   Bfn.  Coefficient  Atom+Function         Bfn.  Coefficient  Atom+Function  
  ----- ------------  ---------------      ----- ------------  ---------------
    15      1.009735  1 O  dzz               10     -0.580882  1 O  dxx        
    13     -0.360552  1 O  dyy                6     -0.262264  1 O  s          
     9      0.145989  1 O  pz                 2      0.091979  1 O  s          
    16      0.085485  2 H  s                 18      0.085485  3 H  s          
    17      0.044062  2 H  s                 19      0.044062  3 H  s          

 Vector   15  Occ=0.000000D+00  E= 1.743086D+00
              MO Center=  9.1D-15,  5.1D-16,  1.2D-01, r^2= 6.1D-01
   Bfn.  Coefficient  Atom+Function         Bfn.  Coefficient  Atom+Function  
  ----- ------------  ---------------      ----- ------------  ---------------
    11      1.732051  1 O  dxy        

 Vector   16  Occ=0.000000D+00  E= 1.779010D+00
              MO Center=  2.0D-14,  7.1D-16,  1.4D-01, r^2= 6.1D-01
   Bfn.  Coefficient  Atom+Function         Bfn.  Coefficient  Atom+Function  
  ----- ------------  ---------------      ----- ------------  ---------------
    14      1.730712  1 O  dyz                8      0.034958  1 O  py         

 Vector   17  Occ=0.000000D+00  E= 2.294969D+00
              MO Center=  3.1D-13, -4.6D-16,  2.5D-03, r^2= 8.3D-01
   Bfn.  Coefficient  Atom+Function         Bfn.  Coefficient  Atom+Function  
  ----- ------------  ---------------      ----- ------------  ---------------
     6      1.576180  1 O  s                 13     -1.130660  1 O  dyy        
    16     -0.832924  2 H  s                 18     -0.832924  3 H  s          
    10      0.756199  1 O  dxx                9     -0.746693  1 O  pz         
     2     -0.511644  1 O  s                 17     -0.149194  2 H  s          
    19     -0.149194  3 H  s                  1     -0.053282  1 O  s          

 Vector   18  Occ=0.000000D+00  E= 2.598757D+00
              MO Center= -5.2D-13,  2.1D-16,  6.5D-02, r^2= 8.7D-01
   Bfn.  Coefficient  Atom+Function         Bfn.  Coefficient  Atom+Function  
  ----- ------------  ---------------      ----- ------------  ---------------
    12      2.226364  1 O  dxz               16     -0.949371  2 H  s          
    18      0.949371  3 H  s                  7     -0.877367  1 O  px         
    17      0.036819  2 H  s                 19     -0.036819  3 H  s          

 Vector   19  Occ=0.000000D+00  E= 3.559478D+00
              MO Center=  7.7D-14,  2.2D-15,  1.2D-01, r^2= 1.0D+00
   Bfn.  Coefficient  Atom+Function         Bfn.  Coefficient  Atom+Function  
  ----- ------------  ---------------      ----- ------------  ---------------
     6      3.720514  1 O  s                 13     -1.579700  1 O  dyy        
    15     -1.556307  1 O  dzz               10     -1.534997  1 O  dxx        
    17     -0.565998  2 H  s                 19     -0.565998  3 H  s          
     1     -0.469249  1 O  s                  9     -0.331466  1 O  pz         
     2      0.279104  1 O  s                 16      0.124710  2 H  s          


 center of mass
 --------------
 x =   0.00000000 y =   0.00000000 z =   0.09751021

 moments of inertia (a.u.)
 ------------------
           2.193637940261           0.000000000000           0.000000000000
           0.000000000000           6.315440625261           0.000000000000
           0.000000000000           0.000000000000           4.121802685000

     Multipole analysis of the density
     ---------------------------------

     L   x y z        total         alpha         beta         nuclear
     -   - - -        -----         -----         ----         -------
     0   0 0 0     -0.000000     -5.000000     -5.000000     10.000000

     1   1 0 0     -0.000000     -0.000000     -0.000000      0.000000
     1   0 1 0      0.000000      0.000000      0.000000      0.000000
     1   0 0 1     -0.817654     -0.408827     -0.408827      0.000000

     2   2 0 0     -3.170471     -3.630135     -3.630135      4.089800
     2   1 1 0     -0.000000     -0.000000     -0.000000      0.000000
     2   1 0 1      0.000000      0.000000      0.000000      0.000000
     2   0 2 0     -5.338444     -2.669222     -2.669222      0.000000
     2   0 1 1      0.000000      0.000000      0.000000      0.000000
     2   0 0 2     -4.465673     -3.213195     -3.213195      1.960718

  stpr_wrt_fd_from_sq: overwrite of existing file:./h2o-ssb-d-b3lyp.hess
 stpr_wrt_fd_dipole: overwrite of existing file./h2o-ssb-d-b3lyp.fd_ddipole

 HESSIAN: the one electron contributions are done in       0.0s


 HESSIAN: 2-el 1st deriv. term done in                     0.0s


 HESSIAN: 2-el 2nd deriv. term done in                     0.0s

  stpr_wrt_fd_from_sq: overwrite of existing file:./h2o-ssb-d-b3lyp.hess
 stpr_wrt_fd_dipole: overwrite of existing file./h2o-ssb-d-b3lyp.fd_ddipole

 HESSIAN: the two electron contributions are done in       0.4s

                                NWChem CPHF Module
                                ------------------


  scftype          =     RHF 
  nclosed          =        5
  nopen            =        0
  variables        =       70
  # of vectors     =        9
  tolerance        = 0.10D-03
  level shift      = 0.00D+00
  max iterations   =       50
  max subspace     =       90

 Grid integrated density:      10.000000270745
 Requested integration accuracy:   0.10E-13
 SCF residual:    7.4528876451435048E-007


Iterative solution of linear equations
  No. of variables       70
  No. of equations        9
  Maximum subspace       90
        Iterations       50
       Convergence  1.0D-04
        Start time      2.5


   iter   nsub   residual    time
   ----  ------  --------  ---------
     1      9    4.87D-01       2.7
     2     18    1.89D-01       2.8
     3     27    2.18D-03       3.0
     4     36    1.94D-04       3.2
     5     45    1.05D-06       3.3
 HESSIAN: the CPHF contributions are done
  stpr_wrt_fd_from_sq: overwrite of existing file:./h2o-ssb-d-b3lyp.hess
 stpr_wrt_fd_dipole: overwrite of existing file./h2o-ssb-d-b3lyp.fd_ddipole

 Derivative Dipole

  
  
 X vector of derivative dipole (au) [debye/angstrom]
 d_dipole_x/<atom=   1,x> =    -0.4251     [   -2.0420]
 d_dipole_x/<atom=   1,y> =     0.0000     [    0.0000]
 d_dipole_x/<atom=   1,z> =     0.0000     [    0.0000]
 d_dipole_x/<atom=   2,x> =     0.2126     [    1.0210]
 d_dipole_x/<atom=   2,y> =    -0.0000     [   -0.0000]
 d_dipole_x/<atom=   2,z> =    -0.1213     [   -0.5828]
 d_dipole_x/<atom=   3,x> =     0.2126     [    1.0210]
 d_dipole_x/<atom=   3,y> =    -0.0000     [   -0.0000]
 d_dipole_x/<atom=   3,z> =     0.1213     [    0.5828]
  
 Y vector of derivative dipole (au) [debye/angstrom]
 d_dipole_y/<atom=   1,x> =    -0.0000     [   -0.0000]
 d_dipole_y/<atom=   1,y> =    -0.7386     [   -3.5478]
 d_dipole_y/<atom=   1,z> =    -0.0000     [   -0.0000]
 d_dipole_y/<atom=   2,x> =     0.0000     [    0.0000]
 d_dipole_y/<atom=   2,y> =     0.3693     [    1.7739]
 d_dipole_y/<atom=   2,z> =     0.0000     [    0.0000]
 d_dipole_y/<atom=   3,x> =    -0.0000     [   -0.0000]
 d_dipole_y/<atom=   3,y> =     0.3693     [    1.7739]
 d_dipole_y/<atom=   3,z> =     0.0000     [    0.0000]
  
 Z vector of derivative dipole (au) [debye/angstrom]
 d_dipole_z/<atom=   1,x> =     0.0000     [    0.0000]
 d_dipole_z/<atom=   1,y> =     0.0000     [    0.0000]
 d_dipole_z/<atom=   1,z> =    -0.3507     [   -1.6843]
 d_dipole_z/<atom=   2,x> =    -0.0891     [   -0.4279]
 d_dipole_z/<atom=   2,y> =    -0.0000     [   -0.0000]
 d_dipole_z/<atom=   2,z> =     0.1753     [    0.8421]
 d_dipole_z/<atom=   3,x> =     0.0891     [    0.4279]
 d_dipole_z/<atom=   3,y> =    -0.0000     [   -0.0000]
 d_dipole_z/<atom=   3,z> =     0.1753     [    0.8421]
  
  
 HESSIAN: the Hessian is done

 Task  times  cpu:        1.7s     wall:        1.7s


                                NWChem Input Module
                                -------------------


 Summary of allocated global arrays
-----------------------------------
  No active global arrays



                         GA Statistics for process    0
                         ------------------------------

       create   destroy   get      put      acc     scatter   gather  read&inc
calls: 1102     1102     4.53e+04 5425     3.10e+04  418        0      928     
number of processes/call 1.13e+00 1.64e+00 1.53e+00 0.00e+00 0.00e+00
bytes total:             1.71e+07 1.83e+06 1.11e+07 7.20e+01 0.00e+00 7.42e+03
bytes remote:            4.15e+06 4.59e+05 5.42e+06 -1.28e+02 0.00e+00 0.00e+00
Max memory consumed for GA by this process: 119344 bytes

MA_summarize_allocated_blocks: starting scan ...
heap block 'gridpts', handle 96, address 0x55f94d522478:
	type of elements:		double precision
	number of elements:		34439903
	address of client space:	0x55f94d522500
	index for client space:		10471603
	total number of bytes:		275519368
MA_summarize_allocated_blocks: scan completed: 1 heap block, 0 stack blocks
MA usage statistics:

	allocation statistics:
					      heap	     stack
					      ----	     -----
	current number of blocks	         1	         0
	maximum number of blocks	        26	        54
	current total bytes		 275519368	         0
	maximum total bytes		 276711888	  65541304
	maximum total K-bytes		    276712	     65542
	maximum total M-bytes		       277	        66


                                     CITATION
                                     --------
                Please cite the following reference when publishing
                           results obtained with NWChem:

                 M. Valiev, E.J. Bylaska, N. Govind, K. Kowalski,
              T.P. Straatsma, H.J.J. van Dam, D. Wang, J. Nieplocha,
                        E. Apra, T.L. Windus, W.A. de Jong
                 "NWChem: a comprehensive and scalable open-source
                  solution for large scale molecular simulations"
                      Comput. Phys. Commun. 181, 1477 (2010)
                           doi:10.1016/j.cpc.2010.04.018

                                      AUTHORS
                                      -------
          E. Apra, E. J. Bylaska, W. A. de Jong, N. Govind, K. Kowalski,
       T. P. Straatsma, M. Valiev, H. J. J. van Dam, D. Wang, T. L. Windus,
        J. Hammond, J. Autschbach, K. Bhaskaran-Nair, J. Brabec, K. Lopata,
    S. A. Fischer, S. Krishnamoorthy, M. Jacquelin, W. Ma, M. Klemm, O. Villa,
      Y. Chen, V. Anisimov, F. Aquino, S. Hirata, M. T. Hackler, V. Konjkov,
            D. Mejia-Rodriguez, T. Risthaus, M. Malagoli, A. Marenich,
   A. Otero-de-la-Roza, J. Mullin, P. Nichols, R. Peverati, J. Pittner, Y. Zhao,
        P.-D. Fan, A. Fonari, M. J. Williamson, R. J. Harrison, J. R. Rehr,
      M. Dupuis, D. Silverstein, D. M. A. Smith, J. Nieplocha, V. Tipparaju,
    M. Krishnan, B. E. Van Kuiken, A. Vazquez-Mayagoitia, L. Jensen, M. Swart,
      Q. Wu, T. Van Voorhis, A. A. Auer, M. Nooijen, L. D. Crosby, E. Brown,
      G. Cisneros, G. I. Fann, H. Fruchtl, J. Garza, K. Hirao, R. A. Kendall,
      J. A. Nichols, K. Tsemekhman, K. Wolinski, J. Anchell, D. E. Bernholdt,
      P. Borowski, T. Clark, D. Clerc, H. Dachsel, M. J. O. Deegan, K. Dyall,
    D. Elwood, E. Glendening, M. Gutowski, A. C. Hess, J. Jaffe, B. G. Johnson,
     J. Ju, R. Kobayashi, R. Kutteh, Z. Lin, R. Littlefield, X. Long, B. Meng,
      T. Nakajima, S. Niu, L. Pollack, M. Rosing, K. Glaesemann, G. Sandrone,
      M. Stave, H. Taylor, G. Thomas, J. H. van Lenthe, A. T. Wong, Z. Zhang.

 Total times  cpu:        3.3s     wall:        3.3s
