 argument  1 = /home/list1234/source/nwchem-6.8.1-release/QA/tests/h2o_cg_opt_ub3lyp/h2o_cg_opt_ub3lyp.nw



============================== echo of input deck ==============================
echo
start h2o_cg_opt_ub3lyp_dat

geometry units au
 O 0       0        0
 H 0       1.430   -1.107
 H 0      -1.430   -1.107
end
charge 1


basis
  O library 6-31g*
  H library 6-31g*
end

dft
  cgmin
  odft
  mult 2
  xc b3lyp
  print "forces" "force components"
  convergence nr 0.0
end

task dft optimize
================================================================================


                                         
                                         


              Northwest Computational Chemistry Package (NWChem) 6.8
              ------------------------------------------------------


                    Environmental Molecular Sciences Laboratory
                       Pacific Northwest National Laboratory
                                Richland, WA 99352

                              Copyright (c) 1994-2018
                       Pacific Northwest National Laboratory
                            Battelle Memorial Institute

             NWChem is an open-source computational chemistry package
                        distributed under the terms of the
                      Educational Community License (ECL) 2.0
             A copy of the license is included with this distribution
                              in the LICENSE.TXT file

                                  ACKNOWLEDGMENT
                                  --------------

            This software and its documentation were developed at the
            EMSL at Pacific Northwest National Laboratory, a multiprogram
            national laboratory, operated for the U.S. Department of Energy
            by Battelle under Contract Number DE-AC05-76RL01830. Support
            for this work was provided by the Department of Energy Office
            of Biological and Environmental Research, Office of Basic
            Energy Sciences, and the Office of Advanced Scientific Computing.


           Job information
           ---------------

    hostname        = list1234-B360M-H
    program         = /home/list1234/source/nwchem-6.8.1-release/bin/LINUX64/nwchem
    date            = Sun Jun 30 05:49:12 2019

    compiled        = Sun_Jun_30_05:21:11_2019
    source          = /home/list1234/source/nwchem-6.8.1-release
    nwchem branch   = Development
    nwchem revision = N/A
    ga revision     = 5.6.5
    use scalapack   = T
    input           = /home/list1234/source/nwchem-6.8.1-release/QA/tests/h2o_cg_opt_ub3lyp/h2o_cg_opt_ub3lyp.nw
    prefix          = h2o_cg_opt_ub3lyp_dat.
    data base       = ./h2o_cg_opt_ub3lyp_dat.db
    status          = startup
    nproc           =        4
    time left       =     -1s



           Memory information
           ------------------

    heap     =   86247168 doubles =    658.0 Mbytes
    stack    =   86247165 doubles =    658.0 Mbytes
    global   =  172494336 doubles =   1316.0 Mbytes (distinct from heap & stack)
    total    =  344988669 doubles =   2632.1 Mbytes
    verify   = yes
    hardfail = no 


           Directory information
           ---------------------

  0 permanent = .
  0 scratch   = .




                                NWChem Input Module
                                -------------------


 C2V symmetry detected

          ------
          auto-z
          ------
  no constraints, skipping    0.0000000000000000     
  no constraints, skipping    0.0000000000000000     


                             Geometry "geometry" -> ""
                             -------------------------

 Output coordinates in a.u. (scale by  1.000000000 to convert to a.u.)

  No.       Tag          Charge          X              Y              Z
 ---- ---------------- ---------- -------------- -------------- --------------
    1 O                    8.0000     0.00000000     0.00000000     0.22140000
    2 H                    1.0000    -1.43000000     0.00000000    -0.88560000
    3 H                    1.0000     1.43000000     0.00000000    -0.88560000

      Atomic Mass 
      ----------- 

      O                 15.994910
      H                  1.007825


 Effective nuclear repulsion energy (a.u.)       9.1971984402

            Nuclear Dipole moment (a.u.) 
            ----------------------------
        X                 Y               Z
 ---------------- ---------------- ----------------
     0.0000000000     0.0000000000     0.0000000000

      Symmetry information
      --------------------

 Group name             C2v       
 Group number             16
 Group order               4
 No. of unique centers     2

      Symmetry unique atoms

     1    2



                                Z-matrix (autoz)
                                -------- 

 Units are Angstrom for bonds and degrees for angles

      Type          Name      I     J     K     L     M      Value
      ----------- --------  ----- ----- ----- ----- ----- ----------
    1 Stretch                  1     2                       0.95697
    2 Stretch                  1     3                       0.95697
    3 Bend                     2     1     3               104.51124


            XYZ format geometry
            -------------------
     3
 geometry
 O                     0.00000000     0.00000000     0.11715984
 H                    -0.75672347     0.00000000    -0.46863937
 H                     0.75672347     0.00000000    -0.46863937

 ==============================================================================
                                internuclear distances
 ------------------------------------------------------------------------------
       center one      |      center two      | atomic units |       a.u.
 ------------------------------------------------------------------------------
    2 H                |   1 O                |     1.80841  |     1.80841
    3 H                |   1 O                |     1.80841  |     1.80841
 ------------------------------------------------------------------------------
                         number of included internuclear distances:          2
 ==============================================================================



 ==============================================================================
                                 internuclear angles
 ------------------------------------------------------------------------------
        center 1       |       center 2       |       center 3       |  degrees
 ------------------------------------------------------------------------------
    2 H                |   1 O                |   3 H                |   104.51
 ------------------------------------------------------------------------------
                            number of included internuclear angles:          1
 ==============================================================================



                      Basis "ao basis" -> "" (cartesian)
                      -----
  O (Oxygen)
  ----------
            Exponent  Coefficients 
       -------------- ---------------------------------------------------------
  1 S  5.48467170E+03  0.001831
  1 S  8.25234950E+02  0.013950
  1 S  1.88046960E+02  0.068445
  1 S  5.29645000E+01  0.232714
  1 S  1.68975700E+01  0.470193
  1 S  5.79963530E+00  0.358521

  2 S  1.55396160E+01 -0.110778
  2 S  3.59993360E+00 -0.148026
  2 S  1.01376180E+00  1.130767

  3 P  1.55396160E+01  0.070874
  3 P  3.59993360E+00  0.339753
  3 P  1.01376180E+00  0.727159

  4 S  2.70005800E-01  1.000000

  5 P  2.70005800E-01  1.000000

  6 D  8.00000000E-01  1.000000

  H (Hydrogen)
  ------------
            Exponent  Coefficients 
       -------------- ---------------------------------------------------------
  1 S  1.87311370E+01  0.033495
  1 S  2.82539370E+00  0.234727
  1 S  6.40121700E-01  0.813757

  2 S  1.61277800E-01  1.000000



 Summary of "ao basis" -> "" (cartesian)
 ------------------------------------------------------------------------------
       Tag                 Description            Shells   Functions and Types
 ---------------- ------------------------------  ------  ---------------------
 O                           6-31g*                  6       15   3s2p1d
 H                           6-31g*                  2        2   2s




                           NWChem Geometry Optimization
                           ----------------------------


  no constraints, skipping    0.0000000000000000     
 maximum gradient threshold         (gmax) =   0.000450
 rms gradient threshold             (grms) =   0.000300
 maximum cartesian step threshold   (xmax) =   0.001800
 rms cartesian step threshold       (xrms) =   0.001200
 fixed trust radius                (trust) =   0.300000
 maximum step size to saddle      (sadstp) =   0.100000
 energy precision                  (eprec) =   5.0D-06
 maximum number of steps          (nptopt) =   20
 initial hessian option           (inhess) =    0
 line search option               (linopt) =    1
 hessian update option            (modupd) =    1
 saddle point option              (modsad) =    0
 initial eigen-mode to follow     (moddir) =    0
 initial variable to follow       (vardir) =    0
 follow first negative mode     (firstneg) =    T
 apply conjugacy                    (opcg) =    F
 source of zmatrix                         =   autoz   


          -------------------
          Energy Minimization
          -------------------


 Names of Z-matrix variables 
    1              2              3         

 Variables with the same non-blank name are constrained to be equal


 Using diagonal initial Hessian 
 Scaling for Hessian diagonals: bonds = 1.00  angles = 0.25  torsions = 0.10

          --------
          Step   0
          --------


                         Geometry "geometry" -> "geometry"
                         ---------------------------------

 Output coordinates in a.u. (scale by  1.000000000 to convert to a.u.)

  No.       Tag          Charge          X              Y              Z
 ---- ---------------- ---------- -------------- -------------- --------------
    1 O                    8.0000     0.00000000     0.00000000     0.22140000
    2 H                    1.0000    -1.43000000     0.00000000    -0.88560000
    3 H                    1.0000     1.43000000     0.00000000    -0.88560000

      Atomic Mass 
      ----------- 

      O                 15.994910
      H                  1.007825


 Effective nuclear repulsion energy (a.u.)       9.1971984402

            Nuclear Dipole moment (a.u.) 
            ----------------------------
        X                 Y               Z
 ---------------- ---------------- ----------------
     0.0000000000     0.0000000000     0.0000000000

      Symmetry information
      --------------------

 Group name             C2v       
 Group number             16
 Group order               4
 No. of unique centers     2

      Symmetry unique atoms

     1    2


                                 NWChem DFT Module
                                 -----------------




 Summary of "ao basis" -> "ao basis" (cartesian)
 ------------------------------------------------------------------------------
       Tag                 Description            Shells   Functions and Types
 ---------------- ------------------------------  ------  ---------------------
 O                           6-31g*                  6       15   3s2p1d
 H                           6-31g*                  2        2   2s


      Symmetry analysis of basis
      --------------------------

        a1         10
        a2          1
        b1          5
        b2          3

  Caching 1-el integrals 

            General Information
            -------------------
          SCF calculation type: DFT
          Wavefunction type:  spin polarized.
          No. of atoms     :     3
          No. of electrons :     9
           Alpha electrons :     5
            Beta electrons :     4
          Charge           :     1
          Spin multiplicity:     2
          Use of symmetry is: on ; symmetry adaption is: on 
          Maximum number of iterations:  30
          AO basis - number of functions:    19
                     number of shells:    10
          Convergence on energy requested:  1.00D-06
          Convergence on density requested:  1.00D-05
          Convergence on gradient requested:  5.00D-04

              XC Information
              --------------
                         B3LYP Method XC Potential
                     Hartree-Fock (Exact) Exchange  0.200          
                        Slater Exchange Functional  0.800 local    
                    Becke 1988 Exchange Functional  0.720 non-local
              Lee-Yang-Parr Correlation Functional  0.810          
                  VWN I RPA Correlation Functional  0.190 local    

             Grid Information
             ----------------
          Grid used for XC integration:  medium    
          Radial quadrature: Mura-Knowles        
          Angular quadrature: Lebedev. 
          Tag              B.-S. Rad. Rad. Pts. Rad. Cut. Ang. Pts.
          ---              ---------- --------- --------- ---------
          O                   0.60       49           5.0       434
          H                   0.35       45           6.0       434
          Grid pruning is: on 
          Number of quadrature shells:    94
          Spatial weights used:  Erf1

          Convergence Information
          -----------------------
          Convergence aids based upon iterative change in 
          total energy or number of iterations. 
          Levelshifting, if invoked, occurs when the 
          HOMO/LUMO gap drops below (HL_TOL):  1.00D-02
          DIIS, if invoked, will attempt to extrapolate 
          using up to (NFOCK): 10 stored Fock matrices.

                    Damping( 0%)  Levelshifting(0.5)       DIIS
                  --------------- ------------------- ---------------
          dE  on:    start            ASAP                start   
          dE off:    2 iters         30 iters            30 iters 


      Screening Tolerance Information
      -------------------------------
          Density screening/tol_rho:  1.00D-10
          AO Gaussian exp screening on grid/accAOfunc:  14
          CD Gaussian exp screening on grid/accCDfunc:  20
          XC Gaussian exp screening on grid/accXCfunc:  20
          Schwarz screening/accCoul:  1.00D-08


      Superposition of Atomic Density Guess
      -------------------------------------

 Sum of atomic energies:         -75.75081731

 Renormalizing density from      10.00 to      9

      Non-variational initial energy
      ------------------------------

 Total energy =     -70.704093
 1-e energy   =    -109.563990
 2-e energy   =      29.662699
 HOMO         =      -1.167537
 LUMO         =      -0.290539


   Symmetry analysis of molecular orbitals - initial alpha
   -------------------------------------------------------

  Numbering of irreducible representations: 

     1 a1          2 a2          3 b1          4 b2      

  Orbital symmetries:

     1 a1          2 a1          3 b1          4 a1          5 b2      
     6 a1          7 b1          8 a1          9 b2         10 b1      
    11 a1         12 b1         13 a1         14 a1         15 a2      


   Symmetry analysis of molecular orbitals - initial beta
   ------------------------------------------------------

  Numbering of irreducible representations: 

     1 a1          2 a2          3 b1          4 b2      

  Orbital symmetries:

     1 a1          2 a1          3 b1          4 a1          5 b2      
     6 a1          7 b1          8 a1          9 b2         10 b1      
    11 a1         12 b1         13 a1         14 a1         15 a2      



 ----------------------------------------------
         Quadratically convergent UKS

 Convergence threshold     :          5.000E-04
 Maximum no. of iterations :           30
 Integral*density screening:          1.000E-08

 PCG initial level shift   :              5.000
 PCG change shift at maxg  :              0.500
 PCG final level shift     :              0.000
 NR  initial level shift   :              0.000
 NR  change shift at maxg  :              0.000
 NR  final level shift     :              0.000
 NR  enabled at maxg       :              0.000
 ----------------------------------------------


 Grid_pts file          = ./h2o_cg_opt_ub3lyp_dat.gridpts.0
 Record size in doubles =  12289        No. of grid_pts per rec  =   3070
 Max. records in memory =      5        Max. recs in file   = 253312716


              iter       energy          gnorm     gmax       time
             ----- ------------------- --------- --------- --------
                 1      -75.8111565909  1.31D+00  4.13D-01      0.2
                 2      -75.9492953310  2.41D-01  1.25D-01      0.2
                 3      -75.9527035501  2.73D-02  1.16D-02      0.2
                 4      -75.9527824560  1.26D-02  6.41D-03      0.2
                 5      -75.9527904940  5.63D-03  1.87D-03      0.3
                 6      -75.9527928500  1.04D-03  5.19D-04      0.3
                 7      -75.9527929103  2.99D-04  1.20D-04      0.3


         Total DFT energy =      -75.952792910270
      One electron energy =     -118.045064443109
           Coulomb energy =       41.864866273786
    Exchange-Corr. energy =       -8.969793181145
 Nuclear repulsion energy =        9.197198440198

 Numeric. integr. density =        9.000001173591

     Total iterative time =      0.2s



                    DFT Final Alpha Molecular Orbital Analysis
                    ------------------------------------------

 Vector    1  Occ=1.000000D+00  E=-1.972107D+01  Symmetry=a1
              MO Center=  5.1D-18, -4.6D-19,  1.2D-01, r^2= 1.5D-02
   Bfn.  Coefficient  Atom+Function         Bfn.  Coefficient  Atom+Function  
  ----- ------------  ---------------      ----- ------------  ---------------
     1      0.992620  1 O  s                  2      0.026858  1 O  s          

 Vector    2  Occ=1.000000D+00  E=-1.544958D+00  Symmetry=a1
              MO Center= -2.5D-17, -1.4D-17, -6.9D-02, r^2= 4.5D-01
   Bfn.  Coefficient  Atom+Function         Bfn.  Coefficient  Atom+Function  
  ----- ------------  ---------------      ----- ------------  ---------------
     2      0.524343  1 O  s                  6      0.425261  1 O  s          
     1     -0.217195  1 O  s                  5     -0.138020  1 O  pz         
    16      0.124463  2 H  s                 18      0.124463  3 H  s          
     9     -0.065442  1 O  pz         

 Vector    3  Occ=1.000000D+00  E=-1.016252D+00  Symmetry=b1
              MO Center=  4.5D-16, -3.8D-17, -6.0D-02, r^2= 6.4D-01
   Bfn.  Coefficient  Atom+Function         Bfn.  Coefficient  Atom+Function  
  ----- ------------  ---------------      ----- ------------  ---------------
     3      0.595253  1 O  px                 7      0.288682  1 O  px         
    16     -0.218723  2 H  s                 18      0.218723  3 H  s          
    12     -0.086354  1 O  dxz               17     -0.041189  2 H  s          
    19      0.041189  3 H  s          

 Vector    4  Occ=1.000000D+00  E=-8.843740D-01  Symmetry=b2
              MO Center= -4.6D-16,  1.5D-16,  9.6D-02, r^2= 4.9D-01
   Bfn.  Coefficient  Atom+Function         Bfn.  Coefficient  Atom+Function  
  ----- ------------  ---------------      ----- ------------  ---------------
     4      0.730536  1 O  py                 8      0.407602  1 O  py         
    14     -0.067199  1 O  dyz        

 Vector    5  Occ=1.000000D+00  E=-8.761898D-01  Symmetry=a1
              MO Center=  4.4D-18, -1.2D-17,  2.1D-01, r^2= 5.7D-01
   Bfn.  Coefficient  Atom+Function         Bfn.  Coefficient  Atom+Function  
  ----- ------------  ---------------      ----- ------------  ---------------
     5      0.631203  1 O  pz                 9      0.349151  1 O  pz         
     6      0.255600  1 O  s                  2      0.194238  1 O  s          
    16     -0.130310  2 H  s                 18     -0.130310  3 H  s          
     1     -0.076742  1 O  s                 15     -0.050540  1 O  dzz        
    17     -0.044744  2 H  s                 19     -0.044744  3 H  s          

 Vector    6  Occ=0.000000D+00  E=-2.779791D-01  Symmetry=a1
              MO Center= -4.2D-15, -1.9D-16, -6.1D-01, r^2= 2.2D+00
   Bfn.  Coefficient  Atom+Function         Bfn.  Coefficient  Atom+Function  
  ----- ------------  ---------------      ----- ------------  ---------------
     6      1.033270  1 O  s                 17     -0.874512  2 H  s          
    19     -0.874512  3 H  s                  9     -0.362929  1 O  pz         
     5     -0.296497  1 O  pz                 2      0.222234  1 O  s          
    16     -0.169970  2 H  s                 18     -0.169970  3 H  s          
     1     -0.095671  1 O  s                 10     -0.035468  1 O  dxx        

 Vector    7  Occ=0.000000D+00  E=-1.973404D-01  Symmetry=b1
              MO Center=  3.6D-15,  1.0D-17, -5.4D-01, r^2= 2.2D+00
   Bfn.  Coefficient  Atom+Function         Bfn.  Coefficient  Atom+Function  
  ----- ------------  ---------------      ----- ------------  ---------------
    17      1.148953  2 H  s                 19     -1.148953  3 H  s          
     7      0.629234  1 O  px                 3      0.454423  1 O  px         
    16      0.214205  2 H  s                 18     -0.214205  3 H  s          

 Vector    8  Occ=0.000000D+00  E= 3.841649D-01  Symmetry=b1
              MO Center=  2.1D-15, -4.0D-16, -1.6D-01, r^2= 1.7D+00
   Bfn.  Coefficient  Atom+Function         Bfn.  Coefficient  Atom+Function  
  ----- ------------  ---------------      ----- ------------  ---------------
    16      0.804174  2 H  s                 18     -0.804174  3 H  s          
    17     -0.747976  2 H  s                 19      0.747976  3 H  s          
    12      0.391352  1 O  dxz                7      0.378405  1 O  px         
     3      0.130378  1 O  px         

 Vector    9  Occ=0.000000D+00  E= 4.011135D-01  Symmetry=b2
              MO Center= -2.4D-16,  2.5D-15,  1.1D-01, r^2= 1.2D+00
   Bfn.  Coefficient  Atom+Function         Bfn.  Coefficient  Atom+Function  
  ----- ------------  ---------------      ----- ------------  ---------------
     8      1.080612  1 O  py                 4     -0.895744  1 O  py         
    14     -0.049484  1 O  dyz        

 Vector   10  Occ=0.000000D+00  E= 4.288737D-01  Symmetry=a1
              MO Center= -1.6D-15, -2.2D-15,  6.4D-02, r^2= 1.4D+00
   Bfn.  Coefficient  Atom+Function         Bfn.  Coefficient  Atom+Function  
  ----- ------------  ---------------      ----- ------------  ---------------
     5      0.765592  1 O  pz                 9     -0.618494  1 O  pz         
    16      0.562890  2 H  s                 18      0.562890  3 H  s          
    17     -0.504961  2 H  s                 19     -0.504961  3 H  s          
    10      0.203426  1 O  dxx                6     -0.153463  1 O  s          
     2      0.097708  1 O  s                 15      0.088933  1 O  dzz        

 Vector   11  Occ=0.000000D+00  E= 4.840067D-01  Symmetry=a1
              MO Center= -7.2D-16, -4.1D-16,  4.0D-02, r^2= 1.6D+00
   Bfn.  Coefficient  Atom+Function         Bfn.  Coefficient  Atom+Function  
  ----- ------------  ---------------      ----- ------------  ---------------
     6      1.097314  1 O  s                  9      0.797652  1 O  pz         
     2     -0.690358  1 O  s                 16      0.623578  2 H  s          
    18      0.623578  3 H  s                 17     -0.456016  2 H  s          
    19     -0.456016  3 H  s                  5     -0.396462  1 O  pz         
    13     -0.330069  1 O  dyy               15     -0.207281  1 O  dzz        

 Vector   12  Occ=0.000000D+00  E= 6.418144D-01  Symmetry=b1
              MO Center=  7.8D-17,  1.7D-17,  5.2D-02, r^2= 1.7D+00
   Bfn.  Coefficient  Atom+Function         Bfn.  Coefficient  Atom+Function  
  ----- ------------  ---------------      ----- ------------  ---------------
     7      1.707998  1 O  px                17      1.060532  2 H  s          
    19     -1.060532  3 H  s                  3     -0.934310  1 O  px         
    12      0.026542  1 O  dxz        

 Vector   13  Occ=0.000000D+00  E= 7.633204D-01  Symmetry=a1
              MO Center= -2.9D-16,  1.3D-16, -3.7D-01, r^2= 1.6D+00
   Bfn.  Coefficient  Atom+Function         Bfn.  Coefficient  Atom+Function  
  ----- ------------  ---------------      ----- ------------  ---------------
     6      3.673755  1 O  s                  2     -1.514134  1 O  s          
     9     -1.031147  1 O  pz                17     -0.877502  2 H  s          
    19     -0.877502  3 H  s                 10     -0.641627  1 O  dxx        
    15     -0.370958  1 O  dzz                5      0.353426  1 O  pz         
    16     -0.257189  2 H  s                 18     -0.257189  3 H  s          

 Vector   14  Occ=0.000000D+00  E= 1.215111D+00  Symmetry=a2
              MO Center= -1.2D-15,  5.9D-16,  1.2D-01, r^2= 6.1D-01
   Bfn.  Coefficient  Atom+Function         Bfn.  Coefficient  Atom+Function  
  ----- ------------  ---------------      ----- ------------  ---------------
    11      1.732051  1 O  dxy        

 Vector   15  Occ=0.000000D+00  E= 1.239983D+00  Symmetry=a1
              MO Center=  7.5D-17,  6.4D-17,  1.7D-01, r^2= 6.2D-01
   Bfn.  Coefficient  Atom+Function         Bfn.  Coefficient  Atom+Function  
  ----- ------------  ---------------      ----- ------------  ---------------
    15      0.999571  1 O  dzz               10     -0.560893  1 O  dxx        
    13     -0.418054  1 O  dyy                6     -0.155099  1 O  s          
     9      0.116763  1 O  pz                 2      0.072407  1 O  s          
    16      0.040858  2 H  s                 18      0.040858  3 H  s          
    17      0.037409  2 H  s                 19      0.037409  3 H  s          

 Vector   16  Occ=0.000000D+00  E= 1.253402D+00  Symmetry=b2
              MO Center=  1.9D-15, -6.9D-17,  1.5D-01, r^2= 6.1D-01
   Bfn.  Coefficient  Atom+Function         Bfn.  Coefficient  Atom+Function  
  ----- ------------  ---------------      ----- ------------  ---------------
    14      1.730039  1 O  dyz                8      0.046741  1 O  py         

 Vector   17  Occ=0.000000D+00  E= 1.794551D+00  Symmetry=a1
              MO Center=  4.5D-16,  3.7D-17, -1.9D-02, r^2= 8.7D-01
   Bfn.  Coefficient  Atom+Function         Bfn.  Coefficient  Atom+Function  
  ----- ------------  ---------------      ----- ------------  ---------------
     6      1.700521  1 O  s                 13     -1.117606  1 O  dyy        
    16     -0.873775  2 H  s                 18     -0.873775  3 H  s          
     9     -0.798290  1 O  pz                10      0.752006  1 O  dxx        
     2     -0.531463  1 O  s                 17     -0.165926  2 H  s          
    19     -0.165926  3 H  s                  1     -0.062737  1 O  s          

 Vector   18  Occ=0.000000D+00  E= 2.134531D+00  Symmetry=b1
              MO Center= -4.6D-16, -1.8D-16,  5.9D-02, r^2= 8.9D-01
   Bfn.  Coefficient  Atom+Function         Bfn.  Coefficient  Atom+Function  
  ----- ------------  ---------------      ----- ------------  ---------------
    12      2.217763  1 O  dxz               16     -0.968470  2 H  s          
    18      0.968470  3 H  s                  7     -0.895401  1 O  px         
    17      0.045410  2 H  s                 19     -0.045410  3 H  s          
     3      0.030668  1 O  px         

 Vector   19  Occ=0.000000D+00  E= 3.069658D+00  Symmetry=a1
              MO Center= -6.9D-17,  6.4D-18,  1.1D-01, r^2= 1.1D+00
   Bfn.  Coefficient  Atom+Function         Bfn.  Coefficient  Atom+Function  
  ----- ------------  ---------------      ----- ------------  ---------------
     6      3.830025  1 O  s                 13     -1.584194  1 O  dyy        
    15     -1.576688  1 O  dzz               10     -1.553921  1 O  dxx        
    17     -0.592478  2 H  s                 19     -0.592478  3 H  s          
     1     -0.470209  1 O  s                  9     -0.343346  1 O  pz         
     2      0.225686  1 O  s                 16      0.128714  2 H  s          


                     DFT Final Beta Molecular Orbital Analysis
                     -----------------------------------------

 Vector    1  Occ=1.000000D+00  E=-1.969380D+01  Symmetry=a1
              MO Center=  5.1D-18, -1.5D-19,  1.2D-01, r^2= 1.5D-02
   Bfn.  Coefficient  Atom+Function         Bfn.  Coefficient  Atom+Function  
  ----- ------------  ---------------      ----- ------------  ---------------
     1      0.993129  1 O  s                  2      0.025435  1 O  s          

 Vector    2  Occ=1.000000D+00  E=-1.473818D+00  Symmetry=a1
              MO Center= -4.8D-17,  1.4D-17, -9.0D-02, r^2= 4.7D-01
   Bfn.  Coefficient  Atom+Function         Bfn.  Coefficient  Atom+Function  
  ----- ------------  ---------------      ----- ------------  ---------------
     2      0.495817  1 O  s                  6      0.423893  1 O  s          
     1     -0.211004  1 O  s                  5     -0.143701  1 O  pz         
    16      0.138316  2 H  s                 18      0.138316  3 H  s          
     9     -0.068895  1 O  pz                10      0.028533  1 O  dxx        
    15      0.025485  1 O  dzz        

 Vector    3  Occ=1.000000D+00  E=-9.945285D-01  Symmetry=b1
              MO Center=  3.4D-16, -7.3D-17, -7.3D-02, r^2= 6.6D-01
   Bfn.  Coefficient  Atom+Function         Bfn.  Coefficient  Atom+Function  
  ----- ------------  ---------------      ----- ------------  ---------------
     3      0.576199  1 O  px                 7      0.283418  1 O  px         
    16     -0.232436  2 H  s                 18      0.232436  3 H  s          
    12     -0.083092  1 O  dxz               17     -0.052234  2 H  s          
    19      0.052234  3 H  s          

 Vector    4  Occ=1.000000D+00  E=-8.452007D-01  Symmetry=a1
              MO Center=  1.9D-18,  5.6D-33,  2.3D-01, r^2= 5.7D-01
   Bfn.  Coefficient  Atom+Function         Bfn.  Coefficient  Atom+Function  
  ----- ------------  ---------------      ----- ------------  ---------------
     5      0.615655  1 O  pz                 9      0.354692  1 O  pz         
     6      0.284521  1 O  s                  2      0.199928  1 O  s          
    16     -0.132522  2 H  s                 18     -0.132522  3 H  s          
     1     -0.082252  1 O  s                 17     -0.049167  2 H  s          
    19     -0.049167  3 H  s                 15     -0.044084  1 O  dzz        

 Vector    5  Occ=0.000000D+00  E=-6.175617D-01  Symmetry=b2
              MO Center= -3.9D-16,  3.8D-16,  9.5D-02, r^2= 5.8D-01
   Bfn.  Coefficient  Atom+Function         Bfn.  Coefficient  Atom+Function  
  ----- ------------  ---------------      ----- ------------  ---------------
     4      0.653759  1 O  py                 8      0.495956  1 O  py         
    14     -0.064945  1 O  dyz        

 Vector    6  Occ=0.000000D+00  E=-2.674195D-01  Symmetry=a1
              MO Center= -6.1D-17, -1.6D-17, -6.2D-01, r^2= 2.2D+00
   Bfn.  Coefficient  Atom+Function         Bfn.  Coefficient  Atom+Function  
  ----- ------------  ---------------      ----- ------------  ---------------
     6      1.084062  1 O  s                 17     -0.892051  2 H  s          
    19     -0.892051  3 H  s                  9     -0.377982  1 O  pz         
     5     -0.295536  1 O  pz                 2      0.210573  1 O  s          
    16     -0.161817  2 H  s                 18     -0.161817  3 H  s          
     1     -0.099341  1 O  s                 13     -0.030243  1 O  dyy        

 Vector    7  Occ=0.000000D+00  E=-1.914039D-01  Symmetry=b1
              MO Center= -4.0D-16,  1.5D-17, -5.4D-01, r^2= 2.3D+00
   Bfn.  Coefficient  Atom+Function         Bfn.  Coefficient  Atom+Function  
  ----- ------------  ---------------      ----- ------------  ---------------
    17      1.160884  2 H  s                 19     -1.160884  3 H  s          
     7      0.652845  1 O  px                 3      0.457322  1 O  px         
    16      0.207275  2 H  s                 18     -0.207275  3 H  s          

 Vector    8  Occ=0.000000D+00  E= 3.828986D-01  Symmetry=b1
              MO Center= -8.9D-17,  5.8D-18, -1.5D-01, r^2= 1.8D+00
   Bfn.  Coefficient  Atom+Function         Bfn.  Coefficient  Atom+Function  
  ----- ------------  ---------------      ----- ------------  ---------------
    16      0.805593  2 H  s                 18     -0.805593  3 H  s          
    17     -0.746365  2 H  s                 19      0.746365  3 H  s          
     7      0.383029  1 O  px                12      0.384866  1 O  dxz        
     3      0.136856  1 O  px         

 Vector    9  Occ=0.000000D+00  E= 4.449779D-01  Symmetry=a1
              MO Center=  3.3D-16, -3.5D-15,  7.4D-02, r^2= 1.4D+00
   Bfn.  Coefficient  Atom+Function         Bfn.  Coefficient  Atom+Function  
  ----- ------------  ---------------      ----- ------------  ---------------
     5      0.785798  1 O  pz                 9     -0.626480  1 O  pz         
    16      0.560449  2 H  s                 18      0.560449  3 H  s          
    17     -0.496680  2 H  s                 19     -0.496680  3 H  s          
    10      0.191955  1 O  dxx                6     -0.162854  1 O  s          
     2      0.086839  1 O  s                 15      0.076707  1 O  dzz        

 Vector   10  Occ=0.000000D+00  E= 4.968522D-01  Symmetry=b2
              MO Center= -1.8D-16,  3.4D-15,  1.1D-01, r^2= 1.1D+00
   Bfn.  Coefficient  Atom+Function         Bfn.  Coefficient  Atom+Function  
  ----- ------------  ---------------      ----- ------------  ---------------
     8     -1.043118  1 O  py                 4      0.953229  1 O  py         
    14      0.042908  1 O  dyz        

 Vector   11  Occ=0.000000D+00  E= 5.022969D-01  Symmetry=a1
              MO Center= -2.0D-15, -2.8D-16,  1.6D-02, r^2= 1.6D+00
   Bfn.  Coefficient  Atom+Function         Bfn.  Coefficient  Atom+Function  
  ----- ------------  ---------------      ----- ------------  ---------------
     6      1.075153  1 O  s                  9      0.796783  1 O  pz         
     2     -0.702630  1 O  s                 16      0.649744  2 H  s          
    18      0.649744  3 H  s                 17     -0.458060  2 H  s          
    19     -0.458060  3 H  s                  5     -0.382854  1 O  pz         
    13     -0.304518  1 O  dyy               15     -0.228925  1 O  dzz        

 Vector   12  Occ=0.000000D+00  E= 6.567161D-01  Symmetry=b1
              MO Center=  1.7D-15, -8.5D-31,  5.7D-02, r^2= 1.7D+00
   Bfn.  Coefficient  Atom+Function         Bfn.  Coefficient  Atom+Function  
  ----- ------------  ---------------      ----- ------------  ---------------
     7      1.698712  1 O  px                17      1.048194  2 H  s          
    19     -1.048194  3 H  s                  3     -0.943881  1 O  px         
    12      0.028869  1 O  dxz        

 Vector   13  Occ=0.000000D+00  E= 7.925994D-01  Symmetry=a1
              MO Center= -5.3D-16,  2.0D-17, -3.7D-01, r^2= 1.5D+00
   Bfn.  Coefficient  Atom+Function         Bfn.  Coefficient  Atom+Function  
  ----- ------------  ---------------      ----- ------------  ---------------
     6      3.707016  1 O  s                  2     -1.512482  1 O  s          
     9     -1.033205  1 O  pz                17     -0.867010  2 H  s          
    19     -0.867010  3 H  s                 10     -0.661519  1 O  dxx        
    15     -0.364626  1 O  dzz                5      0.350597  1 O  pz         
    16     -0.274524  2 H  s                 18     -0.274524  3 H  s          

 Vector   14  Occ=0.000000D+00  E= 1.264857D+00  Symmetry=a1
              MO Center=  8.5D-18,  8.0D-17,  1.8D-01, r^2= 6.2D-01
   Bfn.  Coefficient  Atom+Function         Bfn.  Coefficient  Atom+Function  
  ----- ------------  ---------------      ----- ------------  ---------------
    15      1.009173  1 O  dzz               10     -0.575475  1 O  dxx        
    13     -0.360585  1 O  dyy                6     -0.314378  1 O  s          
     9      0.180922  1 O  pz                 2      0.109037  1 O  s          
    16      0.102632  2 H  s                 18      0.102632  3 H  s          
    17      0.055354  2 H  s                 19      0.055354  3 H  s          

 Vector   15  Occ=0.000000D+00  E= 1.280612D+00  Symmetry=a2
              MO Center= -1.2D-15,  2.3D-16,  1.2D-01, r^2= 6.1D-01
   Bfn.  Coefficient  Atom+Function         Bfn.  Coefficient  Atom+Function  
  ----- ------------  ---------------      ----- ------------  ---------------
    11      1.732051  1 O  dxy        

 Vector   16  Occ=0.000000D+00  E= 1.317900D+00  Symmetry=b2
              MO Center=  1.7D-15, -8.4D-17,  1.5D-01, r^2= 6.1D-01
   Bfn.  Coefficient  Atom+Function         Bfn.  Coefficient  Atom+Function  
  ----- ------------  ---------------      ----- ------------  ---------------
    14      1.730301  1 O  dyz                8      0.044482  1 O  py         

 Vector   17  Occ=0.000000D+00  E= 1.853651D+00  Symmetry=a1
              MO Center=  5.0D-16,  7.4D-18, -8.0D-03, r^2= 8.5D-01
   Bfn.  Coefficient  Atom+Function         Bfn.  Coefficient  Atom+Function  
  ----- ------------  ---------------      ----- ------------  ---------------
     6      1.636849  1 O  s                 13     -1.133170  1 O  dyy        
    16     -0.845041  2 H  s                 18     -0.845041  3 H  s          
     9     -0.769166  1 O  pz                10      0.742516  1 O  dxx        
     2     -0.539321  1 O  s                 17     -0.161320  2 H  s          
    19     -0.161320  3 H  s                  5      0.058018  1 O  pz         

 Vector   18  Occ=0.000000D+00  E= 2.145097D+00  Symmetry=b1
              MO Center= -5.6D-16, -1.7D-16,  6.0D-02, r^2= 8.9D-01
   Bfn.  Coefficient  Atom+Function         Bfn.  Coefficient  Atom+Function  
  ----- ------------  ---------------      ----- ------------  ---------------
    12      2.219008  1 O  dxz               16     -0.965599  2 H  s          
    18      0.965599  3 H  s                  7     -0.895879  1 O  px         
    17      0.043549  2 H  s                 19     -0.043549  3 H  s          
     3      0.030195  1 O  px         

 Vector   19  Occ=0.000000D+00  E= 3.113756D+00  Symmetry=a1
              MO Center= -3.1D-17,  1.5D-17,  1.1D-01, r^2= 1.1D+00
   Bfn.  Coefficient  Atom+Function         Bfn.  Coefficient  Atom+Function  
  ----- ------------  ---------------      ----- ------------  ---------------
     6      3.805853  1 O  s                 13     -1.588871  1 O  dyy        
    15     -1.568976  1 O  dzz               10     -1.546055  1 O  dxx        
    17     -0.586884  2 H  s                 19     -0.586884  3 H  s          
     1     -0.469997  1 O  s                  9     -0.340758  1 O  pz         
     2      0.240344  1 O  s                 16      0.125628  2 H  s          


            General Information
            -------------------
          SCF calculation type: DFT
          Wavefunction type:  spin polarized.
          No. of atoms     :     3
          No. of electrons :     9
           Alpha electrons :     5
            Beta electrons :     4
          Charge           :     1
          Spin multiplicity:     2
          Use of symmetry is: on ; symmetry adaption is: on 
          Maximum number of iterations:  30
          AO basis - number of functions:    19
                     number of shells:    10
          Convergence on energy requested:  1.00D-06
          Convergence on density requested:  1.00D-05
          Convergence on gradient requested:  5.00D-04

              XC Information
              --------------
                         B3LYP Method XC Potential
                     Hartree-Fock (Exact) Exchange  0.200          
                        Slater Exchange Functional  0.800 local    
                    Becke 1988 Exchange Functional  0.720 non-local
              Lee-Yang-Parr Correlation Functional  0.810          
                  VWN I RPA Correlation Functional  0.190 local    

             Grid Information
             ----------------
          Grid used for XC integration:  medium    
          Radial quadrature: Mura-Knowles        
          Angular quadrature: Lebedev. 
          Tag              B.-S. Rad. Rad. Pts. Rad. Cut. Ang. Pts.
          ---              ---------- --------- --------- ---------
          O                   0.60       49           5.0       434
          H                   0.35       45           6.0       434
          Grid pruning is: on 
          Number of quadrature shells:    94
          Spatial weights used:  Erf1

          Convergence Information
          -----------------------
          Convergence aids based upon iterative change in 
          total energy or number of iterations. 
          Levelshifting, if invoked, occurs when the 
          HOMO/LUMO gap drops below (HL_TOL):  1.00D-02
          DIIS, if invoked, will attempt to extrapolate 
          using up to (NFOCK): 10 stored Fock matrices.

                    Damping( 0%)  Levelshifting(0.5)       DIIS
                  --------------- ------------------- ---------------
          dE  on:    start            ASAP                start   
          dE off:    2 iters         30 iters            30 iters 


      Screening Tolerance Information
      -------------------------------
          Density screening/tol_rho:  1.00D-10
          AO Gaussian exp screening on grid/accAOfunc:  14
          CD Gaussian exp screening on grid/accCDfunc:  20
          XC Gaussian exp screening on grid/accXCfunc:  20
          Schwarz screening/accCoul:  1.00D-08



                            NWChem DFT Gradient Module
                            --------------------------



  charge          =   1.00
  wavefunction    = open shell

XC gradient
    -0.526431    -0.426582     0.280635
     0.071127     0.009483     0.018196
     0.455304     0.417099    -0.298831

CD gradient
     0.000000     0.000000     0.000000
     0.000000     0.000000     0.000000
     0.000000     0.000000     0.000000

   1  -0.526431  -0.426582   0.280635
   2   0.071127   0.009483   0.018196
   3   0.455304   0.417099  -0.298831
  Using symmetry
nuclear repulsion gradient  
     0.000000     0.000000    -2.994859
     2.056605     0.000000     1.497430
    -2.056605     0.000000     1.497430

weighted density gradient  
     0.622137     0.000000    -0.450350
    -0.015682     0.000000     0.000000
    -0.606455    -0.000000     0.450350

kinetic energy gradient  
    -5.099375    -0.000000     6.257312
    -1.728127     0.000000    -1.265644
     6.827502     0.000000    -4.991668

2-electron gradient  
     4.233742     0.000000    -3.141937
     0.048975     0.000000     0.045804
    -4.282718    -0.000000     3.096134

DFT CD+XC gradient
    -0.526431    -0.426582     0.280635
     0.071127     0.009483     0.018196
     0.455304     0.417099    -0.298831

total DFT gradient
     0.000000     0.000000    -0.049200
     0.047934     0.000000     0.024600
    -0.047934     0.000000     0.024600



                         DFT ENERGY GRADIENTS

    atom               coordinates                        gradient
                 x          y          z           x          y          z
   1 O       0.000000   0.000000   0.221400    0.000000   0.000000  -0.049200
   2 H      -1.430000   0.000000  -0.885600    0.047934   0.000000   0.024600
   3 H       1.430000   0.000000  -0.885600   -0.047934   0.000000   0.024600

                 ----------------------------------------
                 |  Time  |  1-e(secs)   |  2-e(secs)   |
                 ----------------------------------------
                 |  CPU   |       0.00   |       0.01   |
                 ----------------------------------------
                 |  WALL  |       0.00   |       0.01   |
                 ----------------------------------------
  no constraints, skipping    0.0000000000000000     

@ Step       Energy      Delta E   Gmax     Grms     Xrms     Xmax   Walltime
@ ---- ---------------- -------- -------- -------- -------- -------- --------
@    0     -75.95279291  0.0D+00  0.05296  0.04359  0.00000  0.00000      0.3
                                                                    



                                Z-matrix (autoz)
                                -------- 

 Units are Angstrom for bonds and degrees for angles

      Type          Name      I     J     K     L     M      Value     Gradient
      ----------- --------  ----- ----- ----- ----- ----- ---------- ----------
    1 Stretch                  1     2                       0.95697   -0.05296
    2 Stretch                  1     3                       0.95697   -0.05296
    3 Bend                     2     1     3               104.51124   -0.00946

  no constraints, skipping    0.0000000000000000     
  no constraints, skipping    0.0000000000000000     
  no constraints, skipping    0.0000000000000000     
  no constraints, skipping    0.0000000000000000     
  no constraints, skipping    0.0000000000000000     

                                 NWChem DFT Module
                                 -----------------




 Summary of "ao basis" -> "ao basis" (cartesian)
 ------------------------------------------------------------------------------
       Tag                 Description            Shells   Functions and Types
 ---------------- ------------------------------  ------  ---------------------
 O                           6-31g*                  6       15   3s2p1d
 H                           6-31g*                  2        2   2s


      Symmetry analysis of basis
      --------------------------

        a1         10
        a2          1
        b1          5
        b2          3

  Caching 1-el integrals 

            General Information
            -------------------
          SCF calculation type: DFT
          Wavefunction type:  spin polarized.
          No. of atoms     :     3
          No. of electrons :     9
           Alpha electrons :     5
            Beta electrons :     4
          Charge           :     1
          Spin multiplicity:     2
          Use of symmetry is: on ; symmetry adaption is: on 
          Maximum number of iterations:  30
          AO basis - number of functions:    19
                     number of shells:    10
          Convergence on energy requested:  1.00D-06
          Convergence on density requested:  1.00D-05
          Convergence on gradient requested:  5.00D-04

              XC Information
              --------------
                         B3LYP Method XC Potential
                     Hartree-Fock (Exact) Exchange  0.200          
                        Slater Exchange Functional  0.800 local    
                    Becke 1988 Exchange Functional  0.720 non-local
              Lee-Yang-Parr Correlation Functional  0.810          
                  VWN I RPA Correlation Functional  0.190 local    

             Grid Information
             ----------------
          Grid used for XC integration:  medium    
          Radial quadrature: Mura-Knowles        
          Angular quadrature: Lebedev. 
          Tag              B.-S. Rad. Rad. Pts. Rad. Cut. Ang. Pts.
          ---              ---------- --------- --------- ---------
          O                   0.60       49           5.0       434
          H                   0.35       45           6.0       434
          Grid pruning is: on 
          Number of quadrature shells:    94
          Spatial weights used:  Erf1

          Convergence Information
          -----------------------
          Convergence aids based upon iterative change in 
          total energy or number of iterations. 
          Levelshifting, if invoked, occurs when the 
          HOMO/LUMO gap drops below (HL_TOL):  1.00D-02
          DIIS, if invoked, will attempt to extrapolate 
          using up to (NFOCK): 10 stored Fock matrices.

                    Damping( 0%)  Levelshifting(0.5)       DIIS
                  --------------- ------------------- ---------------
          dE  on:    start            ASAP                start   
          dE off:    2 iters         30 iters            30 iters 


      Screening Tolerance Information
      -------------------------------
          Density screening/tol_rho:  1.00D-10
          AO Gaussian exp screening on grid/accAOfunc:  14
          CD Gaussian exp screening on grid/accCDfunc:  20
          XC Gaussian exp screening on grid/accXCfunc:  20
          Schwarz screening/accCoul:  1.00D-08


 Loading old vectors from job with title :




   Symmetry analysis of molecular orbitals - initial alpha
   -------------------------------------------------------

  Numbering of irreducible representations: 

     1 a1          2 a2          3 b1          4 b2      

  Orbital symmetries:

     1 a1          2 a1          3 b1          4 b2          5 a1      
     6 a1          7 b1          8 b1          9 b2         10 a1      
    11 a1         12 b1         13 a1         14 a2         15 a1      


   Symmetry analysis of molecular orbitals - initial beta
   ------------------------------------------------------

  Numbering of irreducible representations: 

     1 a1          2 a2          3 b1          4 b2      

  Orbital symmetries:

     1 a1          2 a1          3 b1          4 a1          5 b2      
     6 a1          7 b1          8 b1          9 a1         10 b2      
    11 a1         12 b1         13 a1         14 a1         15 a2      



 ----------------------------------------------
         Quadratically convergent UKS

 Convergence threshold     :          5.000E-04
 Maximum no. of iterations :           30
 Integral*density screening:          1.000E-08

 PCG initial level shift   :              5.000
 PCG change shift at maxg  :              0.500
 PCG final level shift     :              0.000
 NR  initial level shift   :              0.000
 NR  change shift at maxg  :              0.000
 NR  final level shift     :              0.000
 NR  enabled at maxg       :              0.000
 ----------------------------------------------


 Grid_pts file          = ./h2o_cg_opt_ub3lyp_dat.gridpts.0
 Record size in doubles =  12289        No. of grid_pts per rec  =   3070
 Max. records in memory =      5        Max. recs in file   = 253312716


              iter       energy          gnorm     gmax       time
             ----- ------------------- --------- --------- --------
                 1      -75.9549104451  1.64D-01  4.70D-02      0.4
                 2      -75.9577624418  5.97D-02  1.80D-02      0.5
                 3      -75.9581477121  9.17D-03  3.31D-03      0.5
                 4      -75.9581569301  1.96D-03  7.16D-04      0.5
                 5      -75.9581570787  1.63D-03  5.21D-04      0.5
                 6      -75.9581573647  3.71D-04  1.65D-04      0.5


         Total DFT energy =      -75.958157364723
      One electron energy =     -116.961589031802
           Coulomb energy =       41.415488480223
    Exchange-Corr. energy =       -8.909328335880
 Nuclear repulsion energy =        8.497271522735

 Numeric. integr. density =        8.999999548673

     Total iterative time =      0.1s



                    DFT Final Alpha Molecular Orbital Analysis
                    ------------------------------------------

 Vector    1  Occ=1.000000D+00  E=-1.971102D+01  Symmetry=a1
              MO Center=  5.9D-18, -4.8D-19,  1.2D-01, r^2= 1.5D-02
   Bfn.  Coefficient  Atom+Function         Bfn.  Coefficient  Atom+Function  
  ----- ------------  ---------------      ----- ------------  ---------------
     1      0.992679  1 O  s                  2      0.026776  1 O  s          

 Vector    2  Occ=1.000000D+00  E=-1.496970D+00  Symmetry=a1
              MO Center= -2.2D-17, -9.3D-18, -3.8D-02, r^2= 4.7D-01
   Bfn.  Coefficient  Atom+Function         Bfn.  Coefficient  Atom+Function  
  ----- ------------  ---------------      ----- ------------  ---------------
     2      0.528687  1 O  s                  6      0.456299  1 O  s          
     1     -0.220468  1 O  s                  5     -0.114495  1 O  pz         
    16      0.106647  2 H  s                 18      0.106647  3 H  s          
     9     -0.065787  1 O  pz         

 Vector    3  Occ=1.000000D+00  E=-9.802172D-01  Symmetry=b1
              MO Center= -1.0D-17, -9.1D-18, -5.6D-02, r^2= 7.0D-01
   Bfn.  Coefficient  Atom+Function         Bfn.  Coefficient  Atom+Function  
  ----- ------------  ---------------      ----- ------------  ---------------
     3      0.585916  1 O  px                 7      0.304049  1 O  px         
    16     -0.212804  2 H  s                 18      0.212804  3 H  s          
    12     -0.080321  1 O  dxz               17     -0.050663  2 H  s          
    19      0.050663  3 H  s          

 Vector    4  Occ=1.000000D+00  E=-8.637941D-01  Symmetry=b2
              MO Center= -2.7D-16,  1.5D-16,  1.0D-01, r^2= 5.0D-01
   Bfn.  Coefficient  Atom+Function         Bfn.  Coefficient  Atom+Function  
  ----- ------------  ---------------      ----- ------------  ---------------
     4      0.728542  1 O  py                 8      0.410264  1 O  py         
    14     -0.057586  1 O  dyz        

 Vector    5  Occ=1.000000D+00  E=-8.444711D-01  Symmetry=a1
              MO Center=  5.3D-18, -4.0D-18,  1.9D-01, r^2= 6.0D-01
   Bfn.  Coefficient  Atom+Function         Bfn.  Coefficient  Atom+Function  
  ----- ------------  ---------------      ----- ------------  ---------------
     5      0.634960  1 O  pz                 9      0.366122  1 O  pz         
     6      0.221328  1 O  s                  2      0.175448  1 O  s          
    16     -0.127197  2 H  s                 18     -0.127197  3 H  s          
     1     -0.068392  1 O  s                 17     -0.052365  2 H  s          
    19     -0.052365  3 H  s                 15     -0.043976  1 O  dzz        

 Vector    6  Occ=0.000000D+00  E=-3.051404D-01  Symmetry=a1
              MO Center=  2.1D-17, -2.8D-17, -5.5D-01, r^2= 2.2D+00
   Bfn.  Coefficient  Atom+Function         Bfn.  Coefficient  Atom+Function  
  ----- ------------  ---------------      ----- ------------  ---------------
     6      0.902826  1 O  s                 17     -0.798029  2 H  s          
    19     -0.798029  3 H  s                  9     -0.344125  1 O  pz         
     5     -0.305504  1 O  pz                 2      0.221826  1 O  s          
    16     -0.212036  2 H  s                 18     -0.212036  3 H  s          
     1     -0.094904  1 O  s                 10     -0.038440  1 O  dxx        

 Vector    7  Occ=0.000000D+00  E=-2.271244D-01  Symmetry=b1
              MO Center= -1.5D-16,  3.1D-19, -5.1D-01, r^2= 2.2D+00
   Bfn.  Coefficient  Atom+Function         Bfn.  Coefficient  Atom+Function  
  ----- ------------  ---------------      ----- ------------  ---------------
    17      0.994335  2 H  s                 19     -0.994335  3 H  s          
     7      0.593428  1 O  px                 3      0.467770  1 O  px         
    16      0.229570  2 H  s                 18     -0.229570  3 H  s          

 Vector    8  Occ=0.000000D+00  E= 3.748709D-01  Symmetry=a1
              MO Center= -7.7D-17, -1.5D-16, -3.5D-01, r^2= 1.7D+00
   Bfn.  Coefficient  Atom+Function         Bfn.  Coefficient  Atom+Function  
  ----- ------------  ---------------      ----- ------------  ---------------
    16      0.758400  2 H  s                 18      0.758400  3 H  s          
    17     -0.704121  2 H  s                 19     -0.704121  3 H  s          
     5      0.465575  1 O  pz                 9     -0.269085  1 O  pz         
     6      0.263981  1 O  s                 10      0.193677  1 O  dxx        
    13     -0.139477  1 O  dyy                2     -0.092047  1 O  s          

 Vector    9  Occ=0.000000D+00  E= 3.900573D-01  Symmetry=b1
              MO Center=  2.6D-16, -3.0D-16, -3.0D-01, r^2= 2.1D+00
   Bfn.  Coefficient  Atom+Function         Bfn.  Coefficient  Atom+Function  
  ----- ------------  ---------------      ----- ------------  ---------------
    17      0.914801  2 H  s                 19     -0.914801  3 H  s          
    16     -0.798143  2 H  s                 18      0.798143  3 H  s          
    12     -0.394435  1 O  dxz                3     -0.222498  1 O  px         
     7     -0.067679  1 O  px         

 Vector   10  Occ=0.000000D+00  E= 4.125073D-01  Symmetry=b2
              MO Center= -1.9D-16,  1.7D-15,  1.1D-01, r^2= 1.2D+00
   Bfn.  Coefficient  Atom+Function         Bfn.  Coefficient  Atom+Function  
  ----- ------------  ---------------      ----- ------------  ---------------
     8      1.079813  1 O  py                 4     -0.897369  1 O  py         
    14     -0.044846  1 O  dyz        

 Vector   11  Occ=0.000000D+00  E= 4.815930D-01  Symmetry=a1
              MO Center= -9.8D-18, -1.9D-15,  4.1D-01, r^2= 1.3D+00
   Bfn.  Coefficient  Atom+Function         Bfn.  Coefficient  Atom+Function  
  ----- ------------  ---------------      ----- ------------  ---------------
     6      1.126676  1 O  s                  9      0.937232  1 O  pz         
     5     -0.700405  1 O  pz                 2     -0.658657  1 O  s          
    16      0.316163  2 H  s                 18      0.316163  3 H  s          
    13     -0.257723  1 O  dyy               17     -0.253691  2 H  s          
    19     -0.253691  3 H  s                 15     -0.224142  1 O  dzz        

 Vector   12  Occ=0.000000D+00  E= 6.447291D-01  Symmetry=b1
              MO Center= -2.2D-16,  1.2D-30,  1.8D-01, r^2= 1.6D+00
   Bfn.  Coefficient  Atom+Function         Bfn.  Coefficient  Atom+Function  
  ----- ------------  ---------------      ----- ------------  ---------------
     7      1.688882  1 O  px                 3     -0.906433  1 O  px         
    17      0.815695  2 H  s                 19     -0.815695  3 H  s          
    12      0.164644  1 O  dxz               16      0.100925  2 H  s          
    18     -0.100925  3 H  s          

 Vector   13  Occ=0.000000D+00  E= 7.360226D-01  Symmetry=a1
              MO Center= -4.4D-17,  2.4D-16, -3.7D-01, r^2= 1.5D+00
   Bfn.  Coefficient  Atom+Function         Bfn.  Coefficient  Atom+Function  
  ----- ------------  ---------------      ----- ------------  ---------------
     6      3.449682  1 O  s                  2     -1.491132  1 O  s          
     9     -0.946817  1 O  pz                17     -0.793567  2 H  s          
    19     -0.793567  3 H  s                 10     -0.626936  1 O  dxx        
     5      0.384291  1 O  pz                15     -0.365481  1 O  dzz        
    13     -0.257008  1 O  dyy               16     -0.219507  2 H  s          

 Vector   14  Occ=0.000000D+00  E= 1.238495D+00  Symmetry=a2
              MO Center= -1.2D-15,  5.2D-16,  1.2D-01, r^2= 6.1D-01
   Bfn.  Coefficient  Atom+Function         Bfn.  Coefficient  Atom+Function  
  ----- ------------  ---------------      ----- ------------  ---------------
    11      1.732051  1 O  dxy        

 Vector   15  Occ=0.000000D+00  E= 1.278390D+00  Symmetry=a1
              MO Center=  2.9D-17,  4.9D-17,  1.6D-01, r^2= 6.1D-01
   Bfn.  Coefficient  Atom+Function         Bfn.  Coefficient  Atom+Function  
  ----- ------------  ---------------      ----- ------------  ---------------
    15      0.998308  1 O  dzz               13     -0.528582  1 O  dyy        
    10     -0.465577  1 O  dxx                6     -0.090049  1 O  s          
     9      0.086999  1 O  pz                 2      0.054993  1 O  s          
    16      0.027325  2 H  s                 18      0.027325  3 H  s          

 Vector   16  Occ=0.000000D+00  E= 1.282391D+00  Symmetry=b2
              MO Center=  1.6D-15, -6.9D-17,  1.5D-01, r^2= 6.1D-01
   Bfn.  Coefficient  Atom+Function         Bfn.  Coefficient  Atom+Function  
  ----- ------------  ---------------      ----- ------------  ---------------
    14      1.730512  1 O  dyz                8      0.041635  1 O  py         

 Vector   17  Occ=0.000000D+00  E= 1.723131D+00  Symmetry=a1
              MO Center=  1.1D-17,  5.2D-17,  1.2D-02, r^2= 8.5D-01
   Bfn.  Coefficient  Atom+Function         Bfn.  Coefficient  Atom+Function  
  ----- ------------  ---------------      ----- ------------  ---------------
     6      1.314636  1 O  s                 13     -1.023734  1 O  dyy        
    10      0.825097  1 O  dxx               16     -0.724768  2 H  s          
    18     -0.724768  3 H  s                  9     -0.612805  1 O  pz         
     2     -0.488261  1 O  s                 15     -0.131942  1 O  dzz        
     5      0.100040  1 O  pz                17     -0.077457  2 H  s          

 Vector   18  Occ=0.000000D+00  E= 2.009460D+00  Symmetry=b1
              MO Center= -7.1D-17, -2.1D-16,  2.7D-02, r^2= 8.9D-01
   Bfn.  Coefficient  Atom+Function         Bfn.  Coefficient  Atom+Function  
  ----- ------------  ---------------      ----- ------------  ---------------
    12      2.056173  1 O  dxz               16     -0.841361  2 H  s          
    18      0.841361  3 H  s                  7     -0.821840  1 O  px         
     3      0.116785  1 O  px                17      0.071038  2 H  s          
    19     -0.071038  3 H  s          

 Vector   19  Occ=0.000000D+00  E= 3.049346D+00  Symmetry=a1
              MO Center= -1.5D-16, -3.2D-18,  1.2D-01, r^2= 1.1D+00
   Bfn.  Coefficient  Atom+Function         Bfn.  Coefficient  Atom+Function  
  ----- ------------  ---------------      ----- ------------  ---------------
     6      3.652750  1 O  s                 13     -1.573607  1 O  dyy        
    15     -1.552780  1 O  dzz               10     -1.506558  1 O  dxx        
    17     -0.534882  2 H  s                 19     -0.534882  3 H  s          
     1     -0.463527  1 O  s                  9     -0.311174  1 O  pz         
     2      0.269784  1 O  s                  5      0.099206  1 O  pz         


                     DFT Final Beta Molecular Orbital Analysis
                     -----------------------------------------

 Vector    1  Occ=1.000000D+00  E=-1.968361D+01  Symmetry=a1
              MO Center=  5.9D-18, -1.4D-19,  1.2D-01, r^2= 1.5D-02
   Bfn.  Coefficient  Atom+Function         Bfn.  Coefficient  Atom+Function  
  ----- ------------  ---------------      ----- ------------  ---------------
     1      0.993186  1 O  s                  2      0.025344  1 O  s          

 Vector    2  Occ=1.000000D+00  E=-1.423442D+00  Symmetry=a1
              MO Center= -4.0D-17,  2.1D-17, -5.8D-02, r^2= 4.9D-01
   Bfn.  Coefficient  Atom+Function         Bfn.  Coefficient  Atom+Function  
  ----- ------------  ---------------      ----- ------------  ---------------
     2      0.499859  1 O  s                  6      0.458011  1 O  s          
     1     -0.214435  1 O  s                 16      0.120778  2 H  s          
    18      0.120778  3 H  s                  5     -0.118706  1 O  pz         
     9     -0.069138  1 O  pz                10      0.030330  1 O  dxx        

 Vector    3  Occ=1.000000D+00  E=-9.590764D-01  Symmetry=b1
              MO Center=  4.6D-16, -7.4D-17, -7.2D-02, r^2= 7.3D-01
   Bfn.  Coefficient  Atom+Function         Bfn.  Coefficient  Atom+Function  
  ----- ------------  ---------------      ----- ------------  ---------------
     3      0.564210  1 O  px                 7      0.298052  1 O  px         
    16     -0.227616  2 H  s                 18      0.227616  3 H  s          
    12     -0.077877  1 O  dxz               17     -0.062865  2 H  s          
    19      0.062865  3 H  s          

 Vector    4  Occ=1.000000D+00  E=-8.144343D-01  Symmetry=a1
              MO Center= -5.0D-17,  4.7D-18,  2.0D-01, r^2= 6.1D-01
   Bfn.  Coefficient  Atom+Function         Bfn.  Coefficient  Atom+Function  
  ----- ------------  ---------------      ----- ------------  ---------------
     5      0.617913  1 O  pz                 9      0.371196  1 O  pz         
     6      0.252157  1 O  s                  2      0.182458  1 O  s          
    16     -0.131700  2 H  s                 18     -0.131700  3 H  s          
     1     -0.074225  1 O  s                 17     -0.059155  2 H  s          
    19     -0.059155  3 H  s                 15     -0.038519  1 O  dzz        

 Vector    5  Occ=0.000000D+00  E=-5.974928D-01  Symmetry=b2
              MO Center= -1.9D-16,  3.7D-16,  1.0D-01, r^2= 5.9D-01
   Bfn.  Coefficient  Atom+Function         Bfn.  Coefficient  Atom+Function  
  ----- ------------  ---------------      ----- ------------  ---------------
     4      0.650992  1 O  py                 8      0.499215  1 O  py         
    14     -0.055310  1 O  dyz        

 Vector    6  Occ=0.000000D+00  E=-2.944785D-01  Symmetry=a1
              MO Center= -4.4D-17, -6.8D-17, -5.5D-01, r^2= 2.2D+00
   Bfn.  Coefficient  Atom+Function         Bfn.  Coefficient  Atom+Function  
  ----- ------------  ---------------      ----- ------------  ---------------
     6      0.952846  1 O  s                 17     -0.813670  2 H  s          
    19     -0.813670  3 H  s                  9     -0.362476  1 O  pz         
     5     -0.308330  1 O  pz                 2      0.212440  1 O  s          
    16     -0.205510  2 H  s                 18     -0.205510  3 H  s          
     1     -0.099228  1 O  s                 10     -0.032254  1 O  dxx        

 Vector    7  Occ=0.000000D+00  E=-2.206654D-01  Symmetry=b1
              MO Center=  2.5D-17,  1.5D-17, -5.0D-01, r^2= 2.2D+00
   Bfn.  Coefficient  Atom+Function         Bfn.  Coefficient  Atom+Function  
  ----- ------------  ---------------      ----- ------------  ---------------
    17      1.004217  2 H  s                 19     -1.004217  3 H  s          
     7      0.619742  1 O  px                 3      0.473037  1 O  px         
    16      0.222813  2 H  s                 18     -0.222813  3 H  s          

 Vector    8  Occ=0.000000D+00  E= 3.847507D-01  Symmetry=a1
              MO Center= -3.7D-17,  3.4D-16, -3.7D-01, r^2= 1.7D+00
   Bfn.  Coefficient  Atom+Function         Bfn.  Coefficient  Atom+Function  
  ----- ------------  ---------------      ----- ------------  ---------------
    16      0.774404  2 H  s                 18      0.774404  3 H  s          
    17     -0.703696  2 H  s                 19     -0.703696  3 H  s          
     5      0.465045  1 O  pz                 6      0.270676  1 O  s          
     9     -0.244680  1 O  pz                10      0.178272  1 O  dxx        
     2     -0.118367  1 O  s                 13     -0.117813  1 O  dyy        

 Vector    9  Occ=0.000000D+00  E= 3.876963D-01  Symmetry=b1
              MO Center= -3.3D-16,  6.7D-18, -2.9D-01, r^2= 2.0D+00
   Bfn.  Coefficient  Atom+Function         Bfn.  Coefficient  Atom+Function  
  ----- ------------  ---------------      ----- ------------  ---------------
    17      0.907710  2 H  s                 19     -0.907710  3 H  s          
    16     -0.800132  2 H  s                 18      0.800132  3 H  s          
    12     -0.387993  1 O  dxz                3     -0.223901  1 O  px         
     7     -0.084507  1 O  px         

 Vector   10  Occ=0.000000D+00  E= 4.981511D-01  Symmetry=a1
              MO Center= -1.4D-15, -1.0D-15,  4.2D-01, r^2= 1.3D+00
   Bfn.  Coefficient  Atom+Function         Bfn.  Coefficient  Atom+Function  
  ----- ------------  ---------------      ----- ------------  ---------------
     6      1.092067  1 O  s                  9      0.948631  1 O  pz         
     5     -0.715315  1 O  pz                 2     -0.652710  1 O  s          
    16      0.314531  2 H  s                 18      0.314531  3 H  s          
    13     -0.240832  1 O  dyy               17     -0.236088  2 H  s          
    19     -0.236088  3 H  s                 15     -0.234662  1 O  dzz        

 Vector   11  Occ=0.000000D+00  E= 5.088256D-01  Symmetry=b2
              MO Center= -1.5D-16,  2.9D-16,  1.1D-01, r^2= 1.1D+00
   Bfn.  Coefficient  Atom+Function         Bfn.  Coefficient  Atom+Function  
  ----- ------------  ---------------      ----- ------------  ---------------
     8     -1.041745  1 O  py                 4      0.955120  1 O  py         
    14      0.039905  1 O  dyz        

 Vector   12  Occ=0.000000D+00  E= 6.600636D-01  Symmetry=b1
              MO Center=  1.5D-15,  9.1D-18,  1.8D-01, r^2= 1.5D+00
   Bfn.  Coefficient  Atom+Function         Bfn.  Coefficient  Atom+Function  
  ----- ------------  ---------------      ----- ------------  ---------------
     7      1.679338  1 O  px                 3     -0.917028  1 O  px         
    17      0.810839  2 H  s                 19     -0.810839  3 H  s          
    12      0.164058  1 O  dxz               16      0.095399  2 H  s          
    18     -0.095399  3 H  s          

 Vector   13  Occ=0.000000D+00  E= 7.638517D-01  Symmetry=a1
              MO Center=  8.1D-17,  2.7D-17, -3.7D-01, r^2= 1.5D+00
   Bfn.  Coefficient  Atom+Function         Bfn.  Coefficient  Atom+Function  
  ----- ------------  ---------------      ----- ------------  ---------------
     6      3.481343  1 O  s                  2     -1.494784  1 O  s          
     9     -0.941673  1 O  pz                17     -0.786365  2 H  s          
    19     -0.786365  3 H  s                 10     -0.644091  1 O  dxx        
     5      0.382423  1 O  pz                15     -0.364816  1 O  dzz        
    13     -0.284844  1 O  dyy               16     -0.226528  2 H  s          

 Vector   14  Occ=0.000000D+00  E= 1.304584D+00  Symmetry=a2
              MO Center= -1.2D-15,  2.4D-16,  1.2D-01, r^2= 6.1D-01
   Bfn.  Coefficient  Atom+Function         Bfn.  Coefficient  Atom+Function  
  ----- ------------  ---------------      ----- ------------  ---------------
    11      1.732051  1 O  dxy        

 Vector   15  Occ=0.000000D+00  E= 1.310600D+00  Symmetry=a1
              MO Center=  9.6D-18,  7.2D-17,  1.7D-01, r^2= 6.2D-01
   Bfn.  Coefficient  Atom+Function         Bfn.  Coefficient  Atom+Function  
  ----- ------------  ---------------      ----- ------------  ---------------
    15      1.015472  1 O  dzz               10     -0.504102  1 O  dxx        
    13     -0.448620  1 O  dyy                6     -0.248576  1 O  s          
     9      0.150919  1 O  pz                 2      0.095098  1 O  s          
    16      0.094983  2 H  s                 18      0.094983  3 H  s          
    17      0.034539  2 H  s                 19      0.034539  3 H  s          

 Vector   16  Occ=0.000000D+00  E= 1.347471D+00  Symmetry=b2
              MO Center=  1.5D-15, -6.9D-17,  1.4D-01, r^2= 6.1D-01
   Bfn.  Coefficient  Atom+Function         Bfn.  Coefficient  Atom+Function  
  ----- ------------  ---------------      ----- ------------  ---------------
    14      1.730707  1 O  dyz                8      0.039974  1 O  py         

 Vector   17  Occ=0.000000D+00  E= 1.781466D+00  Symmetry=a1
              MO Center=  5.7D-16,  7.5D-18,  1.7D-02, r^2= 8.3D-01
   Bfn.  Coefficient  Atom+Function         Bfn.  Coefficient  Atom+Function  
  ----- ------------  ---------------      ----- ------------  ---------------
     6      1.262278  1 O  s                 13     -1.053572  1 O  dyy        
    10      0.805445  1 O  dxx               16     -0.699421  2 H  s          
    18     -0.699421  3 H  s                  9     -0.587855  1 O  pz         
     2     -0.497069  1 O  s                  5      0.096285  1 O  pz         
    17     -0.075700  2 H  s                 19     -0.075700  3 H  s          

 Vector   18  Occ=0.000000D+00  E= 2.019710D+00  Symmetry=b1
              MO Center= -6.6D-16, -2.0D-16,  2.8D-02, r^2= 8.9D-01
   Bfn.  Coefficient  Atom+Function         Bfn.  Coefficient  Atom+Function  
  ----- ------------  ---------------      ----- ------------  ---------------
    12      2.057560  1 O  dxz               16     -0.838050  2 H  s          
    18      0.838050  3 H  s                  7     -0.822615  1 O  px         
     3      0.117052  1 O  px                17      0.068807  2 H  s          
    19     -0.068807  3 H  s          

 Vector   19  Occ=0.000000D+00  E= 3.094181D+00  Symmetry=a1
              MO Center=  3.1D-17,  7.1D-18,  1.2D-01, r^2= 1.0D+00
   Bfn.  Coefficient  Atom+Function         Bfn.  Coefficient  Atom+Function  
  ----- ------------  ---------------      ----- ------------  ---------------
     6      3.628862  1 O  s                 13     -1.578274  1 O  dyy        
    15     -1.544889  1 O  dzz               10     -1.498757  1 O  dxx        
    17     -0.529638  2 H  s                 19     -0.529638  3 H  s          
     1     -0.463273  1 O  s                  9     -0.308500  1 O  pz         
     2      0.284137  1 O  s                  5      0.098053  1 O  pz         

 Line search: 
     step= 1.00 grad=-1.7D-02 hess= 1.2D-02 energy=    -75.958157 mode=downhill
 new step= 0.72                   predicted energy=    -75.959066
  no constraints, skipping    0.0000000000000000     
  no constraints, skipping    0.0000000000000000     
  no constraints, skipping    0.0000000000000000     
  no constraints, skipping    0.0000000000000000     
  no constraints, skipping    0.0000000000000000     

          --------
          Step   1
          --------


                         Geometry "geometry" -> "geometry"
                         ---------------------------------

 Output coordinates in a.u. (scale by  1.000000000 to convert to a.u.)

  No.       Tag          Charge          X              Y              Z
 ---- ---------------- ---------- -------------- -------------- --------------
    1 O                    8.0000     0.00000000     0.00000000     0.22665286
    2 H                    1.0000    -1.55617133     0.00000000    -0.88822643
    3 H                    1.0000     1.55617133     0.00000000    -0.88822643

      Atomic Mass 
      ----------- 

      O                 15.994910
      H                  1.007825


 Effective nuclear repulsion energy (a.u.)       8.6793561135

            Nuclear Dipole moment (a.u.) 
            ----------------------------
        X                 Y               Z
 ---------------- ---------------- ----------------
     0.0000000000     0.0000000000     0.0367700386

      Symmetry information
      --------------------

 Group name             C2v       
 Group number             16
 Group order               4
 No. of unique centers     2

      Symmetry unique atoms

     1    2


                                 NWChem DFT Module
                                 -----------------




 Summary of "ao basis" -> "ao basis" (cartesian)
 ------------------------------------------------------------------------------
       Tag                 Description            Shells   Functions and Types
 ---------------- ------------------------------  ------  ---------------------
 O                           6-31g*                  6       15   3s2p1d
 H                           6-31g*                  2        2   2s


      Symmetry analysis of basis
      --------------------------

        a1         10
        a2          1
        b1          5
        b2          3

  Caching 1-el integrals 

            General Information
            -------------------
          SCF calculation type: DFT
          Wavefunction type:  spin polarized.
          No. of atoms     :     3
          No. of electrons :     9
           Alpha electrons :     5
            Beta electrons :     4
          Charge           :     1
          Spin multiplicity:     2
          Use of symmetry is: on ; symmetry adaption is: on 
          Maximum number of iterations:  30
          AO basis - number of functions:    19
                     number of shells:    10
          Convergence on energy requested:  1.00D-06
          Convergence on density requested:  1.00D-05
          Convergence on gradient requested:  5.00D-04

              XC Information
              --------------
                         B3LYP Method XC Potential
                     Hartree-Fock (Exact) Exchange  0.200          
                        Slater Exchange Functional  0.800 local    
                    Becke 1988 Exchange Functional  0.720 non-local
              Lee-Yang-Parr Correlation Functional  0.810          
                  VWN I RPA Correlation Functional  0.190 local    

             Grid Information
             ----------------
          Grid used for XC integration:  medium    
          Radial quadrature: Mura-Knowles        
          Angular quadrature: Lebedev. 
          Tag              B.-S. Rad. Rad. Pts. Rad. Cut. Ang. Pts.
          ---              ---------- --------- --------- ---------
          O                   0.60       49           5.0       434
          H                   0.35       45           6.0       434
          Grid pruning is: on 
          Number of quadrature shells:    94
          Spatial weights used:  Erf1

          Convergence Information
          -----------------------
          Convergence aids based upon iterative change in 
          total energy or number of iterations. 
          Levelshifting, if invoked, occurs when the 
          HOMO/LUMO gap drops below (HL_TOL):  1.00D-02
          DIIS, if invoked, will attempt to extrapolate 
          using up to (NFOCK): 10 stored Fock matrices.

                    Damping( 0%)  Levelshifting(0.5)       DIIS
                  --------------- ------------------- ---------------
          dE  on:    start            ASAP                start   
          dE off:    2 iters         30 iters            30 iters 


      Screening Tolerance Information
      -------------------------------
          Density screening/tol_rho:  1.00D-10
          AO Gaussian exp screening on grid/accAOfunc:  14
          CD Gaussian exp screening on grid/accCDfunc:  20
          XC Gaussian exp screening on grid/accXCfunc:  20
          Schwarz screening/accCoul:  1.00D-08


 Loading old vectors from job with title :




   Symmetry analysis of molecular orbitals - initial alpha
   -------------------------------------------------------

  Numbering of irreducible representations: 

     1 a1          2 a2          3 b1          4 b2      

  Orbital symmetries:

     1 a1          2 a1          3 b1          4 b2          5 a1      
     6 a1          7 b1          8 a1          9 b1         10 b2      
    11 a1         12 b1         13 a1         14 a2         15 a1      


   Symmetry analysis of molecular orbitals - initial beta
   ------------------------------------------------------

  Numbering of irreducible representations: 

     1 a1          2 a2          3 b1          4 b2      

  Orbital symmetries:

     1 a1          2 a1          3 b1          4 a1          5 b2      
     6 a1          7 b1          8 a1          9 b1         10 a1      
    11 b2         12 b1         13 a1         14 a2         15 a1      



 ----------------------------------------------
         Quadratically convergent UKS

 Convergence threshold     :          5.000E-04
 Maximum no. of iterations :           30
 Integral*density screening:          1.000E-08

 PCG initial level shift   :              5.000
 PCG change shift at maxg  :              0.500
[...]
  ----- ------------  ---------------      ----- ------------  ---------------
     6      3.553126  1 O  s                  2     -1.508396  1 O  s          
     9     -0.951552  1 O  pz                17     -0.815600  2 H  s          
    19     -0.815600  3 H  s                 10     -0.647840  1 O  dxx        
     5      0.372236  1 O  pz                15     -0.364610  1 O  dzz        
    13     -0.282412  1 O  dyy               16     -0.226541  2 H  s          

 Vector   14  Occ=0.000000D+00  E= 1.297247D+00  Symmetry=a2
              MO Center= -1.2D-15,  1.9D-16,  1.2D-01, r^2= 6.1D-01
   Bfn.  Coefficient  Atom+Function         Bfn.  Coefficient  Atom+Function  
  ----- ------------  ---------------      ----- ------------  ---------------
    11      1.732051  1 O  dxy        

 Vector   15  Occ=0.000000D+00  E= 1.301199D+00  Symmetry=a1
              MO Center= -1.6D-17,  7.3D-17,  1.7D-01, r^2= 6.2D-01
   Bfn.  Coefficient  Atom+Function         Bfn.  Coefficient  Atom+Function  
  ----- ------------  ---------------      ----- ------------  ---------------
    15      1.015563  1 O  dzz               10     -0.510878  1 O  dxx        
    13     -0.439188  1 O  dyy                6     -0.265290  1 O  s          
     9      0.157630  1 O  pz                 2      0.098637  1 O  s          
    16      0.097923  2 H  s                 18      0.097923  3 H  s          
    17      0.039257  2 H  s                 19      0.039257  3 H  s          

 Vector   16  Occ=0.000000D+00  E= 1.340509D+00  Symmetry=b2
              MO Center=  1.6D-15, -6.8D-17,  1.4D-01, r^2= 6.1D-01
   Bfn.  Coefficient  Atom+Function         Bfn.  Coefficient  Atom+Function  
  ----- ------------  ---------------      ----- ------------  ---------------
    14      1.730628  1 O  dyz                8      0.040882  1 O  py         

 Vector   17  Occ=0.000000D+00  E= 1.801266D+00  Symmetry=a1
              MO Center= -7.4D-17,  9.3D-18,  9.4D-03, r^2= 8.3D-01
   Bfn.  Coefficient  Atom+Function         Bfn.  Coefficient  Atom+Function  
  ----- ------------  ---------------      ----- ------------  ---------------
     6      1.351797  1 O  s                 13     -1.070065  1 O  dyy        
    10      0.801499  1 O  dxx               16     -0.734674  2 H  s          
    18     -0.734674  3 H  s                  9     -0.625417  1 O  pz         
     2     -0.507818  1 O  s                 17     -0.094888  2 H  s          
    19     -0.094888  3 H  s                  5      0.087232  1 O  pz         

 Vector   18  Occ=0.000000D+00  E= 2.054681D+00  Symmetry=b1
              MO Center=  5.8D-17, -1.9D-16,  3.2D-02, r^2= 8.9D-01
   Bfn.  Coefficient  Atom+Function         Bfn.  Coefficient  Atom+Function  
  ----- ------------  ---------------      ----- ------------  ---------------
    12      2.097080  1 O  dxz               16     -0.873322  2 H  s          
    18      0.873322  3 H  s                  7     -0.854454  1 O  px         
     3      0.097354  1 O  px                17      0.058876  2 H  s          
    19     -0.058876  3 H  s          

 Vector   19  Occ=0.000000D+00  E= 3.100881D+00  Symmetry=a1
              MO Center=  1.4D-16,  8.9D-18,  1.1D-01, r^2= 1.0D+00
   Bfn.  Coefficient  Atom+Function         Bfn.  Coefficient  Atom+Function  
  ----- ------------  ---------------      ----- ------------  ---------------
     6      3.678995  1 O  s                 13     -1.581053  1 O  dyy        
    15     -1.552008  1 O  dzz               10     -1.512113  1 O  dxx        
    17     -0.546814  2 H  s                 19     -0.546814  3 H  s          
     1     -0.465186  1 O  s                  9     -0.314529  1 O  pz         
     2      0.272211  1 O  s                  5      0.101988  1 O  pz         

 Line search: 
     step= 1.00 grad=-3.5D-08 hess= 2.0D-08 energy=    -75.958807 mode=accept  
 new step= 1.00                   predicted energy=    -75.958807
  no constraints, skipping    0.0000000000000000     
  no constraints, skipping    0.0000000000000000     
  no constraints, skipping    0.0000000000000000     

          --------
          Step   3
          --------


                         Geometry "geometry" -> "geometry"
                         ---------------------------------

 Output coordinates in a.u. (scale by  1.000000000 to convert to a.u.)

  No.       Tag          Charge          X              Y              Z
 ---- ---------------- ---------- -------------- -------------- --------------
    1 O                    8.0000     0.00000000     0.00000000     0.21876964
    2 H                    1.0000    -1.56433018     0.00000000    -0.88428482
    3 H                    1.0000     1.56433018     0.00000000    -0.88428482

      Atomic Mass 
      ----------- 

      O                 15.994910
      H                  1.007825


 Effective nuclear repulsion energy (a.u.)       8.6785551161

            Nuclear Dipole moment (a.u.) 
            ----------------------------
        X                 Y               Z
 ---------------- ---------------- ----------------
     0.0000000000     0.0000000000    -0.0184125181

      Symmetry information
      --------------------

 Group name             C2v       
 Group number             16
 Group order               4
 No. of unique centers     2

      Symmetry unique atoms

     1    2


                                 NWChem DFT Module
                                 -----------------




 Summary of "ao basis" -> "ao basis" (cartesian)
 ------------------------------------------------------------------------------
       Tag                 Description            Shells   Functions and Types
 ---------------- ------------------------------  ------  ---------------------
 O                           6-31g*                  6       15   3s2p1d
 H                           6-31g*                  2        2   2s


      Symmetry analysis of basis
      --------------------------

        a1         10
        a2          1
        b1          5
        b2          3


  The DFT is already converged 

         Total DFT energy =    -75.958807061978


            General Information
            -------------------
          SCF calculation type: DFT
          Wavefunction type:  spin polarized.
          No. of atoms     :     3
          No. of electrons :     9
           Alpha electrons :     5
            Beta electrons :     4
          Charge           :     1
          Spin multiplicity:     2
          Use of symmetry is: on ; symmetry adaption is: on 
          Maximum number of iterations:  30
          AO basis - number of functions:    19
                     number of shells:    10
          Convergence on energy requested:  1.00D-06
          Convergence on density requested:  1.00D-05
          Convergence on gradient requested:  5.00D-04

              XC Information
              --------------
                         B3LYP Method XC Potential
                     Hartree-Fock (Exact) Exchange  0.200          
                        Slater Exchange Functional  0.800 local    
                    Becke 1988 Exchange Functional  0.720 non-local
              Lee-Yang-Parr Correlation Functional  0.810          
                  VWN I RPA Correlation Functional  0.190 local    

             Grid Information
             ----------------
          Grid used for XC integration:  medium    
          Radial quadrature: Mura-Knowles        
          Angular quadrature: Lebedev. 
          Tag              B.-S. Rad. Rad. Pts. Rad. Cut. Ang. Pts.
          ---              ---------- --------- --------- ---------
          O                   0.60       49           5.0       434
          H                   0.35       45           6.0       434
          Grid pruning is: on 
          Number of quadrature shells:    94
          Spatial weights used:  Erf1

          Convergence Information
          -----------------------
          Convergence aids based upon iterative change in 
          total energy or number of iterations. 
          Levelshifting, if invoked, occurs when the 
          HOMO/LUMO gap drops below (HL_TOL):  1.00D-02
          DIIS, if invoked, will attempt to extrapolate 
          using up to (NFOCK): 10 stored Fock matrices.

                    Damping( 0%)  Levelshifting(0.5)       DIIS
                  --------------- ------------------- ---------------
          dE  on:    start            ASAP                start   
          dE off:    2 iters         30 iters            30 iters 


      Screening Tolerance Information
      -------------------------------
          Density screening/tol_rho:  1.00D-10
          AO Gaussian exp screening on grid/accAOfunc:  14
          CD Gaussian exp screening on grid/accCDfunc:  20
          XC Gaussian exp screening on grid/accXCfunc:  20
          Schwarz screening/accCoul:  1.00D-08



                            NWChem DFT Gradient Module
                            --------------------------



  charge          =   1.00
  wavefunction    = open shell

XC gradient
    -0.484002    -0.373147     0.235081
     0.057011     0.007867     0.016682
     0.426991     0.365280    -0.251763

CD gradient
     0.000000     0.000000     0.000000
     0.000000     0.000000     0.000000
     0.000000     0.000000     0.000000

   1  -0.484002  -0.373147   0.235081
   2   0.057011   0.007867   0.016682
   3   0.426991   0.365280  -0.251763
  Using symmetry
nuclear repulsion gradient  
     0.000000     0.000000    -2.516570
     1.886635     0.000000     1.258285
    -1.886635     0.000000     1.258285

weighted density gradient  
     0.596253     0.000000    -0.377236
    -0.013799     0.000000     0.000000
    -0.582453    -0.000000     0.377236

kinetic energy gradient  
    -4.935023    -0.000000     5.315197
    -1.622654     0.000000    -1.089406
     6.557677     0.000000    -4.225791

2-electron gradient  
     4.112676     0.000000    -2.656495
     0.047860     0.000000     0.034792
    -4.160536    -0.000000     2.621703

DFT CD+XC gradient
    -0.484002    -0.373147     0.235081
     0.057011     0.007867     0.016682
     0.426991     0.365280    -0.251763

total DFT gradient
     0.000000     0.000000    -0.000023
     0.000004     0.000000     0.000011
    -0.000004     0.000000     0.000011



                         DFT ENERGY GRADIENTS

    atom               coordinates                        gradient
                 x          y          z           x          y          z
   1 O       0.000000   0.000000   0.218770    0.000000   0.000000  -0.000023
   2 H      -1.564330   0.000000  -0.884285    0.000004   0.000000   0.000011
   3 H       1.564330   0.000000  -0.884285   -0.000004   0.000000   0.000011

                 ----------------------------------------
                 |  Time  |  1-e(secs)   |  2-e(secs)   |
                 ----------------------------------------
                 |  CPU   |       0.00   |       0.01   |
                 ----------------------------------------
                 |  WALL  |       0.00   |       0.01   |
                 ----------------------------------------
  no constraints, skipping    0.0000000000000000     

  Step       Energy      Delta E   Gmax     Grms     Xrms     Xmax   Walltime
  ---- ---------------- -------- -------- -------- -------- -------- --------
@    3     -75.95880706 -1.5D-08  0.00001  0.00001  0.00007  0.00015      1.0
                                     ok       ok       ok       ok  



                                Z-matrix (autoz)
                                -------- 

 Units are Angstrom for bonds and degrees for angles

      Type          Name      I     J     K     L     M      Value     Gradient
      ----------- --------  ----- ----- ----- ----- ----- ---------- ----------
    1 Stretch                  1     2                       1.01291   -0.00001
    2 Stretch                  1     3                       1.01291   -0.00001
    3 Bend                     2     1     3               109.62246    0.00001


      ----------------------
      Optimization converged
      ----------------------


  Step       Energy      Delta E   Gmax     Grms     Xrms     Xmax   Walltime
  ---- ---------------- -------- -------- -------- -------- -------- --------
@    3     -75.95880706 -1.5D-08  0.00001  0.00001  0.00007  0.00015      1.0
                                     ok       ok       ok       ok  



                                Z-matrix (autoz)
                                -------- 

 Units are Angstrom for bonds and degrees for angles

      Type          Name      I     J     K     L     M      Value     Gradient
      ----------- --------  ----- ----- ----- ----- ----- ---------- ----------
    1 Stretch                  1     2                       1.01291   -0.00001
    2 Stretch                  1     3                       1.01291   -0.00001
    3 Bend                     2     1     3               109.62246    0.00001



                         Geometry "geometry" -> "geometry"
                         ---------------------------------

 Output coordinates in a.u. (scale by  1.000000000 to convert to a.u.)

  No.       Tag          Charge          X              Y              Z
 ---- ---------------- ---------- -------------- -------------- --------------
    1 O                    8.0000     0.00000000     0.00000000     0.21876964
    2 H                    1.0000    -1.56433018     0.00000000    -0.88428482
    3 H                    1.0000     1.56433018     0.00000000    -0.88428482

      Atomic Mass 
      ----------- 

      O                 15.994910
      H                  1.007825


 Effective nuclear repulsion energy (a.u.)       8.6785551161

            Nuclear Dipole moment (a.u.) 
            ----------------------------
        X                 Y               Z
 ---------------- ---------------- ----------------
     0.0000000000     0.0000000000    -0.0184125181

      Symmetry information
      --------------------

 Group name             C2v       
 Group number             16
 Group order               4
 No. of unique centers     2

      Symmetry unique atoms

     1    2


                Final and change from initial internal coordinates
                --------------------------------------------------



                                Z-matrix (autoz)
                                -------- 

 Units are Angstrom for bonds and degrees for angles

      Type          Name      I     J     K     L     M      Value       Change
      ----------- --------  ----- ----- ----- ----- ----- ---------- ----------
    1 Stretch                  1     2                       1.01291    0.05594
    2 Stretch                  1     3                       1.01291    0.05594
    3 Bend                     2     1     3               109.62246    5.11122

 ==============================================================================
                                internuclear distances
 ------------------------------------------------------------------------------
       center one      |      center two      | atomic units |       a.u.
 ------------------------------------------------------------------------------
    2 H                |   1 O                |     1.91412  |     1.91412
    3 H                |   1 O                |     1.91412  |     1.91412
 ------------------------------------------------------------------------------
                         number of included internuclear distances:          2
 ==============================================================================



 ==============================================================================
                                 internuclear angles
 ------------------------------------------------------------------------------
        center 1       |       center 2       |       center 3       |  degrees
 ------------------------------------------------------------------------------
    2 H                |   1 O                |   3 H                |   109.62
 ------------------------------------------------------------------------------
                            number of included internuclear angles:          1
 ==============================================================================




 Task  times  cpu:        0.9s     wall:        0.9s


                                NWChem Input Module
                                -------------------


 Summary of allocated global arrays
-----------------------------------
  No active global arrays



                         GA Statistics for process    0
                         ------------------------------

       create   destroy   get      put      acc     scatter   gather  read&inc
calls: 2325     2325     2.58e+04 4994     1.68e+04  147        0     2581     
number of processes/call 1.24e+00 1.33e+00 1.08e+00 0.00e+00 0.00e+00
bytes total:             1.21e+07 3.92e+06 5.73e+06 0.00e+00 0.00e+00 2.06e+04
bytes remote:            1.70e+06 4.21e+05 7.04e+05 -4.80e+02 0.00e+00 0.00e+00
Max memory consumed for GA by this process: 61704 bytes

MA_summarize_allocated_blocks: starting scan ...
MA_summarize_allocated_blocks: scan completed: 0 heap blocks, 0 stack blocks
MA usage statistics:

	allocation statistics:
					      heap	     stack
					      ----	     -----
	current number of blocks	         0	         0
	maximum number of blocks	        26	        57
	current total bytes		         0	         0
	maximum total bytes		 275980936	  22510280
	maximum total K-bytes		    275981	     22511
	maximum total M-bytes		       276	        23


                                     CITATION
                                     --------
                Please cite the following reference when publishing
                           results obtained with NWChem:

                 M. Valiev, E.J. Bylaska, N. Govind, K. Kowalski,
              T.P. Straatsma, H.J.J. van Dam, D. Wang, J. Nieplocha,
                        E. Apra, T.L. Windus, W.A. de Jong
                 "NWChem: a comprehensive and scalable open-source
                  solution for large scale molecular simulations"
                      Comput. Phys. Commun. 181, 1477 (2010)
                           doi:10.1016/j.cpc.2010.04.018

                                      AUTHORS
                                      -------
          E. Apra, E. J. Bylaska, W. A. de Jong, N. Govind, K. Kowalski,
       T. P. Straatsma, M. Valiev, H. J. J. van Dam, D. Wang, T. L. Windus,
        J. Hammond, J. Autschbach, K. Bhaskaran-Nair, J. Brabec, K. Lopata,
    S. A. Fischer, S. Krishnamoorthy, M. Jacquelin, W. Ma, M. Klemm, O. Villa,
      Y. Chen, V. Anisimov, F. Aquino, S. Hirata, M. T. Hackler, V. Konjkov,
            D. Mejia-Rodriguez, T. Risthaus, M. Malagoli, A. Marenich,
   A. Otero-de-la-Roza, J. Mullin, P. Nichols, R. Peverati, J. Pittner, Y. Zhao,
        P.-D. Fan, A. Fonari, M. J. Williamson, R. J. Harrison, J. R. Rehr,
      M. Dupuis, D. Silverstein, D. M. A. Smith, J. Nieplocha, V. Tipparaju,
    M. Krishnan, B. E. Van Kuiken, A. Vazquez-Mayagoitia, L. Jensen, M. Swart,
      Q. Wu, T. Van Voorhis, A. A. Auer, M. Nooijen, L. D. Crosby, E. Brown,
      G. Cisneros, G. I. Fann, H. Fruchtl, J. Garza, K. Hirao, R. A. Kendall,
      J. A. Nichols, K. Tsemekhman, K. Wolinski, J. Anchell, D. E. Bernholdt,
      P. Borowski, T. Clark, D. Clerc, H. Dachsel, M. J. O. Deegan, K. Dyall,
    D. Elwood, E. Glendening, M. Gutowski, A. C. Hess, J. Jaffe, B. G. Johnson,
     J. Ju, R. Kobayashi, R. Kutteh, Z. Lin, R. Littlefield, X. Long, B. Meng,
      T. Nakajima, S. Niu, L. Pollack, M. Rosing, K. Glaesemann, G. Sandrone,
      M. Stave, H. Taylor, G. Thomas, J. H. van Lenthe, A. T. Wong, Z. Zhang.

 Total times  cpu:        0.9s     wall:        1.0s
