 argument  1 = /home/list1234/source/nwchem-6.8.1-release/QA/tests/h2o_dftmp2_cgmin/h2o_dftmp2_cgmin.nw
                                         
                                         


              Northwest Computational Chemistry Package (NWChem) 6.8
              ------------------------------------------------------


                    Environmental Molecular Sciences Laboratory
                       Pacific Northwest National Laboratory
                                Richland, WA 99352

                              Copyright (c) 1994-2018
                       Pacific Northwest National Laboratory
                            Battelle Memorial Institute

             NWChem is an open-source computational chemistry package
                        distributed under the terms of the
                      Educational Community License (ECL) 2.0
             A copy of the license is included with this distribution
                              in the LICENSE.TXT file

                                  ACKNOWLEDGMENT
                                  --------------

            This software and its documentation were developed at the
            EMSL at Pacific Northwest National Laboratory, a multiprogram
            national laboratory, operated for the U.S. Department of Energy
            by Battelle under Contract Number DE-AC05-76RL01830. Support
            for this work was provided by the Department of Energy Office
            of Biological and Environmental Research, Office of Basic
            Energy Sciences, and the Office of Advanced Scientific Computing.


           Job information
           ---------------

    hostname        = list1234-B360M-H
    program         = /home/list1234/source/nwchem-6.8.1-release/bin/LINUX64/nwchem
    date            = Sun Jun 30 07:49:07 2019

    compiled        = Sun_Jun_30_05:21:11_2019
    source          = /home/list1234/source/nwchem-6.8.1-release
    nwchem branch   = Development
    nwchem revision = N/A
    ga revision     = 5.6.5
    use scalapack   = T
    input           = /home/list1234/source/nwchem-6.8.1-release/QA/tests/h2o_dftmp2_cgmin/h2o_dftmp2_cgmin.nw
    prefix          = test.
    data base       = ./test.db
    status          = startup
    nproc           =        4
    time left       =     -1s



           Memory information
           ------------------

    heap     =   86247168 doubles =    658.0 Mbytes
    stack    =   86247165 doubles =    658.0 Mbytes
    global   =  172494336 doubles =   1316.0 Mbytes (distinct from heap & stack)
    total    =  344988669 doubles =   2632.1 Mbytes
    verify   = yes
    hardfail = no 


           Directory information
           ---------------------

  0 permanent = .
  0 scratch   = .




                                NWChem Input Module
                                -------------------


                              Test B2PLYP with cgmin
                              ----------------------

 Scaling coordinates for geometry "geometry" by  1.889725989
 (inverse scale =  0.529177249)

 C2V symmetry detected

          ------
          auto-z
          ------
  no constraints, skipping    0.0000000000000000     
  no constraints, skipping    0.0000000000000000     


                             Geometry "geometry" -> ""
                             -------------------------

 Output coordinates in angstroms (scale by  1.889725989 to convert to a.u.)

  No.       Tag          Charge          X              Y              Z
 ---- ---------------- ---------- -------------- -------------- --------------
    1 O                    8.0000     0.00000000     0.00000000     0.11726921
    2 H                    1.0000     0.75698224     0.00000000    -0.46907685
    3 H                    1.0000    -0.75698224     0.00000000    -0.46907685

      Atomic Mass 
      ----------- 

      O                 15.994910
      H                  1.007825


 Effective nuclear repulsion energy (a.u.)       9.1920946687

            Nuclear Dipole moment (a.u.) 
            ----------------------------
        X                 Y               Z
 ---------------- ---------------- ----------------
     0.0000000000     0.0000000000     0.0000000000

      Symmetry information
      --------------------

 Group name             C2v       
 Group number             16
 Group order               4
 No. of unique centers     2

      Symmetry unique atoms

     1    2



                                Z-matrix (autoz)
                                -------- 

 Units are Angstrom for bonds and degrees for angles

      Type          Name      I     J     K     L     M      Value
      ----------- --------  ----- ----- ----- ----- ----- ----------
    1 Stretch                  1     2                       0.95751
    2 Stretch                  1     3                       0.95751
    3 Bend                     2     1     3               104.47845


            XYZ format geometry
            -------------------
     3
 geometry
 O                     0.00000000     0.00000000     0.11726921
 H                     0.75698224     0.00000000    -0.46907685
 H                    -0.75698224     0.00000000    -0.46907685

 ==============================================================================
                                internuclear distances
 ------------------------------------------------------------------------------
       center one      |      center two      | atomic units |  angstroms
 ------------------------------------------------------------------------------
    2 H                |   1 O                |     1.80943  |     0.95751
    3 H                |   1 O                |     1.80943  |     0.95751
 ------------------------------------------------------------------------------
                         number of included internuclear distances:          2
 ==============================================================================



 ==============================================================================
                                 internuclear angles
 ------------------------------------------------------------------------------
        center 1       |       center 2       |       center 3       |  degrees
 ------------------------------------------------------------------------------
    2 H                |   1 O                |   3 H                |   104.48
 ------------------------------------------------------------------------------
                            number of included internuclear angles:          1
 ==============================================================================





 Summary of "ao basis" -> "" (spherical)
 ------------------------------------------------------------------------------
       Tag                 Description            Shells   Functions and Types
 ---------------- ------------------------------  ------  ---------------------
 *                          cc-pvdz                   on all atoms 



                                 NWChem DFT Module
                                 -----------------


                              Test B2PLYP with cgmin


                      Basis "ao basis" -> "ao basis" (spherical)
                      -----
  O (Oxygen)
  ----------
            Exponent  Coefficients 
       -------------- ---------------------------------------------------------
  1 S  1.17200000E+04  0.000710
  1 S  1.75900000E+03  0.005470
  1 S  4.00800000E+02  0.027837
  1 S  1.13700000E+02  0.104800
  1 S  3.70300000E+01  0.283062
  1 S  1.32700000E+01  0.448719
  1 S  5.02500000E+00  0.270952
  1 S  1.01300000E+00  0.015458

  2 S  1.17200000E+04 -0.000160
  2 S  1.75900000E+03 -0.001263
  2 S  4.00800000E+02 -0.006267
  2 S  1.13700000E+02 -0.025716
  2 S  3.70300000E+01 -0.070924
  2 S  1.32700000E+01 -0.165411
  2 S  5.02500000E+00 -0.116955
  2 S  1.01300000E+00  0.557368

  3 S  3.02300000E-01  1.000000

  4 P  1.77000000E+01  0.043018
  4 P  3.85400000E+00  0.228913
  4 P  1.04600000E+00  0.508728

  5 P  2.75300000E-01  1.000000

  6 D  1.18500000E+00  1.000000

  H (Hydrogen)
  ------------
            Exponent  Coefficients 
       -------------- ---------------------------------------------------------
  1 S  1.30100000E+01  0.019685
  1 S  1.96200000E+00  0.137977
  1 S  4.44600000E-01  0.478148

  2 S  1.22000000E-01  1.000000

  3 P  7.27000000E-01  1.000000



 Summary of "ao basis" -> "ao basis" (spherical)
 ------------------------------------------------------------------------------
       Tag                 Description            Shells   Functions and Types
 ---------------- ------------------------------  ------  ---------------------
 O                          cc-pvdz                  6       14   3s2p1d
 H                          cc-pvdz                  3        5   2s1p




 Summary of "ao basis" -> "ao basis" (spherical)
 ------------------------------------------------------------------------------
       Tag                 Description            Shells   Functions and Types
 ---------------- ------------------------------  ------  ---------------------
 O                          cc-pvdz                  6       14   3s2p1d
 H                          cc-pvdz                  3        5   2s1p


      Symmetry analysis of basis
      --------------------------

        a1         11
        a2          2
        b1          7
        b2          4

  Caching 1-el integrals 

            General Information
            -------------------
          SCF calculation type: DFT
          Wavefunction type:  closed shell.
          No. of atoms     :     3
          No. of electrons :    10
           Alpha electrons :     5
            Beta electrons :     5
          Charge           :     0
          Spin multiplicity:     1
          Use of symmetry is: on ; symmetry adaption is: on 
          Maximum number of iterations:  30
          AO basis - number of functions:    24
                     number of shells:    12
          Convergence on energy requested:  1.00D-06
          Convergence on density requested:  1.00D-05
          Convergence on gradient requested:  5.00D-04

              XC Information
              --------------
                        PBE96 Method XC Functional
                     Hartree-Fock (Exact) Exchange  0.530          
                    Becke 1988 Exchange Functional  0.470          
          PerdewBurkeErnzerhof Exchange Functional  1.000          
              Lee-Yang-Parr Correlation Functional  0.730          
            Perdew 1991 LDA Correlation Functional  1.000 local    
           PerdewBurkeErnz. Correlation Functional  1.000 non-local

             Grid Information
             ----------------
          Grid used for XC integration:  medium    
          Radial quadrature: Mura-Knowles        
          Angular quadrature: Lebedev. 
          Tag              B.-S. Rad. Rad. Pts. Rad. Cut. Ang. Pts.
          ---              ---------- --------- --------- ---------
          O                   0.60       49           5.0       434
          H                   0.35       45           7.0       434
          Grid pruning is: on 
          Number of quadrature shells:    94
          Spatial weights used:  Erf1

          Convergence Information
          -----------------------
          Convergence aids based upon iterative change in 
          total energy or number of iterations. 
          Levelshifting, if invoked, occurs when the 
          HOMO/LUMO gap drops below (HL_TOL):  1.00D-02
          DIIS, if invoked, will attempt to extrapolate 
          using up to (NFOCK): 10 stored Fock matrices.

                    Damping( 0%)  Levelshifting(0.5)       DIIS
                  --------------- ------------------- ---------------
          dE  on:    start            ASAP                start   
          dE off:    2 iters         30 iters            30 iters 


      Screening Tolerance Information
      -------------------------------
          Density screening/tol_rho:  1.00D-10
          AO Gaussian exp screening on grid/accAOfunc:  14
          CD Gaussian exp screening on grid/accCDfunc:  20
          XC Gaussian exp screening on grid/accXCfunc:  20
          Schwarz screening/accCoul:  1.00D-08


      Superposition of Atomic Density Guess
      -------------------------------------

 Sum of atomic energies:         -75.76222910

      Non-variational initial energy
      ------------------------------

 Total energy =     -75.925641
 1-e energy   =    -121.769702
 2-e energy   =      36.651967
 HOMO         =      -0.469360
 LUMO         =       0.091304


      Symmetry analysis of molecular orbitals - initial
      -------------------------------------------------

  Numbering of irreducible representations: 

     1 a1          2 a2          3 b1          4 b2      

  Orbital symmetries:

     1 a1          2 a1          3 b1          4 a1          5 b2      
     6 a1          7 b1          8 b1          9 a1         10 a1      
    11 b2         12 b1         13 a1         14 a2         15 b2      



 ----------------------------------------------
         Quadratically convergent ROKS

 Convergence threshold     :          5.000E-04
 Maximum no. of iterations :           30
 Final Fock-matrix accuracy:          1.000E-08
 ----------------------------------------------


 Grid_pts file          = ./test.gridpts.0
 Record size in doubles =  12289        No. of grid_pts per rec  =   3070
 Max. records in memory =      5        Max. recs in file   = 253312716


              iter       energy          gnorm     gmax       time
             ----- ------------------- --------- --------- --------
                 1      -85.6446172799  2.29D+00  1.00D+00      0.2
                 2      -85.8337680924  4.62D-01  2.63D-01      0.2
                 3      -85.8510219034  1.25D-01  5.03D-02      0.2
                 4      -85.8522018580  8.26D-03  3.99D-03      0.3
                 5      -85.8522054445  1.00D-04  4.52D-05      0.4


         Total DFT energy =      -85.852205444548
      One electron energy =     -126.700211682527
           Coulomb energy =       46.262806302779
    Exchange-Corr. energy =      -14.606894733457
 Nuclear repulsion energy =        9.192094668657

 Numeric. integr. density =       10.000000419710

     Total iterative time =      0.2s



                       DFT Final Molecular Orbital Analysis
                       ------------------------------------

 Vector    1  Occ=2.000000D+00  E=-2.199905D+01  Symmetry=a1
              MO Center= -5.3D-18,  3.6D-20,  1.2D-01, r^2= 1.4D-02
   Bfn.  Coefficient  Atom+Function         Bfn.  Coefficient  Atom+Function  
  ----- ------------  ---------------      ----- ------------  ---------------
     1      0.992766  1 O  s          

 Vector    2  Occ=2.000000D+00  E=-1.665309D+00  Symmetry=a1
              MO Center= -4.7D-17,  9.6D-18, -4.8D-02, r^2= 4.3D-01
   Bfn.  Coefficient  Atom+Function         Bfn.  Coefficient  Atom+Function  
  ----- ------------  ---------------      ----- ------------  ---------------
     2      0.552306  1 O  s                  3      0.281131  1 O  s          
    15      0.204752  2 H  s                 20      0.204752  3 H  s          

 Vector    3  Occ=2.000000D+00  E=-1.051158D+00  Symmetry=b1
              MO Center=  2.0D-16,  6.7D-32, -8.4D-02, r^2= 6.1D-01
   Bfn.  Coefficient  Atom+Function         Bfn.  Coefficient  Atom+Function  
  ----- ------------  ---------------      ----- ------------  ---------------
     4      0.580672  1 O  px                15      0.357546  2 H  s          
    20     -0.357546  3 H  s          

 Vector    4  Occ=2.000000D+00  E=-9.179331D-01  Symmetry=a1
              MO Center= -3.0D-18, -2.1D-18,  1.7D-01, r^2= 5.3D-01
   Bfn.  Coefficient  Atom+Function         Bfn.  Coefficient  Atom+Function  
  ----- ------------  ---------------      ----- ------------  ---------------
     6      0.651887  1 O  pz                 3      0.302322  1 O  s          
    15     -0.238123  2 H  s                 20     -0.238123  3 H  s          
     9      0.228306  1 O  pz                 2      0.203513  1 O  s          

 Vector    5  Occ=2.000000D+00  E=-8.468082D-01  Symmetry=b2
              MO Center=  7.5D-17, -3.4D-17,  9.5D-02, r^2= 4.5D-01
   Bfn.  Coefficient  Atom+Function         Bfn.  Coefficient  Atom+Function  
  ----- ------------  ---------------      ----- ------------  ---------------
     5      0.759308  1 O  py                 8      0.345274  1 O  py         

 Vector    6  Occ=0.000000D+00  E=-9.785856D-02  Symmetry=a1
              MO Center=  7.4D-17, -8.8D-19, -5.6D-01, r^2= 2.2D+00
   Bfn.  Coefficient  Atom+Function         Bfn.  Coefficient  Atom+Function  
  ----- ------------  ---------------      ----- ------------  ---------------
     3      0.739634  1 O  s                 16     -0.609421  2 H  s          
    21     -0.609421  3 H  s                  6     -0.301839  1 O  pz         
    15     -0.301430  2 H  s                 20     -0.301430  3 H  s          
     9     -0.254458  1 O  pz                 2      0.214299  1 O  s          

 Vector    7  Occ=0.000000D+00  E=-2.670695D-02  Symmetry=b1
              MO Center=  7.6D-16,  4.1D-17, -5.2D-01, r^2= 2.4D+00
   Bfn.  Coefficient  Atom+Function         Bfn.  Coefficient  Atom+Function  
  ----- ------------  ---------------      ----- ------------  ---------------
    16      0.971704  2 H  s                 21     -0.971704  3 H  s          
     7     -0.520196  1 O  px                 4     -0.449402  1 O  px         
    15      0.369214  2 H  s                 20     -0.369214  3 H  s          

 Vector    8  Occ=0.000000D+00  E= 3.405927D-01  Symmetry=b1
              MO Center= -1.4D-15, -8.1D-19, -3.2D-01, r^2= 2.7D+00
   Bfn.  Coefficient  Atom+Function         Bfn.  Coefficient  Atom+Function  
  ----- ------------  ---------------      ----- ------------  ---------------
    16      1.163979  2 H  s                 21     -1.163979  3 H  s          
    15     -0.874892  2 H  s                 20      0.874892  3 H  s          
     4      0.245135  1 O  px                 7      0.174162  1 O  px         

 Vector    9  Occ=0.000000D+00  E= 3.785674D-01  Symmetry=a1
              MO Center=  3.2D-16, -3.5D-16, -5.1D-01, r^2= 2.1D+00
   Bfn.  Coefficient  Atom+Function         Bfn.  Coefficient  Atom+Function  
  ----- ------------  ---------------      ----- ------------  ---------------
    15      0.836518  2 H  s                 20      0.836518  3 H  s          
    16     -0.733443  2 H  s                 21     -0.733443  3 H  s          
     3      0.345583  1 O  s                  6      0.330407  1 O  pz         
     2     -0.203003  1 O  s                 17      0.190964  2 H  px         
    22     -0.190964  3 H  px         

 Vector   10  Occ=0.000000D+00  E= 6.834924D-01  Symmetry=a1
              MO Center= -1.1D-16,  1.1D-16,  1.3D-01, r^2= 1.3D+00
   Bfn.  Coefficient  Atom+Function         Bfn.  Coefficient  Atom+Function  
  ----- ------------  ---------------      ----- ------------  ---------------
     9      1.197701  1 O  pz                 6     -0.686813  1 O  pz         
     3     -0.517590  1 O  s                 15      0.447629  2 H  s          
    20      0.447629  3 H  s                 19      0.256884  2 H  pz         
    24      0.256884  3 H  pz                 2     -0.161414  1 O  s          

 Vector   11  Occ=0.000000D+00  E= 6.850047D-01  Symmetry=b2
              MO Center= -3.6D-17,  2.0D-16,  6.9D-02, r^2= 1.2D+00
   Bfn.  Coefficient  Atom+Function         Bfn.  Coefficient  Atom+Function  
  ----- ------------  ---------------      ----- ------------  ---------------
     8      1.027933  1 O  py                 5     -0.869850  1 O  py         

 Vector   12  Occ=0.000000D+00  E= 8.255940D-01  Symmetry=b1
              MO Center= -6.0D-17, -4.3D-18,  1.1D-01, r^2= 1.9D+00
   Bfn.  Coefficient  Atom+Function         Bfn.  Coefficient  Atom+Function  
  ----- ------------  ---------------      ----- ------------  ---------------
     7      1.775464  1 O  px                16     -0.912708  2 H  s          
    21      0.912708  3 H  s                  4     -0.695150  1 O  px         
    15     -0.351122  2 H  s                 20      0.351122  3 H  s          
    17      0.251343  2 H  px                22      0.251343  3 H  px         

 Vector   13  Occ=0.000000D+00  E= 9.920382D-01  Symmetry=a1
              MO Center= -1.6D-15, -9.7D-17,  2.6D-02, r^2= 1.4D+00
   Bfn.  Coefficient  Atom+Function         Bfn.  Coefficient  Atom+Function  
  ----- ------------  ---------------      ----- ------------  ---------------
     9      0.779014  1 O  pz                 2     -0.579098  1 O  s          
     3      0.575955  1 O  s                 19     -0.494532  2 H  pz         
    24     -0.494532  3 H  pz                17     -0.345146  2 H  px         
    22      0.345146  3 H  px                15      0.330913  2 H  s          
    20      0.330913  3 H  s                  1     -0.236770  1 O  s          

 Vector   14  Occ=0.000000D+00  E= 1.006509D+00  Symmetry=a2
              MO Center= -5.6D-15, -1.3D-16, -4.1D-01, r^2= 1.0D+00
   Bfn.  Coefficient  Atom+Function         Bfn.  Coefficient  Atom+Function  
  ----- ------------  ---------------      ----- ------------  ---------------
    18      0.672966  2 H  py                23     -0.672966  3 H  py         
    10      0.166478  1 O  d -2       

 Vector   15  Occ=0.000000D+00  E= 1.214446D+00  Symmetry=b2
              MO Center=  6.5D-15,  1.7D-16, -2.3D-01, r^2= 1.2D+00
   Bfn.  Coefficient  Atom+Function         Bfn.  Coefficient  Atom+Function  
  ----- ------------  ---------------      ----- ------------  ---------------
    18     -0.746253  2 H  py                23     -0.746253  3 H  py         
     8      0.708038  1 O  py                11      0.203060  1 O  d -1       

 Vector   16  Occ=0.000000D+00  E= 1.370916D+00  Symmetry=a1
              MO Center= -9.8D-16, -3.6D-17, -1.0D-01, r^2= 1.3D+00
   Bfn.  Coefficient  Atom+Function         Bfn.  Coefficient  Atom+Function  
  ----- ------------  ---------------      ----- ------------  ---------------
     3      3.040085  1 O  s                  2     -1.556726  1 O  s          
     9     -1.035091  1 O  pz                15     -0.789951  2 H  s          
    20     -0.789951  3 H  s                  1     -0.729100  1 O  s          
    16     -0.434809  2 H  s                 21     -0.434809  3 H  s          
    17      0.349655  2 H  px                22     -0.349655  3 H  px         

 Vector   17  Occ=0.000000D+00  E= 1.475936D+00  Symmetry=b1
              MO Center=  3.2D-15,  4.2D-17, -3.8D-01, r^2= 1.3D+00
   Bfn.  Coefficient  Atom+Function         Bfn.  Coefficient  Atom+Function  
  ----- ------------  ---------------      ----- ------------  ---------------
     7      0.993166  1 O  px                19     -0.711381  2 H  pz         
    24      0.711381  3 H  pz                17     -0.442266  2 H  px         
    22     -0.442266  3 H  px                15     -0.403430  2 H  s          
    20      0.403430  3 H  s          

 Vector   18  Occ=0.000000D+00  E= 1.866477D+00  Symmetry=b1
              MO Center= -3.1D-14,  3.7D-17, -3.9D-01, r^2= 1.2D+00
   Bfn.  Coefficient  Atom+Function         Bfn.  Coefficient  Atom+Function  
  ----- ------------  ---------------      ----- ------------  ---------------
     4      0.753891  1 O  px                17      0.744346  2 H  px         
    22      0.744346  3 H  px                19     -0.546003  2 H  pz         
    24      0.546003  3 H  pz                16     -0.425196  2 H  s          
    21      0.425196  3 H  s                 15     -0.215373  2 H  s          
    20      0.215373  3 H  s                  7      0.179216  1 O  px         

 Vector   19  Occ=0.000000D+00  E= 1.890357D+00  Symmetry=a1
              MO Center=  3.4D-14, -2.4D-18, -3.9D-01, r^2= 1.1D+00
   Bfn.  Coefficient  Atom+Function         Bfn.  Coefficient  Atom+Function  
  ----- ------------  ---------------      ----- ------------  ---------------
     3      0.880556  1 O  s                 17      0.755622  2 H  px         
    22     -0.755622  3 H  px                 2      0.643815  1 O  s          
     6     -0.617480  1 O  pz                19     -0.554616  2 H  pz         
    24     -0.554616  3 H  pz                15     -0.415142  2 H  s          
    20     -0.415142  3 H  s                  1      0.252794  1 O  s          

 Vector   20  Occ=0.000000D+00  E= 2.643171D+00  Symmetry=b2
              MO Center=  1.3D-14,  2.7D-17,  3.3D-02, r^2= 6.2D-01
   Bfn.  Coefficient  Atom+Function         Bfn.  Coefficient  Atom+Function  
  ----- ------------  ---------------      ----- ------------  ---------------
    11      1.035351  1 O  d -1              18      0.429283  2 H  py         
    23      0.429283  3 H  py                 8     -0.343445  1 O  py         

 Vector   21  Occ=0.000000D+00  E= 2.691700D+00  Symmetry=a2
              MO Center= -1.4D-14,  1.7D-17,  3.8D-02, r^2= 6.1D-01
   Bfn.  Coefficient  Atom+Function         Bfn.  Coefficient  Atom+Function  
  ----- ------------  ---------------      ----- ------------  ---------------
    10      1.061229  1 O  d -2              18     -0.393833  2 H  py         
    23      0.393833  3 H  py         

 Vector   22  Occ=0.000000D+00  E= 2.866662D+00  Symmetry=a1
              MO Center= -1.2D-15, -1.4D-18,  3.8D-02, r^2= 6.9D-01
   Bfn.  Coefficient  Atom+Function         Bfn.  Coefficient  Atom+Function  
  ----- ------------  ---------------      ----- ------------  ---------------
    12      1.078094  1 O  d  0               3      0.610854  1 O  s          
     9     -0.583621  1 O  pz                17      0.376101  2 H  px         
    22     -0.376101  3 H  px                19      0.330805  2 H  pz         
    24      0.330805  3 H  pz                15     -0.326559  2 H  s          
    20     -0.326559  3 H  s                 14     -0.172731  1 O  d  2       

 Vector   23  Occ=0.000000D+00  E= 3.194537D+00  Symmetry=a1
              MO Center=  6.2D-15,  3.8D-18, -3.1D-03, r^2= 8.1D-01
   Bfn.  Coefficient  Atom+Function         Bfn.  Coefficient  Atom+Function  
  ----- ------------  ---------------      ----- ------------  ---------------
     3      2.378524  1 O  s                 15     -1.246911  2 H  s          
    20     -1.246911  3 H  s                 14      1.156474  1 O  d  2       
     9     -0.965526  1 O  pz                17      0.642958  2 H  px         
    22     -0.642958  3 H  px                19     -0.515399  2 H  pz         
    24     -0.515399  3 H  pz                 6     -0.389016  1 O  pz         

 Vector   24  Occ=0.000000D+00  E= 3.478231D+00  Symmetry=b1
              MO Center= -8.6D-15, -4.1D-19,  8.0D-02, r^2= 8.3D-01
   Bfn.  Coefficient  Atom+Function         Bfn.  Coefficient  Atom+Function  
  ----- ------------  ---------------      ----- ------------  ---------------
    13      1.324594  1 O  d  1               7      1.214713  1 O  px         
    15     -1.095004  2 H  s                 20      1.095004  3 H  s          
    17      0.630670  2 H  px                22      0.630670  3 H  px         
    19     -0.516031  2 H  pz                24      0.516031  3 H  pz         
     4      0.451043  1 O  px                16     -0.336146  2 H  s          

                   NWChem MP2 Semi-direct Energy/Gradient Module
                   ---------------------------------------------


                              Test B2PLYP with cgmin


  Basis functions       =     24
  Molecular orbitals    =     24
  Frozen core           =      0
  Frozen virtuals       =      0
  Active alpha occupied =      5
  Active beta occupied  =      5
  Active alpha virtual  =     19
  Active beta virtual   =     19
  Use MO symmetry       = T
  Use skeleton AO sym   = T

  AO/Fock/Back tols     =   1.0D-09  1.0D-09  1.0D-09

 GA uses MA = F    GA memory limited = T

 Available: 
  local mem=  1.21D+08
 global mem=  1.72D+08
 local disk=  0.00D+00
  mp2_memr nvloc                     5
  nvloc new                     5
   1 passes of   5:        2097152                       2716                     18725.
   1 passes of   5: M    120795118           G      172494048           F     118697966.

 Semi-direct pass number   1 of   1  for RHF alpha+beta  at        0.3s
  vrange nnbf                   300
  mp2_eaftype                    10  avail_ma_in_mb                  1053
 EAF : mp2_eaftype filesize          10       9362.
  mp2_eaf for mointskh                     10
Node 0 wrote      0.1 Mb in      0.0 s     Agg I/O rate:  2112.9 Mb/s
 Done moints_semi at        0.4s
  mp2_eaftype                    10  avail_ma_in_mb                  1043
 EAF : mp2_eaftype filesize          10       9362.
  mp2_eaf for kh                    10
 Done maket at        0.4s
 Done multipass loop at        0.4s


          -------------------------------------------
          DFT energy                     -85.852205444548
          Unscaled MP2 energy             -0.217847962616
          Total DFT+MP2 energy           -85.911024394454
          -------------------------------------------

 -----------------------
 Performance information
 -----------------------

 Timer overhead =  5.47D-07 seconds/call

               Nr. of calls         CPU time (s)                 Wall time (s)                GFlops
             ---------------    -------------------     ------------------------------   -------------------
Name         Min   Avg   Max    Min     Avg     Max     Min     Avg     Max   Mx/calls   Min     Max     Sum
mp2: moin     1     1     1   3.98E-2 3.99E-2 4.00E-2  4.00E-2 4.00E-2 4.00E-2 4.00E-2   0.0     0.0     0.0   
mp2: make     1     1     1   9.16E-4 9.19E-4 9.20E-4  9.16E-4 9.19E-4 9.20E-4 9.20E-4   0.0     0.0     0.0   
mp2: tota     1     1     1   5.42E-2 5.43E-2 5.44E-2  5.44E-2 5.44E-2 5.44E-2 5.44E-2   0.0     0.0     0.0   

 The average no. of pstat calls per process was 3.00D+00
 with a timing overhead of 1.64D-06s


 Task  times  cpu:        0.3s     wall:        0.4s


                                NWChem Input Module
                                -------------------


 Summary of allocated global arrays
-----------------------------------
  No active global arrays



                         GA Statistics for process    0
                         ------------------------------

       create   destroy   get      put      acc     scatter   gather  read&inc
calls:  389      389     4195     1178     2629       15        0      708     
number of processes/call 1.17e+00 1.23e+00 1.21e+00 0.00e+00 0.00e+00
bytes total:             2.48e+06 9.44e+05 1.05e+06 6.72e+02 0.00e+00 5.66e+03
bytes remote:            8.28e+05 2.50e+05 3.79e+05 -4.80e+02 0.00e+00 0.00e+00
Max memory consumed for GA by this process: 226952 bytes

MA_summarize_allocated_blocks: starting scan ...
heap block 'gridpts', handle 72, address 0x560ec75235e8:
	type of elements:		double precision
	number of elements:		34440679
	address of client space:	0x560ec7523640
	index for client space:		11039451
	total number of bytes:		275525528
MA_summarize_allocated_blocks: scan completed: 1 heap block, 0 stack blocks
MA usage statistics:

	allocation statistics:
					      heap	     stack
					      ----	     -----
	current number of blocks	         1	         0
	maximum number of blocks	        22	        57
	current total bytes		 275525528	         0
	maximum total bytes		 286024448	  22509960
	maximum total K-bytes		    286025	     22510
	maximum total M-bytes		       287	        23


                                     CITATION
                                     --------
                Please cite the following reference when publishing
                           results obtained with NWChem:

                 M. Valiev, E.J. Bylaska, N. Govind, K. Kowalski,
              T.P. Straatsma, H.J.J. van Dam, D. Wang, J. Nieplocha,
                        E. Apra, T.L. Windus, W.A. de Jong
                 "NWChem: a comprehensive and scalable open-source
                  solution for large scale molecular simulations"
                      Comput. Phys. Commun. 181, 1477 (2010)
                           doi:10.1016/j.cpc.2010.04.018

                                      AUTHORS
                                      -------
          E. Apra, E. J. Bylaska, W. A. de Jong, N. Govind, K. Kowalski,
       T. P. Straatsma, M. Valiev, H. J. J. van Dam, D. Wang, T. L. Windus,
        J. Hammond, J. Autschbach, K. Bhaskaran-Nair, J. Brabec, K. Lopata,
    S. A. Fischer, S. Krishnamoorthy, M. Jacquelin, W. Ma, M. Klemm, O. Villa,
      Y. Chen, V. Anisimov, F. Aquino, S. Hirata, M. T. Hackler, V. Konjkov,
            D. Mejia-Rodriguez, T. Risthaus, M. Malagoli, A. Marenich,
   A. Otero-de-la-Roza, J. Mullin, P. Nichols, R. Peverati, J. Pittner, Y. Zhao,
        P.-D. Fan, A. Fonari, M. J. Williamson, R. J. Harrison, J. R. Rehr,
      M. Dupuis, D. Silverstein, D. M. A. Smith, J. Nieplocha, V. Tipparaju,
    M. Krishnan, B. E. Van Kuiken, A. Vazquez-Mayagoitia, L. Jensen, M. Swart,
      Q. Wu, T. Van Voorhis, A. A. Auer, M. Nooijen, L. D. Crosby, E. Brown,
      G. Cisneros, G. I. Fann, H. Fruchtl, J. Garza, K. Hirao, R. A. Kendall,
      J. A. Nichols, K. Tsemekhman, K. Wolinski, J. Anchell, D. E. Bernholdt,
      P. Borowski, T. Clark, D. Clerc, H. Dachsel, M. J. O. Deegan, K. Dyall,
    D. Elwood, E. Glendening, M. Gutowski, A. C. Hess, J. Jaffe, B. G. Johnson,
     J. Ju, R. Kobayashi, R. Kutteh, Z. Lin, R. Littlefield, X. Long, B. Meng,
      T. Nakajima, S. Niu, L. Pollack, M. Rosing, K. Glaesemann, G. Sandrone,
      M. Stave, H. Taylor, G. Thomas, J. H. van Lenthe, A. T. Wong, Z. Zhang.

 Total times  cpu:        0.4s     wall:        0.4s
