 argument  1 = /home/list1234/source/nwchem-6.8.1-release/QA/tests/h2o_bnl/h2o_bnl.nw



============================== echo of input deck ==============================
echo
start h2o_bnl

geometry noautoz noautosym units angstrom
O        0.000000    0.119088    0.000000
H        0.759830   -0.476352    0.000000
H       -0.759830   -0.476350    0.000000
end

basis spherical
 * library cc-pvtz
end

basis "cd basis"
O  library "Ahlrichs Coulomb Fitting"
H  library "Ahlrichs Coulomb Fitting"
end

set int:acc_std 1d-15
set int:cando_txs f

dft
 xc xbnl07 0.90 lyp 1.00 hfexch 1.00
 cam 0.5 cam_alpha 0.0 cam_beta 1.0
end
task dft energy

property
 dipole
end
task dft property

tddft
 nroots 5
 notriplet
 algorithm 3
end
task tddft energy
================================================================================


                                         
                                         


              Northwest Computational Chemistry Package (NWChem) 6.8
              ------------------------------------------------------


                    Environmental Molecular Sciences Laboratory
                       Pacific Northwest National Laboratory
                                Richland, WA 99352

                              Copyright (c) 1994-2018
                       Pacific Northwest National Laboratory
                            Battelle Memorial Institute

             NWChem is an open-source computational chemistry package
                        distributed under the terms of the
                      Educational Community License (ECL) 2.0
             A copy of the license is included with this distribution
                              in the LICENSE.TXT file

                                  ACKNOWLEDGMENT
                                  --------------

            This software and its documentation were developed at the
            EMSL at Pacific Northwest National Laboratory, a multiprogram
            national laboratory, operated for the U.S. Department of Energy
            by Battelle under Contract Number DE-AC05-76RL01830. Support
            for this work was provided by the Department of Energy Office
            of Biological and Environmental Research, Office of Basic
            Energy Sciences, and the Office of Advanced Scientific Computing.


           Job information
           ---------------

    hostname        = list1234-B360M-H
    program         = /home/list1234/source/nwchem-6.8.1-release/bin/LINUX64/nwchem
    date            = Sun Jun 30 07:37:51 2019

    compiled        = Sun_Jun_30_05:21:11_2019
    source          = /home/list1234/source/nwchem-6.8.1-release
    nwchem branch   = Development
    nwchem revision = N/A
    ga revision     = 5.6.5
    use scalapack   = T
    input           = /home/list1234/source/nwchem-6.8.1-release/QA/tests/h2o_bnl/h2o_bnl.nw
    prefix          = h2o_bnl.
    data base       = ./h2o_bnl.db
    status          = startup
    nproc           =        4
    time left       =     -1s



           Memory information
           ------------------

    heap     =   86247168 doubles =    658.0 Mbytes
    stack    =   86247165 doubles =    658.0 Mbytes
    global   =  172494336 doubles =   1316.0 Mbytes (distinct from heap & stack)
    total    =  344988669 doubles =   2632.1 Mbytes
    verify   = yes
    hardfail = no 


           Directory information
           ---------------------

  0 permanent = .
  0 scratch   = .




                                NWChem Input Module
                                -------------------



 Scaling coordinates for geometry "geometry" by  1.889725989
 (inverse scale =  0.529177249)



                             Geometry "geometry" -> ""
                             -------------------------

 Output coordinates in angstroms (scale by  1.889725989 to convert to a.u.)

  No.       Tag          Charge          X              Y              Z
 ---- ---------------- ---------- -------------- -------------- --------------
    1 O                    8.0000     0.00000000     0.11908780     0.00000000
    2 H                    1.0000     0.75983000    -0.47635220     0.00000000
    3 H                    1.0000    -0.75983000    -0.47635020     0.00000000

      Atomic Mass 
      ----------- 

      O                 15.994910
      H                  1.007825


 Effective nuclear repulsion energy (a.u.)       9.1190166238

            Nuclear Dipole moment (a.u.) 
            ----------------------------
        X                 Y               Z
 ---------------- ---------------- ----------------
     0.0000000000     0.0000000000     0.0000000000


            XYZ format geometry
            -------------------
     3
 geometry
 O                     0.00000000     0.11908780     0.00000000
 H                     0.75983000    -0.47635220     0.00000000
 H                    -0.75983000    -0.47635020     0.00000000

 ==============================================================================
                                internuclear distances
 ------------------------------------------------------------------------------
       center one      |      center two      | atomic units |  angstroms
 ------------------------------------------------------------------------------
    2 H                |   1 O                |     1.82424  |     0.96534
    3 H                |   1 O                |     1.82423  |     0.96534
 ------------------------------------------------------------------------------
                         number of included internuclear distances:          2
 ==============================================================================



 ==============================================================================
                                 internuclear angles
 ------------------------------------------------------------------------------
        center 1       |       center 2       |       center 3       |  degrees
 ------------------------------------------------------------------------------
    2 H                |   1 O                |   3 H                |   103.83
 ------------------------------------------------------------------------------
                            number of included internuclear angles:          1
 ==============================================================================





 Summary of "ao basis" -> "" (spherical)
 ------------------------------------------------------------------------------
       Tag                 Description            Shells   Functions and Types
 ---------------- ------------------------------  ------  ---------------------
 *                          cc-pvtz                   on all atoms 


                      Basis "cd basis" -> "" (cartesian)
                      -----
  O (Oxygen)
  ----------
            Exponent  Coefficients 
       -------------- ---------------------------------------------------------
  1 S  9.57843253E+02  0.562496
  1 S  2.81967425E+02  1.491090
  1 S  9.01998320E+01  3.865477

  2 S  3.11382990E+01  1.000000

  3 S  1.14937320E+01  1.000000

  4 S  4.48404900E+00  1.000000

  5 S  1.82350400E+00  1.000000

  6 S  7.60903000E-01  1.000000

  7 S  3.20292000E-01  1.000000

  8 P  6.14708863E-01  1.000000

  9 P  1.47530127E+00  1.000000

 10 P  3.69562968E+00  1.000000

 11 D  7.65267200E+00  1.000000

 12 D  2.21786800E+00  1.000000

 13 D  6.82337000E-01  1.000000

 14 F  2.19178082E+00  1.000000

  H (Hydrogen)
  ------------
            Exponent  Coefficients 
       -------------- ---------------------------------------------------------
  1 S  9.30813000E+00  0.034466
  1 S  2.30671800E+00  0.122534

  2 S  7.52012000E-01  1.000000

  3 S  2.73978000E-01  1.000000

  4 P  2.03270400E+00  1.000000

  5 P  7.90252000E-01  1.000000

  6 D  2.01954800E+00  1.000000



 Summary of "cd basis" -> "" (cartesian)
 ------------------------------------------------------------------------------
       Tag                 Description            Shells   Functions and Types
 ---------------- ------------------------------  ------  ---------------------
 O                  Ahlrichs Coulomb Fitting        14       44   7s3p3d1f
 H                  Ahlrichs Coulomb Fitting         6       15   3s2p1d



                                 NWChem DFT Module
                                 -----------------


                      Basis "ao basis" -> "ao basis" (spherical)
                      -----
  O (Oxygen)
  ----------
            Exponent  Coefficients 
       -------------- ---------------------------------------------------------
  1 S  1.53300000E+04  0.000508
  1 S  2.29900000E+03  0.003929
  1 S  5.22400000E+02  0.020243
  1 S  1.47300000E+02  0.079181
  1 S  4.75500000E+01  0.230687
  1 S  1.67600000E+01  0.433118
  1 S  6.20700000E+00  0.350260
  1 S  6.88200000E-01 -0.008154

  2 S  1.53300000E+04 -0.000115
  2 S  2.29900000E+03 -0.000895
  2 S  5.22400000E+02 -0.004636
  2 S  1.47300000E+02 -0.018724
  2 S  4.75500000E+01 -0.058463
  2 S  1.67600000E+01 -0.136463
  2 S  6.20700000E+00 -0.175740
  2 S  6.88200000E-01  0.603418

  3 S  1.75200000E+00  1.000000

  4 S  2.38400000E-01  1.000000

  5 P  3.44600000E+01  0.015928
  5 P  7.74900000E+00  0.099740
  5 P  2.28000000E+00  0.310492

  6 P  7.15600000E-01  1.000000

  7 P  2.14000000E-01  1.000000

  8 D  2.31400000E+00  1.000000

  9 D  6.45000000E-01  1.000000

 10 F  1.42800000E+00  1.000000

  H (Hydrogen)
  ------------
            Exponent  Coefficients 
       -------------- ---------------------------------------------------------
  1 S  3.38700000E+01  0.006068
  1 S  5.09500000E+00  0.045308
  1 S  1.15900000E+00  0.202822

  2 S  3.25800000E-01  1.000000

  3 S  1.02700000E-01  1.000000

  4 P  1.40700000E+00  1.000000

  5 P  3.88000000E-01  1.000000

  6 D  1.05700000E+00  1.000000



 Summary of "ao basis" -> "ao basis" (spherical)
 ------------------------------------------------------------------------------
       Tag                 Description            Shells   Functions and Types
 ---------------- ------------------------------  ------  ---------------------
 O                          cc-pvtz                 10       30   4s3p2d1f
 H                          cc-pvtz                  6       14   3s2p1d



int_init: setting std/high accuracies to  1.0D-15  1.0D-30
  int_init: cando_txs set to always be  F


 Summary of "ao basis" -> "ao basis" (spherical)
 ------------------------------------------------------------------------------
       Tag                 Description            Shells   Functions and Types
 ---------------- ------------------------------  ------  ---------------------
 O                          cc-pvtz                 10       30   4s3p2d1f
 H                          cc-pvtz                  6       14   3s2p1d



int_init: setting std/high accuracies to  1.0D-15  1.0D-30
  int_init: cando_txs set to always be  F
  Caching 1-el integrals 

            General Information
            -------------------
          SCF calculation type: DFT
          Wavefunction type:  closed shell.
          No. of atoms     :     3
          No. of electrons :    10
           Alpha electrons :     5
            Beta electrons :     5
          Charge           :     0
          Spin multiplicity:     1
          Use of symmetry is: off; symmetry adaption is: off
          Maximum number of iterations:  30
          AO basis - number of functions:    58
                     number of shells:    22
          A Charge density fitting basis will be used.
          CD basis - number of functions:    74
                     number of shells:    26
          Convergence on energy requested:  1.00D-06
          Convergence on density requested:  1.00D-05
          Convergence on gradient requested:  5.00D-04

              XC Information
              --------------
                     Hartree-Fock (Exact) Exchange  1.000          
                   LC-BNL 2007 Exchange Functional  0.900 local    
              Lee-Yang-Parr Correlation Functional  1.000          

           Range-Separation Parameters        
           ---------------------------
           Alpha           :  0.00
           Beta            :  1.00
           Gamma           :  0.50
           Short-Range HF  :     F

             Grid Information
             ----------------
          Grid used for XC integration:  medium    
          Radial quadrature: Mura-Knowles        
          Angular quadrature: Lebedev. 
          Tag              B.-S. Rad. Rad. Pts. Rad. Cut. Ang. Pts.
          ---              ---------- --------- --------- ---------
          O                   0.60       49           6.0       434
          H                   0.35       45           7.0       434
          Grid pruning is: on 
          Number of quadrature shells:   139
          Spatial weights used:  Erf1

          Convergence Information
          -----------------------
          Convergence aids based upon iterative change in 
          total energy or number of iterations. 
          Levelshifting, if invoked, occurs when the 
          HOMO/LUMO gap drops below (HL_TOL):  1.00D-02
          DIIS, if invoked, will attempt to extrapolate 
          using up to (NFOCK): 10 stored Fock matrices.

                    Damping( 0%)  Levelshifting(0.5)       DIIS
                  --------------- ------------------- ---------------
          dE  on:    start            ASAP                start   
          dE off:    2 iters         30 iters            30 iters 


      Screening Tolerance Information
      -------------------------------
          Density screening/tol_rho:  1.00D-10
          AO Gaussian exp screening on grid/accAOfunc:  14
          CD Gaussian exp screening on grid/accCDfunc:  20
          XC Gaussian exp screening on grid/accXCfunc:  20
          Schwarz screening/accCoul:  1.00D-08


      Superposition of Atomic Density Guess
      -------------------------------------

 Sum of atomic energies:         -75.78028790

      Non-variational initial energy
      ------------------------------

 Total energy =     -75.930196
 1-e energy   =    -121.638497
 2-e energy   =      36.589285
 HOMO         =      -0.475368
 LUMO         =       0.064403

   Time after variat. SCF:      0.1

      3 Center 2 Electron Integral Information
      ----------------------------------------
          Maximum number of 3-center 2e- integrals is:          248936.
            This is reduced with Schwarz screening to:          218300.
            Incore requires a per proc buffer size of:           81105.
          Minimum dble words available (all nodes) is:       172492740
                   This is reduced (for later use) to:       172239305
                      proc 0 Suggested buffer size is:           81105
                         Max Suggested buffer size is:           81105
                              no. integral batches is:            1000

           0.081 MW buffer allocated for incore 3-center 
          2e- integral storage on stack. 
   Time prior to 1st pass:      0.1

 Grid_pts file          = ./h2o_bnl.gridpts.0
 Record size in doubles =  12289        No. of grid_pts per rec  =   3070
 Max. records in memory =      7        Max. recs in file   = 253312716


           Memory utilization after 1st SCF pass: 
           Heap Space remaining (MW):       51.77            51767864
          Stack Space remaining (MW):       86.16            86164580

   convergence    iter        energy       DeltaE   RMS-Dens  Diis-err    time
 ---------------- ----- ----------------- --------- --------- ---------  ------
 d= 0,ls=0.0,diis     1    -75.1587502930 -8.43D+01  8.40D-03  1.37D+00     0.4
 d= 0,ls=0.0,diis     2    -75.1816571416 -2.29D-02  3.83D-03  5.03D-01     0.7
 d= 0,ls=0.0,diis     3    -75.2148811711 -3.32D-02  9.44D-04  5.15D-02     0.9
 d= 0,ls=0.0,diis     4    -75.2185416917 -3.66D-03  8.04D-05  4.79D-05     1.2
 d= 0,ls=0.0,diis     5    -75.2185499175 -8.23D-06  4.79D-05  3.72D-06     1.5
  Resetting Diis
 d= 0,ls=0.0,diis     6    -75.2185513247 -1.41D-06  1.22D-05  1.11D-07     1.7
 d= 0,ls=0.0,diis     7    -75.2185513848 -6.00D-08  1.63D-06  5.21D-09     2.0


         Total DFT energy =      -75.218551384766
      One electron energy =     -122.612309435383
           Coulomb energy =       46.290238776090
    Exchange-Corr. energy =       -8.015497349310
 Nuclear repulsion energy =        9.119016623837

 Numeric. integr. density =       10.000000271220

     Total iterative time =      1.9s



                       DFT Final Molecular Orbital Analysis
                       ------------------------------------

 Vector    1  Occ=2.000000D+00  E=-1.866224D+01
              MO Center= -2.5D-10,  1.2D-01,  5.4D-13, r^2= 1.5D-02
   Bfn.  Coefficient  Atom+Function         Bfn.  Coefficient  Atom+Function  
  ----- ------------  ---------------      ----- ------------  ---------------
     1      0.949623  1 O  s                  3      0.073374  1 O  s          
     2     -0.027987  1 O  s          

 Vector    2  Occ=2.000000D+00  E=-1.144979D+00
              MO Center= -5.9D-07, -8.8D-02,  2.0D-11, r^2= 5.3D-01
   Bfn.  Coefficient  Atom+Function         Bfn.  Coefficient  Atom+Function  
  ----- ------------  ---------------      ----- ------------  ---------------
     2      0.468702  1 O  s                  4      0.290601  1 O  s          
     3      0.125867  1 O  s                 31      0.092043  2 H  s          
    45      0.092043  3 H  s                  9     -0.082429  1 O  py         
    32      0.079082  2 H  s                 46      0.079082  3 H  s          
     6     -0.065332  1 O  py         

 Vector    3  Occ=2.000000D+00  E=-6.517672D-01
              MO Center=  5.0D-07, -9.5D-02,  1.0D-11, r^2= 7.9D-01
   Bfn.  Coefficient  Atom+Function         Bfn.  Coefficient  Atom+Function  
  ----- ------------  ---------------      ----- ------------  ---------------
     8      0.322313  1 O  px                 5      0.299153  1 O  px         
    32      0.214031  2 H  s                 46     -0.214031  3 H  s          
    11      0.163776  1 O  px                31      0.140067  2 H  s          
    45     -0.140067  3 H  s                 33      0.087084  2 H  s          
    47     -0.087084  3 H  s          

 Vector    4  Occ=2.000000D+00  E=-5.128434D-01
              MO Center=  2.2D-07,  2.0D-01,  1.0D-10, r^2= 7.1D-01
   Bfn.  Coefficient  Atom+Function         Bfn.  Coefficient  Atom+Function  
  ----- ------------  ---------------      ----- ------------  ---------------
     9      0.354077  1 O  py                 6      0.322514  1 O  py         
    12      0.310240  1 O  py                 4      0.283115  1 O  s          
     2      0.185067  1 O  s                 32     -0.117455  2 H  s          
    46     -0.117455  3 H  s                 31     -0.080858  2 H  s          
    45     -0.080858  3 H  s                  3      0.053649  1 O  s          

 Vector    5  Occ=2.000000D+00  E=-4.401798D-01
              MO Center= -5.4D-08,  8.1D-02,  1.1D-10, r^2= 6.6D-01
   Bfn.  Coefficient  Atom+Function         Bfn.  Coefficient  Atom+Function  
  ----- ------------  ---------------      ----- ------------  ---------------
    10      0.410772  1 O  pz                13      0.404255  1 O  pz         
     7      0.365546  1 O  pz                39      0.034459  2 H  pz         
    53      0.034459  3 H  pz         

 Vector    6  Occ=0.000000D+00  E= 1.105902D-01
              MO Center=  2.4D-06, -6.4D-01, -3.0D-10, r^2= 3.6D+00
   Bfn.  Coefficient  Atom+Function         Bfn.  Coefficient  Atom+Function  
  ----- ------------  ---------------      ----- ------------  ---------------
     4      1.447222  1 O  s                 33     -0.891469  2 H  s          
    47     -0.891466  3 H  s                 12     -0.427182  1 O  py         
    32     -0.259702  2 H  s                 46     -0.259703  3 H  s          
     9     -0.196092  1 O  py                 2      0.126944  1 O  s          
    37      0.123583  2 H  px                51     -0.123583  3 H  px         

 Vector    7  Occ=0.000000D+00  E= 1.754000D-01
              MO Center= -3.6D-06, -6.8D-01, -1.1D-11, r^2= 4.4D+00
   Bfn.  Coefficient  Atom+Function         Bfn.  Coefficient  Atom+Function  
  ----- ------------  ---------------      ----- ------------  ---------------
    33      1.689897  2 H  s                 47     -1.689900  3 H  s          
    11     -0.801654  1 O  px                 8     -0.217138  1 O  px         
     5     -0.166741  1 O  px                32      0.146916  2 H  s          
    46     -0.146918  3 H  s                 37     -0.115163  2 H  px         
    51     -0.115164  3 H  px                38      0.092107  2 H  py         

 Vector    8  Occ=0.000000D+00  E= 4.875551D-01
              MO Center=  8.1D-06, -8.6D-02, -3.1D-12, r^2= 2.3D+00
   Bfn.  Coefficient  Atom+Function         Bfn.  Coefficient  Atom+Function  
  ----- ------------  ---------------      ----- ------------  ---------------
    32      1.451183  2 H  s                 46     -1.451176  3 H  s          
    11     -1.061953  1 O  px                33     -0.717247  2 H  s          
    47      0.717237  3 H  s                  8     -0.264800  1 O  px         
     5     -0.124597  1 O  px                31      0.113095  2 H  s          
    45     -0.113094  3 H  s                 19      0.108754  1 O  d -2       

 Vector    9  Occ=0.000000D+00  E= 5.439181D-01
              MO Center= -5.3D-06, -5.4D-01,  3.7D-11, r^2= 2.1D+00
   Bfn.  Coefficient  Atom+Function         Bfn.  Coefficient  Atom+Function  
  ----- ------------  ---------------      ----- ------------  ---------------
    32      1.152830  2 H  s                 46      1.152851  3 H  s          
    33     -0.651240  2 H  s                 47     -0.651244  3 H  s          
    12      0.343722  1 O  py                37      0.285454  2 H  px         
    51     -0.285452  3 H  px                 2     -0.197948  1 O  s          
     4     -0.190794  1 O  s                  9      0.176225  1 O  py         

 Vector   10  Occ=0.000000D+00  E= 6.127505D-01
              MO Center= -2.5D-07,  3.4D-01, -4.1D-11, r^2= 2.2D+00
   Bfn.  Coefficient  Atom+Function         Bfn.  Coefficient  Atom+Function  
  ----- ------------  ---------------      ----- ------------  ---------------
     4      4.363520  1 O  s                 12     -2.579113  1 O  py         
    32     -2.270201  2 H  s                 46     -2.270207  3 H  s          
    37      0.818148  2 H  px                51     -0.818152  3 H  px         
    38     -0.623856  2 H  py                52     -0.623856  3 H  py         
    33     -0.395413  2 H  s                 47     -0.395417  3 H  s          

 Vector   11  Occ=0.000000D+00  E= 7.194720D-01
              MO Center=  1.9D-06,  7.0D-02, -2.2D-11, r^2= 1.7D+00
   Bfn.  Coefficient  Atom+Function         Bfn.  Coefficient  Atom+Function  
  ----- ------------  ---------------      ----- ------------  ---------------
    13      1.108921  1 O  pz                10     -0.757334  1 O  pz         
     7     -0.291592  1 O  pz                39      0.048333  2 H  pz         
    53      0.048329  3 H  pz                20     -0.030717  1 O  d -1       

 Vector   12  Occ=0.000000D+00  E= 7.367190D-01
              MO Center= -1.6D-06,  1.1D-01, -2.9D-11, r^2= 3.0D+00
   Bfn.  Coefficient  Atom+Function         Bfn.  Coefficient  Atom+Function  
  ----- ------------  ---------------      ----- ------------  ---------------
    11      2.906547  1 O  px                32     -1.567133  2 H  s          
    46      1.567141  3 H  s                 33     -1.432434  2 H  s          
    47      1.432434  3 H  s                 37      0.840207  2 H  px         
    51      0.840213  3 H  px                38     -0.672081  2 H  py         
    52      0.672075  3 H  py                19     -0.435589  1 O  d -2       

 Vector   13  Occ=0.000000D+00  E= 7.388091D-01
              MO Center= -1.2D-07, -1.5D-01,  7.4D-11, r^2= 2.0D+00
   Bfn.  Coefficient  Atom+Function         Bfn.  Coefficient  Atom+Function  
  ----- ------------  ---------------      ----- ------------  ---------------
    12      1.481614  1 O  py                32      1.109741  2 H  s          
    46      1.109733  3 H  s                  4     -1.011766  1 O  s          
    37     -0.613965  2 H  px                51      0.613958  3 H  px         
    38     -0.609467  2 H  py                52     -0.609474  3 H  py         
    33     -0.218710  2 H  s                 47     -0.218722  3 H  s          

 Vector   14  Occ=0.000000D+00  E= 8.016794D-01
              MO Center= -3.9D-07, -4.6D-01,  5.1D-12, r^2= 1.7D+00
   Bfn.  Coefficient  Atom+Function         Bfn.  Coefficient  Atom+Function  
  ----- ------------  ---------------      ----- ------------  ---------------
    39      0.835715  2 H  pz                53     -0.835713  3 H  pz         
    36     -0.054701  2 H  pz                50      0.054701  3 H  pz         
    17     -0.026076  1 O  d  1       

 Vector   15  Occ=0.000000D+00  E= 8.933698D-01
              MO Center= -1.4D-06, -2.0D-01, -5.3D-11, r^2= 2.0D+00
   Bfn.  Coefficient  Atom+Function         Bfn.  Coefficient  Atom+Function  
  ----- ------------  ---------------      ----- ------------  ---------------
    13      1.162417  1 O  pz                39     -0.987666  2 H  pz         
    53     -0.987669  3 H  pz                36      0.066322  2 H  pz         
    50      0.066322  3 H  pz                43     -0.040927  2 H  d  1       
    57      0.040927  3 H  d  1       

 Vector   16  Occ=0.000000D+00  E= 1.065410D+00
              MO Center=  3.2D-07,  1.7D-01,  7.5D-11, r^2= 1.9D+00
   Bfn.  Coefficient  Atom+Function         Bfn.  Coefficient  Atom+Function  
  ----- ------------  ---------------      ----- ------------  ---------------
     4      6.878119  1 O  s                 32     -2.822751  2 H  s          
    46     -2.822769  3 H  s                 12     -1.697233  1 O  py         
    37      1.123091  2 H  px                51     -1.123095  3 H  px         
     9     -0.998557  1 O  py                 2     -0.887167  1 O  s          
    38     -0.725499  2 H  py                52     -0.725505  3 H  py         

 Vector   17  Occ=0.000000D+00  E= 1.132182D+00
              MO Center= -1.4D-08, -3.6D-01, -2.8D-12, r^2= 2.1D+00
   Bfn.  Coefficient  Atom+Function         Bfn.  Coefficient  Atom+Function  
  ----- ------------  ---------------      ----- ------------  ---------------
    11      1.685220  1 O  px                38     -1.068943  2 H  py         
    52      1.068942  3 H  py                32     -0.938546  2 H  s          
    46      0.938537  3 H  s                 37     -0.579020  2 H  px         
    51     -0.579023  3 H  px                 8      0.179305  1 O  px         
    33     -0.101092  2 H  s                 47      0.101090  3 H  s          

 Vector   18  Occ=0.000000D+00  E= 1.421512D+00
              MO Center=  4.2D-05, -5.0D-01,  1.8D-12, r^2= 2.0D+00
   Bfn.  Coefficient  Atom+Function         Bfn.  Coefficient  Atom+Function  
  ----- ------------  ---------------      ----- ------------  ---------------
    37     -1.485796  2 H  px                51     -1.485741  3 H  px         
    32      1.388231  2 H  s                 46     -1.388180  3 H  s          
     8     -1.159340  1 O  px                38      1.063673  2 H  py         
    52     -1.063625  3 H  py                11     -0.931096  1 O  px         
    33      0.830143  2 H  s                 47     -0.830126  3 H  s          

 Vector   19  Occ=0.000000D+00  E= 1.452609D+00
              MO Center= -4.2D-05, -5.2D-01, -9.0D-12, r^2= 1.6D+00
   Bfn.  Coefficient  Atom+Function         Bfn.  Coefficient  Atom+Function  
  ----- ------------  ---------------      ----- ------------  ---------------
     4      2.158087  1 O  s                 37      1.088500  2 H  px         
    51     -1.088577  3 H  px                32     -1.000521  2 H  s          
    46     -1.000592  3 H  s                  2      0.899529  1 O  s          
    38     -0.862646  2 H  py                52     -0.862699  3 H  py         
     9     -0.614229  1 O  py                12     -0.373695  1 O  py         

 Vector   20  Occ=0.000000D+00  E= 1.921334D+00
              MO Center=  2.3D-06,  2.2D-02,  5.7D-12, r^2= 1.1D+00
   Bfn.  Coefficient  Atom+Function         Bfn.  Coefficient  Atom+Function  
  ----- ------------  ---------------      ----- ------------  ---------------
    20      1.162649  1 O  d -1              13     -0.711596  1 O  pz         
    39      0.674827  2 H  pz                53      0.674811  3 H  pz         
    41      0.069809  2 H  d -1              55      0.069810  3 H  d -1       
    10     -0.043002  1 O  pz                36     -0.038410  2 H  pz         
    50     -0.038408  3 H  pz         

 Vector   21  Occ=0.000000D+00  E= 1.942266D+00
              MO Center= -2.1D-06,  1.7D-02,  4.5D-12, r^2= 1.1D+00
   Bfn.  Coefficient  Atom+Function         Bfn.  Coefficient  Atom+Function  
  ----- ------------  ---------------      ----- ------------  ---------------
    22      1.224757  1 O  d  1              39      0.608339  2 H  pz         
    53     -0.608360  3 H  pz                36     -0.053795  2 H  pz         
    50      0.053796  3 H  pz                43      0.053497  2 H  d  1       
    57      0.053497  3 H  d  1       

 Vector   22  Occ=0.000000D+00  E= 1.959815D+00
              MO Center= -6.4D-07,  1.1D-01,  1.7D-11, r^2= 1.7D+00
   Bfn.  Coefficient  Atom+Function         Bfn.  Coefficient  Atom+Function  
  ----- ------------  ---------------      ----- ------------  ---------------
    32      4.428003  2 H  s                 46     -4.428042  3 H  s          
    11     -2.784194  1 O  px                 8     -1.756407  1 O  px         
    19      1.730319  1 O  d -2              37     -1.732664  2 H  px         
    51     -1.732676  3 H  px                38      1.250211  2 H  py         
    52     -1.250218  3 H  py                31     -0.416180  2 H  s          

 Vector   23  Occ=0.000000D+00  E= 2.045206D+00
              MO Center= -6.6D-08, -8.1D-02,  1.0D-11, r^2= 1.2D+00
   Bfn.  Coefficient  Atom+Function         Bfn.  Coefficient  Atom+Function  
  ----- ------------  ---------------      ----- ------------  ---------------
     4      2.378975  1 O  s                 32     -1.648355  2 H  s          
    46     -1.648335  3 H  s                 23      1.329333  1 O  d  2       
    38     -0.996567  2 H  py                52     -0.996563  3 H  py         
     9     -0.390416  1 O  py                 2      0.388405  1 O  s          
    12     -0.273668  1 O  py                21     -0.273731  1 O  d  0       

 Vector   24  Occ=0.000000D+00  E= 2.113130D+00
              MO Center= -9.2D-08,  2.1D-01,  3.5D-12, r^2= 1.3D+00
   Bfn.  Coefficient  Atom+Function         Bfn.  Coefficient  Atom+Function  
  ----- ------------  ---------------      ----- ------------  ---------------
     4      6.807830  1 O  s                 32     -4.169936  2 H  s          
    46     -4.169925  3 H  s                 12     -2.747856  1 O  py         
    37      1.521068  2 H  px                51     -1.521063  3 H  px         
    21     -1.450865  1 O  d  0               9     -0.884704  1 O  py         
    38     -0.742531  2 H  py                52     -0.742523  3 H  py         

 Vector   25  Occ=0.000000D+00  E= 2.427272D+00
              MO Center=  1.7D-06, -3.4D-01,  3.3D-12, r^2= 1.2D+00
   Bfn.  Coefficient  Atom+Function         Bfn.  Coefficient  Atom+Function  
  ----- ------------  ---------------      ----- ------------  ---------------
    32      1.524235  2 H  s                 46      1.524229  3 H  s          
    31     -0.950663  2 H  s                 45     -0.950660  3 H  s          
     4     -0.654277  1 O  s                  2     -0.419847  1 O  s          
     9      0.383128  1 O  py                23      0.380230  1 O  d  2       
    12      0.377105  1 O  py                33     -0.352638  2 H  s          

 Vector   26  Occ=0.000000D+00  E= 2.785585D+00
              MO Center= -9.9D-08, -1.8D-01,  9.9D-12, r^2= 1.2D+00
   Bfn.  Coefficient  Atom+Function         Bfn.  Coefficient  Atom+Function  
  ----- ------------  ---------------      ----- ------------  ---------------
    31      0.872489  2 H  s                 45     -0.872491  3 H  s          
    32     -0.738123  2 H  s                 46      0.738125  3 H  s          
    19      0.667548  1 O  d -2              33      0.580434  2 H  s          
    47     -0.580434  3 H  s                  8      0.515357  1 O  px         
    11     -0.507045  1 O  px                 5     -0.335183  1 O  px         

 Vector   27  Occ=0.000000D+00  E= 3.205455D+00
              MO Center=  9.4D-07, -3.5D-01,  2.8D-12, r^2= 1.1D+00
   Bfn.  Coefficient  Atom+Function         Bfn.  Coefficient  Atom+Function  
  ----- ------------  ---------------      ----- ------------  ---------------
    41      0.525597  2 H  d -1              55      0.525596  3 H  d -1       
    43     -0.352055  2 H  d  1              57      0.352054  3 H  d  1       
    20     -0.313843  1 O  d -1              36      0.219554  2 H  pz         
    50      0.219554  3 H  pz                39     -0.211718  2 H  pz         
    53     -0.211719  3 H  pz                 7     -0.140493  1 O  pz         

 Vector   28  Occ=0.000000D+00  E= 3.343859D+00
              MO Center=  1.3D-07, -3.7D-01,  7.4D-12, r^2= 1.1D+00
   Bfn.  Coefficient  Atom+Function         Bfn.  Coefficient  Atom+Function  
  ----- ------------  ---------------      ----- ------------  ---------------
     4      1.080747  1 O  s                 32     -0.884886  2 H  s          
    46     -0.884893  3 H  s                 42     -0.581441  2 H  d  0       
    56     -0.581441  3 H  d  0              12     -0.361536  1 O  py         
    40      0.322019  2 H  d -2              54     -0.322021  3 H  d -2       
    23      0.319579  1 O  d  2              31      0.306175  2 H  s          

 Vector   29  Occ=0.000000D+00  E= 3.430372D+00
              MO Center=  1.3D-06, -5.1D-01,  3.4D-12, r^2= 9.1D-01
   Bfn.  Coefficient  Atom+Function         Bfn.  Coefficient  Atom+Function  
  ----- ------------  ---------------      ----- ------------  ---------------
    36      0.479400  2 H  pz                50     -0.479398  3 H  pz         
    41     -0.401098  2 H  d -1              55      0.401101  3 H  d -1       
    43      0.398526  2 H  d  1              57      0.398523  3 H  d  1       
    39     -0.289858  2 H  pz                53      0.289857  3 H  pz         
    25     -0.125270  1 O  f -2              17     -0.053528  1 O  d  1       

 Vector   30  Occ=0.000000D+00  E= 3.509452D+00
              MO Center=  9.7D-07, -4.7D-01, -5.5D-12, r^2= 1.1D+00
   Bfn.  Coefficient  Atom+Function         Bfn.  Coefficient  Atom+Function  
  ----- ------------  ---------------      ----- ------------  ---------------
    40      0.422395  2 H  d -2              54      0.422393  3 H  d -2       
    42     -0.393408  2 H  d  0              56      0.393407  3 H  d  0       
    19     -0.347562  1 O  d -2              44     -0.343719  2 H  d  2       
    58      0.343721  3 H  d  2              37      0.332355  2 H  px         
    51      0.332354  3 H  px                31     -0.318863  2 H  s          

 Vector   31  Occ=0.000000D+00  E= 3.535525D+00
              MO Center= -1.9D-06, -7.0D-02,  8.6D-12, r^2= 7.8D-01
   Bfn.  Coefficient  Atom+Function         Bfn.  Coefficient  Atom+Function  
  ----- ------------  ---------------      ----- ------------  ---------------
     7      0.909260  1 O  pz                10     -0.828741  1 O  pz         
    36     -0.422794  2 H  pz                50     -0.422797  3 H  pz         
    13      0.372193  1 O  pz                20     -0.360479  1 O  d -1       
    43     -0.312402  2 H  d  1              57      0.312403  3 H  d  1       
    39      0.137568  2 H  pz                53      0.137570  3 H  pz         

 Vector   32  Occ=0.000000D+00  E= 3.687510D+00
              MO Center= -4.0D-06, -3.4D-01, -3.0D-12, r^2= 1.0D+00
   Bfn.  Coefficient  Atom+Function         Bfn.  Coefficient  Atom+Function  
  ----- ------------  ---------------      ----- ------------  ---------------
    11      0.826006  1 O  px                32     -0.666676  2 H  s          
    46      0.666682  3 H  s                 38     -0.641615  2 H  py         
    52      0.641625  3 H  py                35      0.591970  2 H  py         
    49     -0.591977  3 H  py                34      0.536389  2 H  px         
    48      0.536391  3 H  px                19     -0.398502  1 O  d -2       

 Vector   33  Occ=0.000000D+00  E= 3.744612D+00
              MO Center=  5.4D-06, -5.4D-01,  1.5D-12, r^2= 1.2D+00
   Bfn.  Coefficient  Atom+Function         Bfn.  Coefficient  Atom+Function  
  ----- ------------  ---------------      ----- ------------  ---------------
    38     -0.623014  2 H  py                52     -0.623008  3 H  py         
    35      0.613505  2 H  py                49      0.613498  3 H  py         
    44      0.448216  2 H  d  2              58      0.448218  3 H  d  2       
    34      0.354937  2 H  px                48     -0.354929  3 H  px         
    23      0.330863  1 O  d  2              12      0.323221  1 O  py         

 Vector   34  Occ=0.000000D+00  E= 3.806387D+00
              MO Center= -2.5D-06, -3.7D-01,  7.1D-12, r^2= 1.2D+00
   Bfn.  Coefficient  Atom+Function         Bfn.  Coefficient  Atom+Function  
  ----- ------------  ---------------      ----- ------------  ---------------
    36      0.698314  2 H  pz                50     -0.698316  3 H  pz         
    39     -0.448345  2 H  pz                53      0.448349  3 H  pz         
    43     -0.396392  2 H  d  1              57     -0.396395  3 H  d  1       
    41      0.265340  2 H  d -1              55     -0.265338  3 H  d -1       
    22      0.196141  1 O  d  1              25     -0.179398  1 O  f -2       

 Vector   35  Occ=0.000000D+00  E= 3.850459D+00
              MO Center=  3.2D-06, -4.4D-01, -2.5D-12, r^2= 1.2D+00
   Bfn.  Coefficient  Atom+Function         Bfn.  Coefficient  Atom+Function  
  ----- ------------  ---------------      ----- ------------  ---------------
    39     -0.734166  2 H  pz                53     -0.734164  3 H  pz         
    36      0.696681  2 H  pz                50      0.696676  3 H  pz         
    13      0.691704  1 O  pz                 7      0.407790  1 O  pz         
    41     -0.371142  2 H  d -1              55     -0.371142  3 H  d -1       
    43     -0.328360  2 H  d  1              57      0.328359  3 H  d  1       

 Vector   36  Occ=0.000000D+00  E= 3.866452D+00
              MO Center=  8.3D-06, -3.5D-01, -1.9D-12, r^2= 1.3D+00
   Bfn.  Coefficient  Atom+Function         Bfn.  Coefficient  Atom+Function  
  ----- ------------  ---------------      ----- ------------  ---------------
     8      1.608772  1 O  px                32     -1.468791  2 H  s          
    46      1.468766  3 H  s                 37      1.119570  2 H  px         
    51      1.119554  3 H  px                38     -0.994076  2 H  py         
    52      0.994061  3 H  py                 5     -0.698480  1 O  px         
    11      0.561112  1 O  px                35      0.425542  2 H  py         

 Vector   37  Occ=0.000000D+00  E= 3.937705D+00
              MO Center= -8.7D-06, -1.7D-01,  1.1D-11, r^2= 1.1D+00
   Bfn.  Coefficient  Atom+Function         Bfn.  Coefficient  Atom+Function  
  ----- ------------  ---------------      ----- ------------  ---------------
     4      3.867846  1 O  s                 32     -2.035627  2 H  s          
    46     -2.035666  3 H  s                  9     -1.595237  1 O  py         
    37      1.211848  2 H  px                51     -1.211876  3 H  px         
    38     -0.946728  2 H  py                52     -0.946747  3 H  py         
     6      0.899691  1 O  py                12     -0.665362  1 O  py         

 Vector   38  Occ=0.000000D+00  E= 4.143342D+00
              MO Center=  1.1D-06, -3.8D-01, -5.4D-13, r^2= 1.2D+00
   Bfn.  Coefficient  Atom+Function         Bfn.  Coefficient  Atom+Function  
  ----- ------------  ---------------      ----- ------------  ---------------
    22      1.021321  1 O  d  1              41      0.700731  2 H  d -1       
    55     -0.700731  3 H  d -1              43      0.594087  2 H  d  1       
    57      0.594088  3 H  d  1              39      0.529192  2 H  pz         
    53     -0.529192  3 H  pz                17     -0.100596  1 O  d  1       
    25     -0.064501  1 O  f -2              36     -0.036328  2 H  pz         

 Vector   39  Occ=0.000000D+00  E= 4.179437D+00
              MO Center= -8.2D-07, -1.6D-01,  5.8D-12, r^2= 1.3D+00
   Bfn.  Coefficient  Atom+Function         Bfn.  Coefficient  Atom+Function  
  ----- ------------  ---------------      ----- ------------  ---------------
    23      1.007479  1 O  d  2              44      0.634047  2 H  d  2       
    58      0.634049  3 H  d  2               4      0.621301  1 O  s          
    35     -0.491631  2 H  py                49     -0.491633  3 H  py         
    21     -0.468079  1 O  d  0               2     -0.385347  1 O  s          
    37     -0.376845  2 H  px                51      0.376844  3 H  px         

 Vector   40  Occ=0.000000D+00  E= 4.390172D+00
              MO Center=  1.0D-06, -4.3D-01,  1.7D-12, r^2= 1.2D+00
   Bfn.  Coefficient  Atom+Function         Bfn.  Coefficient  Atom+Function  
  ----- ------------  ---------------      ----- ------------  ---------------
    44      0.578115  2 H  d  2              58     -0.578114  3 H  d  2       
    37     -0.531818  2 H  px                51     -0.531824  3 H  px         
    40      0.519473  2 H  d -2              54      0.519471  3 H  d -2       
     5      0.505056  1 O  px                38     -0.482439  2 H  py         
    52      0.482435  3 H  py                11      0.397616  1 O  px         

 Vector   41  Occ=0.000000D+00  E= 4.438995D+00
              MO Center= -2.0D-06, -1.7D-01, -9.7D-13, r^2= 8.7D-01
   Bfn.  Coefficient  Atom+Function         Bfn.  Coefficient  Atom+Function  
  ----- ------------  ---------------      ----- ------------  ---------------
    10      1.385391  1 O  pz                 7     -0.673467  1 O  pz         
    20     -0.673083  1 O  d -1              43     -0.618077  2 H  d  1       
    57      0.618081  3 H  d  1              41     -0.360703  2 H  d -1       
    55     -0.360706  3 H  d -1              39     -0.319161  2 H  pz         
    53     -0.319164  3 H  pz                27      0.290108  1 O  f  0       

 Vector   42  Occ=0.000000D+00  E= 4.661038D+00
              MO Center=  3.7D-06, -3.4D-01,  9.0D-12, r^2= 1.3D+00
   Bfn.  Coefficient  Atom+Function         Bfn.  Coefficient  Atom+Function  
  ----- ------------  ---------------      ----- ------------  ---------------
    32      3.125605  2 H  s                 46     -3.125583  3 H  s          
     8     -2.049141  1 O  px                37     -1.725787  2 H  px         
    51     -1.725780  3 H  px                11     -1.374996  1 O  px         
    19      1.168487  1 O  d -2              38      0.918198  2 H  py         
    52     -0.918183  3 H  py                42     -0.740607  2 H  d  0       

 Vector   43  Occ=0.000000D+00  E= 4.897351D+00
              MO Center= -5.7D-06, -2.8D-01, -1.3D-11, r^2= 8.9D-01
   Bfn.  Coefficient  Atom+Function         Bfn.  Coefficient  Atom+Function  
  ----- ------------  ---------------      ----- ------------  ---------------
     4      2.925252  1 O  s                 32     -2.031329  2 H  s          
    46     -2.031375  3 H  s                  2      1.023739  1 O  s          
    23      0.830528  1 O  d  2              38     -0.787489  2 H  py         
    52     -0.787503  3 H  py                37      0.775618  2 H  px         
    51     -0.775639  3 H  px                40      0.752565  2 H  d -2       

 Vector   44  Occ=0.000000D+00  E= 4.991649D+00
              MO Center= -1.1D-07, -3.8D-02, -4.7D-12, r^2= 8.6D-01
   Bfn.  Coefficient  Atom+Function         Bfn.  Coefficient  Atom+Function  
  ----- ------------  ---------------      ----- ------------  ---------------
     4      3.879719  1 O  s                 32     -2.376937  2 H  s          
    46     -2.376942  3 H  s                  9     -2.268760  1 O  py         
    12     -1.068098  1 O  py                37      0.955245  2 H  px         
    51     -0.955243  3 H  px                21     -0.674668  1 O  d  0       
    34      0.635297  2 H  px                48     -0.635303  3 H  px         

 Vector   45  Occ=0.000000D+00  E= 5.246704D+00
              MO Center=  4.8D-07, -1.0D-02, -2.0D-12, r^2= 7.4D-01
   Bfn.  Coefficient  Atom+Function         Bfn.  Coefficient  Atom+Function  
  ----- ------------  ---------------      ----- ------------  ---------------
     8      2.574437  1 O  px                32     -2.199482  2 H  s          
    46      2.199473  3 H  s                 19     -1.246876  1 O  d -2       
    11      1.008265  1 O  px                38     -0.807578  2 H  py         
    52      0.807574  3 H  py                37      0.760070  2 H  px         
    51      0.760067  3 H  px                 5     -0.698079  1 O  px         

 Vector   46  Occ=0.000000D+00  E= 5.760508D+00
              MO Center= -2.6D-07,  1.7D-02, -1.6D-12, r^2= 5.6D-01
   Bfn.  Coefficient  Atom+Function         Bfn.  Coefficient  Atom+Function  
  ----- ------------  ---------------      ----- ------------  ---------------
    29      0.996688  1 O  f  2              43      0.263436  2 H  d  1       
    57     -0.263436  3 H  d  1              27      0.247386  1 O  f  0       
    41     -0.213772  2 H  d -1              55     -0.213774  3 H  d -1       
    15      0.164702  1 O  d -1              10     -0.120957  1 O  pz         
    20      0.102085  1 O  d -1              36      0.058804  2 H  pz         

 Vector   47  Occ=0.000000D+00  E= 6.260177D+00
              MO Center= -1.0D-07, -1.4D-01,  1.6D-11, r^2= 6.9D-01
   Bfn.  Coefficient  Atom+Function         Bfn.  Coefficient  Atom+Function  
  ----- ------------  ---------------      ----- ------------  ---------------
    26      0.879071  1 O  f -1               9     -0.772445  1 O  py         
    23     -0.743554  1 O  d  2               2     -0.646547  1 O  s          
    32      0.596192  2 H  s                 46      0.596206  3 H  s          
    34      0.545213  2 H  px                48     -0.545211  3 H  px         
     4     -0.498570  1 O  s                 38      0.491088  2 H  py         

 Vector   48  Occ=0.000000D+00  E= 6.560499D+00
              MO Center=  3.7D-05,  4.7D-02, -5.5D-12, r^2= 4.6D-01
   Bfn.  Coefficient  Atom+Function         Bfn.  Coefficient  Atom+Function  
  ----- ------------  ---------------      ----- ------------  ---------------
    15      1.005572  1 O  d -1              10     -0.505030  1 O  pz         
    27      0.471759  1 O  f  0              29     -0.302218  1 O  f  2       
    41      0.295201  2 H  d -1              55      0.295174  3 H  d -1       
    20     -0.281683  1 O  d -1              36      0.240633  2 H  pz         
    50      0.240596  3 H  pz                43      0.222023  2 H  d  1       

 Vector   49  Occ=0.000000D+00  E= 6.568466D+00
              MO Center= -3.3D-05,  6.2D-02,  2.9D-11, r^2= 3.8D-01
   Bfn.  Coefficient  Atom+Function         Bfn.  Coefficient  Atom+Function  
  ----- ------------  ---------------      ----- ------------  ---------------
    17      1.155729  1 O  d  1              22     -0.520763  1 O  d  1       
    25      0.214634  1 O  f -2              43      0.176495  2 H  d  1       
    57      0.176558  3 H  d  1              39     -0.115861  2 H  pz         
    53      0.115878  3 H  pz                36      0.104435  2 H  pz         
    50     -0.104506  3 H  pz                41      0.072989  2 H  d -1       

 Vector   50  Occ=0.000000D+00  E= 6.653015D+00
              MO Center=  7.1D-06, -1.6D-02,  1.8D-11, r^2= 4.8D-01
   Bfn.  Coefficient  Atom+Function         Bfn.  Coefficient  Atom+Function  
  ----- ------------  ---------------      ----- ------------  ---------------
    18      0.986967  1 O  d  2               2     -0.701956  1 O  s          
    24     -0.576745  1 O  f -3               1     -0.534647  1 O  s          
     3      0.404838  1 O  s                 23     -0.361762  1 O  d  2       
    31     -0.326703  2 H  s                 45     -0.326678  3 H  s          
    38      0.312690  2 H  py                52      0.312709  3 H  py         

 Vector   51  Occ=0.000000D+00  E= 6.691292D+00
              MO Center= -1.9D-06,  8.0D-02, -2.5D-11, r^2= 6.3D-01
   Bfn.  Coefficient  Atom+Function         Bfn.  Coefficient  Atom+Function  
  ----- ------------  ---------------      ----- ------------  ---------------
    20      1.071096  1 O  d -1              27      1.021514  1 O  f  0       
    10     -0.915774  1 O  pz                15     -0.615247  1 O  d -1       
    43      0.533442  2 H  d  1              57     -0.533443  3 H  d  1       
    39      0.424617  2 H  pz                53      0.424612  3 H  pz         
    36      0.388923  2 H  pz                50      0.388924  3 H  pz         

 Vector   52  Occ=0.000000D+00  E= 6.720490D+00
              MO Center= -7.2D-06,  2.6D-02, -3.5D-11, r^2= 7.0D-01
   Bfn.  Coefficient  Atom+Function         Bfn.  Coefficient  Atom+Function  
  ----- ------------  ---------------      ----- ------------  ---------------
     8      1.693937  1 O  px                19     -0.836013  1 O  d -2       
    28      0.798249  1 O  f  1              32     -0.765825  2 H  s          
    46      0.765818  3 H  s                 30     -0.746628  1 O  f  3       
    11      0.615562  1 O  px                 5     -0.604906  1 O  px         
    31     -0.562871  2 H  s                 45      0.562886  3 H  s          

 Vector   53  Occ=0.000000D+00  E= 6.827490D+00
              MO Center= -4.6D-07,  1.3D-01, -1.9D-11, r^2= 5.1D-01
   Bfn.  Coefficient  Atom+Function         Bfn.  Coefficient  Atom+Function  
  ----- ------------  ---------------      ----- ------------  ---------------
     4      1.271306  1 O  s                 23     -1.012389  1 O  d  2       
    32     -0.935296  2 H  s                 46     -0.935293  3 H  s          
    16      0.891579  1 O  d  0              12     -0.767415  1 O  py         
     9     -0.652772  1 O  py                21     -0.638337  1 O  d  0       
    24      0.606050  1 O  f -3              37      0.492258  2 H  px         

 Vector   54  Occ=0.000000D+00  E= 6.929808D+00
              MO Center= -1.9D-06,  4.3D-02,  7.0D-13, r^2= 6.9D-01
   Bfn.  Coefficient  Atom+Function         Bfn.  Coefficient  Atom+Function  
  ----- ------------  ---------------      ----- ------------  ---------------
    25      1.266906  1 O  f -2              22      1.131773  1 O  d  1       
    43      0.526198  2 H  d  1              57      0.526206  3 H  d  1       
    36      0.489289  2 H  pz                50     -0.489298  3 H  pz         
    41      0.450070  2 H  d -1              55     -0.450076  3 H  d -1       
    39      0.345707  2 H  pz                53     -0.345712  3 H  pz         

 Vector   55  Occ=0.000000D+00  E= 7.110942D+00
              MO Center= -2.3D-10,  1.0D-01, -6.7D-12, r^2= 6.0D-01
   Bfn.  Coefficient  Atom+Function         Bfn.  Coefficient  Atom+Function  
  ----- ------------  ---------------      ----- ------------  ---------------
     4      1.123337  1 O  s                 23      0.998743  1 O  d  2       
    24     -0.862196  1 O  f -3              21     -0.746169  1 O  d  0       
    16      0.735273  1 O  d  0               2     -0.647725  1 O  s          
    18     -0.528536  1 O  d  2              31     -0.506390  2 H  s          
    45     -0.506391  3 H  s                 44      0.349340  2 H  d  2       

 Vector   56  Occ=0.000000D+00  E= 7.449395D+00
              MO Center= -4.7D-07,  1.0D-01, -2.7D-12, r^2= 6.5D-01
   Bfn.  Coefficient  Atom+Function         Bfn.  Coefficient  Atom+Function  
  ----- ------------  ---------------      ----- ------------  ---------------
    19      1.660947  1 O  d -2              30     -1.068120  1 O  f  3       
     8     -0.940442  1 O  px                31      0.847727  2 H  s          
    45     -0.847733  3 H  s                 11     -0.682815  1 O  px         
    32      0.684309  2 H  s                 46     -0.684303  3 H  s          
    14     -0.675365  1 O  d -2              34     -0.599150  2 H  px         

 Vector   57  Occ=0.000000D+00  E= 7.899209D+00
              MO Center=  2.9D-07, -1.3D-01, -3.8D-12, r^2= 6.2D-01
   Bfn.  Coefficient  Atom+Function         Bfn.  Coefficient  Atom+Function  
  ----- ------------  ---------------      ----- ------------  ---------------
     8      2.751825  1 O  px                32     -2.173431  2 H  s          
    46      2.173429  3 H  s                 14     -1.056486  1 O  d -2       
    19     -0.918028  1 O  d -2              37      0.920366  2 H  px         
    51      0.920366  3 H  px                34      0.882955  2 H  px         
    48      0.882958  3 H  px                38     -0.619940  2 H  py         

 Vector   58  Occ=0.000000D+00  E= 1.226570D+01
              MO Center= -7.7D-07, -1.4D-01, -1.6D-12, r^2= 8.0D-01
   Bfn.  Coefficient  Atom+Function         Bfn.  Coefficient  Atom+Function  
  ----- ------------  ---------------      ----- ------------  ---------------
     2      5.795334  1 O  s                  1      3.728747  1 O  s          
     4      3.536258  1 O  s                 32     -3.542888  2 H  s          
    46     -3.542910  3 H  s                  9     -2.660931  1 O  py         
     3     -2.635354  1 O  s                 37      1.373910  2 H  px         
    51     -1.373920  3 H  px                38     -1.169677  2 H  py         


 center of mass
 --------------
 x =   0.00000000 y =   0.09911481 z =   0.00000000

 moments of inertia (a.u.)
 ------------------
           2.266428026031           0.000005469268           0.000000000000
           0.000005469268           4.155714155453           0.000000000000
           0.000000000000           0.000000000000           6.422142181484

     Multipole analysis of the density
     ---------------------------------

     L   x y z        total         alpha         beta         nuclear
     -   - - -        -----         -----         ----         -------
     0   0 0 0     -0.000000     -5.000000     -5.000000     10.000000

     1   1 0 0     -0.000000     -0.000000     -0.000000      0.000000
     1   0 1 0     -0.803722     -0.401861     -0.401861      0.000000
     1   0 0 1     -0.000000     -0.000000     -0.000000      0.000000

     2   2 0 0     -3.369727     -3.746588     -3.746588      4.123448
     2   1 1 0     -0.000002      0.000002      0.000002     -0.000005
     2   1 0 1     -0.000000     -0.000000     -0.000000      0.000000
     2   0 2 0     -4.739000     -3.382390     -3.382390      2.025780
     2   0 1 1      0.000000      0.000000      0.000000      0.000000
     2   0 0 2     -5.663830     -2.831915     -2.831915      0.000000


 Task  times  cpu:        2.0s     wall:        2.0s


                                NWChem Input Module
                                -------------------


                              NWChem Property Module
                              ----------------------


  itol2e modified to match energy
  convergence criterion.

                                 NWChem DFT Module
                                 -----------------



int_init: setting std/high accuracies to  1.0D-15  1.0D-30
  int_init: cando_txs set to always be  F


 Summary of "ao basis" -> "ao basis" (spherical)
 ------------------------------------------------------------------------------
       Tag                 Description            Shells   Functions and Types
 ---------------- ------------------------------  ------  ---------------------
 O                          cc-pvtz                 10       30   4s3p2d1f
 H                          cc-pvtz                  6       14   3s2p1d



int_init: setting std/high accuracies to  1.0D-15  1.0D-30
  int_init: cando_txs set to always be  F
  Caching 1-el integrals 
  itol2e modified to match energy
  convergence criterion.

            General Information
            -------------------
          SCF calculation type: DFT
          Wavefunction type:  closed shell.
          No. of atoms     :     3
          No. of electrons :    10
           Alpha electrons :     5
            Beta electrons :     5
          Charge           :     0
          Spin multiplicity:     1
          Use of symmetry is: off; symmetry adaption is: off
          Maximum number of iterations:  30
          AO basis - number of functions:    58
                     number of shells:    22
          A Charge density fitting basis will be used.
          CD basis - number of functions:    74
                     number of shells:    26
          Convergence on energy requested:  1.00D-07
          Convergence on density requested:  1.00D-05
          Convergence on gradient requested:  5.00D-04

              XC Information
              --------------
                     Hartree-Fock (Exact) Exchange  1.000          
                   LC-BNL 2007 Exchange Functional  0.900 local    
              Lee-Yang-Parr Correlation Functional  1.000          

           Range-Separation Parameters        
           ---------------------------
           Alpha           :  0.00
           Beta            :  1.00
           Gamma           :  0.50
           Short-Range HF  :     F

             Grid Information
             ----------------
          Grid used for XC integration:  fine      
          Radial quadrature: Mura-Knowles        
          Angular quadrature: Lebedev. 
          Tag              B.-S. Rad. Rad. Pts. Rad. Cut. Ang. Pts.
          ---              ---------- --------- --------- ---------
          O                   0.60       70           6.0       590
          H                   0.35       60           7.0       590
          Grid pruning is: on 
          Number of quadrature shells:   190
          Spatial weights used:  Erf1

          Convergence Information
          -----------------------
          Convergence aids based upon iterative change in 
          total energy or number of iterations. 
          Levelshifting, if invoked, occurs when the 
          HOMO/LUMO gap drops below (HL_TOL):  1.00D-02
          DIIS, if invoked, will attempt to extrapolate 
          using up to (NFOCK): 10 stored Fock matrices.

                    Damping( 0%)  Levelshifting(0.5)       DIIS
                  --------------- ------------------- ---------------
          dE  on:    start            ASAP                start   
          dE off:    2 iters         30 iters            30 iters 


      Screening Tolerance Information
      -------------------------------
          Density screening/tol_rho:  1.00D-11
          AO Gaussian exp screening on grid/accAOfunc:  16
          CD Gaussian exp screening on grid/accCDfunc:  20
          XC Gaussian exp screening on grid/accXCfunc:  20
          Schwarz screening/accCoul:  1.00D-08


 Loading old vectors from job with title :



   Time after variat. SCF:      2.1

      3 Center 2 Electron Integral Information
      ----------------------------------------
          Maximum number of 3-center 2e- integrals is:          248936.
            This is reduced with Schwarz screening to:          218300.
            Incore requires a per proc buffer size of:           81105.
          Minimum dble words available (all nodes) is:       138100628
                   This is reduced (for later use) to:       137650641
                      proc 0 Suggested buffer size is:           81105
                         Max Suggested buffer size is:           81105
                              no. integral batches is:            1000

           0.081 MW buffer allocated for incore 3-center 
          2e- integral storage on stack. 
   Time prior to 1st pass:      2.1

 Grid_pts file          = ./h2o_bnl.gridpts.0
 Record size in doubles =  12289        No. of grid_pts per rec  =   3070
 Max. records in memory =     12        Max. recs in file   = 253312716


           Memory utilization after 1st SCF pass: 
           Heap Space remaining (MW):       51.71            51706424
          Stack Space remaining (MW):       86.16            86164580

   convergence    iter        energy       DeltaE   RMS-Dens  Diis-err    time
 ---------------- ----- ----------------- --------- --------- ---------  ------
 d= 0,ls=0.0,diis     1    -75.2185510871 -8.43D+01  6.75D-07  2.34D-09     2.4
 d= 0,ls=0.0,diis     2    -75.2185510873 -1.87D-10  2.09D-07  2.22D-09     2.7


         Total DFT energy =      -75.218551087314
      One electron energy =     -122.612317268689
           Coulomb energy =       46.290246495451
    Exchange-Corr. energy =       -8.015496937914
 Nuclear repulsion energy =        9.119016623837

 Numeric. integr. density =       10.000000185408

     Total iterative time =      0.6s



                       DFT Final Molecular Orbital Analysis
                       ------------------------------------

 Vector    1  Occ=2.000000D+00  E=-1.866226D+01
              MO Center= -2.5D-10,  1.2D-01,  1.8D-13, r^2= 1.5D-02
   Bfn.  Coefficient  Atom+Function         Bfn.  Coefficient  Atom+Function  
  ----- ------------  ---------------      ----- ------------  ---------------
     1      0.949623  1 O  s                  3      0.073374  1 O  s          
     2     -0.027986  1 O  s          

 Vector    2  Occ=2.000000D+00  E=-1.144986D+00
              MO Center= -5.9D-07, -8.8D-02,  1.2D-11, r^2= 5.3D-01
   Bfn.  Coefficient  Atom+Function         Bfn.  Coefficient  Atom+Function  
  ----- ------------  ---------------      ----- ------------  ---------------
     2      0.468703  1 O  s                  4      0.290600  1 O  s          
     3      0.125868  1 O  s                 31      0.092042  2 H  s          
    45      0.092043  3 H  s                  9     -0.082429  1 O  py         
    32      0.079081  2 H  s                 46      0.079082  3 H  s          
     6     -0.065332  1 O  py         

 Vector    3  Occ=2.000000D+00  E=-6.517719D-01
              MO Center=  5.0D-07, -9.5D-02, -4.7D-12, r^2= 7.9D-01
   Bfn.  Coefficient  Atom+Function         Bfn.  Coefficient  Atom+Function  
  ----- ------------  ---------------      ----- ------------  ---------------
     8      0.322314  1 O  px                 5      0.299154  1 O  px         
    32      0.214029  2 H  s                 46     -0.214029  3 H  s          
    11      0.163777  1 O  px                31      0.140067  2 H  s          
    45     -0.140067  3 H  s                 33      0.087085  2 H  s          
    47     -0.087085  3 H  s          

 Vector    4  Occ=2.000000D+00  E=-5.128501D-01
              MO Center=  2.2D-07,  2.0D-01,  2.9D-11, r^2= 7.1D-01
   Bfn.  Coefficient  Atom+Function         Bfn.  Coefficient  Atom+Function  
  ----- ------------  ---------------      ----- ------------  ---------------
     9      0.354081  1 O  py                 6      0.322517  1 O  py         
    12      0.310240  1 O  py                 4      0.283102  1 O  s          
     2      0.185064  1 O  s                 32     -0.117452  2 H  s          
    46     -0.117451  3 H  s                 31     -0.080858  2 H  s          
    45     -0.080858  3 H  s                  3      0.053648  1 O  s          

 Vector    5  Occ=2.000000D+00  E=-4.401861D-01
              MO Center= -5.4D-08,  8.1D-02,  4.5D-11, r^2= 6.6D-01
   Bfn.  Coefficient  Atom+Function         Bfn.  Coefficient  Atom+Function  
  ----- ------------  ---------------      ----- ------------  ---------------
    10      0.410772  1 O  pz                13      0.404253  1 O  pz         
     7      0.365547  1 O  pz                39      0.034460  2 H  pz         
    53      0.034460  3 H  pz         

 Vector    6  Occ=0.000000D+00  E= 1.105885D-01
              MO Center=  2.4D-06, -6.4D-01, -1.3D-10, r^2= 3.6D+00
   Bfn.  Coefficient  Atom+Function         Bfn.  Coefficient  Atom+Function  
  ----- ------------  ---------------      ----- ------------  ---------------
     4      1.447214  1 O  s                 33     -0.891467  2 H  s          
    47     -0.891464  3 H  s                 12     -0.427171  1 O  py         
    32     -0.259700  2 H  s                 46     -0.259701  3 H  s          
     9     -0.196089  1 O  py                 2      0.126947  1 O  s          
    37      0.123580  2 H  px                51     -0.123581  3 H  px         

 Vector    7  Occ=0.000000D+00  E= 1.753988D-01
              MO Center= -3.6D-06, -6.8D-01, -2.9D-11, r^2= 4.4D+00
   Bfn.  Coefficient  Atom+Function         Bfn.  Coefficient  Atom+Function  
  ----- ------------  ---------------      ----- ------------  ---------------
    33      1.689894  2 H  s                 47     -1.689898  3 H  s          
    11     -0.801655  1 O  px                 8     -0.217140  1 O  px         
     5     -0.166742  1 O  px                32      0.146920  2 H  s          
    46     -0.146922  3 H  s                 37     -0.115164  2 H  px         
    51     -0.115165  3 H  px                38      0.092108  2 H  py         

 Vector    8  Occ=0.000000D+00  E= 4.875534D-01
              MO Center=  8.1D-06, -8.6D-02, -4.4D-12, r^2= 2.3D+00
   Bfn.  Coefficient  Atom+Function         Bfn.  Coefficient  Atom+Function  
  ----- ------------  ---------------      ----- ------------  ---------------
    32      1.451173  2 H  s                 46     -1.451166  3 H  s          
    11     -1.061934  1 O  px                33     -0.717257  2 H  s          
    47      0.717247  3 H  s                  8     -0.264800  1 O  px         
     5     -0.124598  1 O  px                31      0.113096  2 H  s          
    45     -0.113095  3 H  s                 19      0.108751  1 O  d -2       

 Vector    9  Occ=0.000000D+00  E= 5.439157D-01
              MO Center= -5.3D-06, -5.4D-01,  1.7D-12, r^2= 2.1D+00
   Bfn.  Coefficient  Atom+Function         Bfn.  Coefficient  Atom+Function  
  ----- ------------  ---------------      ----- ------------  ---------------
    32      1.152802  2 H  s                 46      1.152823  3 H  s          
    33     -0.651247  2 H  s                 47     -0.651251  3 H  s          
    12      0.343689  1 O  py                37      0.285462  2 H  px         
    51     -0.285461  3 H  px                 2     -0.197948  1 O  s          
     4     -0.190738  1 O  s                  9      0.176224  1 O  py         

 Vector   10  Occ=0.000000D+00  E= 6.127497D-01
              MO Center= -2.5D-07,  3.4D-01, -2.6D-11, r^2= 2.2D+00
   Bfn.  Coefficient  Atom+Function         Bfn.  Coefficient  Atom+Function  
  ----- ------------  ---------------      ----- ------------  ---------------
     4      4.363490  1 O  s                 12     -2.579097  1 O  py         
    32     -2.270193  2 H  s                 46     -2.270199  3 H  s          
    37      0.818133  2 H  px                51     -0.818137  3 H  px         
    38     -0.623859  2 H  py                52     -0.623859  3 H  py         
    33     -0.395407  2 H  s                 47     -0.395412  3 H  s          

 Vector   11  Occ=0.000000D+00  E= 7.194691D-01
              MO Center=  1.9D-06,  7.0D-02,  2.1D-11, r^2= 1.7D+00
   Bfn.  Coefficient  Atom+Function         Bfn.  Coefficient  Atom+Function  
  ----- ------------  ---------------      ----- ------------  ---------------
    13      1.108917  1 O  pz                10     -0.757332  1 O  pz         
     7     -0.291593  1 O  pz                39      0.048336  2 H  pz         
    53      0.048333  3 H  pz                20     -0.030716  1 O  d -1       

 Vector   12  Occ=0.000000D+00  E= 7.367166D-01
              MO Center= -1.6D-06,  1.1D-01, -2.4D-11, r^2= 3.0D+00
   Bfn.  Coefficient  Atom+Function         Bfn.  Coefficient  Atom+Function  
  ----- ------------  ---------------      ----- ------------  ---------------
    11      2.906548  1 O  px                32     -1.567135  2 H  s          
    46      1.567143  3 H  s                 33     -1.432430  2 H  s          
    47      1.432430  3 H  s                 37      0.840204  2 H  px         
    51      0.840211  3 H  px                38     -0.672078  2 H  py         
    52      0.672072  3 H  py                19     -0.435588  1 O  d -2       

 Vector   13  Occ=0.000000D+00  E= 7.388083D-01
              MO Center= -1.2D-07, -1.5D-01,  7.0D-11, r^2= 2.0D+00
   Bfn.  Coefficient  Atom+Function         Bfn.  Coefficient  Atom+Function  
  ----- ------------  ---------------      ----- ------------  ---------------
    12      1.481635  1 O  py                32      1.109757  2 H  s          
    46      1.109749  3 H  s                  4     -1.011800  1 O  s          
    37     -0.613972  2 H  px                51      0.613965  3 H  px         
    38     -0.609461  2 H  py                52     -0.609468  3 H  py         
    33     -0.218705  2 H  s                 47     -0.218716  3 H  s          

 Vector   14  Occ=0.000000D+00  E= 8.016777D-01
              MO Center= -3.9D-07, -4.6D-01,  1.1D-10, r^2= 1.7D+00
   Bfn.  Coefficient  Atom+Function         Bfn.  Coefficient  Atom+Function  
  ----- ------------  ---------------      ----- ------------  ---------------
    39      0.835714  2 H  pz                53     -0.835713  3 H  pz         
    36     -0.054701  2 H  pz                50      0.054701  3 H  pz         
    17     -0.026077  1 O  d  1       

 Vector   15  Occ=0.000000D+00  E= 8.933689D-01
              MO Center= -1.4D-06, -2.0D-01, -1.1D-10, r^2= 2.0D+00
   Bfn.  Coefficient  Atom+Function         Bfn.  Coefficient  Atom+Function  
  ----- ------------  ---------------      ----- ------------  ---------------
    13      1.162420  1 O  pz                39     -0.987665  2 H  pz         
    53     -0.987668  3 H  pz                36      0.066321  2 H  pz         
    50      0.066321  3 H  pz                43     -0.040927  2 H  d  1       
    57      0.040927  3 H  d  1       

 Vector   16  Occ=0.000000D+00  E= 1.065407D+00
              MO Center=  3.2D-07,  1.7D-01,  3.2D-11, r^2= 1.9D+00
   Bfn.  Coefficient  Atom+Function         Bfn.  Coefficient  Atom+Function  
  ----- ------------  ---------------      ----- ------------  ---------------
     4      6.878118  1 O  s                 32     -2.822750  2 H  s          
    46     -2.822768  3 H  s                 12     -1.697237  1 O  py         
    37      1.123090  2 H  px                51     -1.123094  3 H  px         
     9     -0.998553  1 O  py                 2     -0.887167  1 O  s          
    38     -0.725497  2 H  py                52     -0.725503  3 H  py         

 Vector   17  Occ=0.000000D+00  E= 1.132182D+00
              MO Center= -1.4D-08, -3.6D-01, -1.3D-12, r^2= 2.1D+00
   Bfn.  Coefficient  Atom+Function         Bfn.  Coefficient  Atom+Function  
  ----- ------------  ---------------      ----- ------------  ---------------
    11      1.685224  1 O  px                38     -1.068944  2 H  py         
    52      1.068943  3 H  py                32     -0.938549  2 H  s          
    46      0.938540  3 H  s                 37     -0.579018  2 H  px         
    51     -0.579021  3 H  px                 8      0.179306  1 O  px         
    33     -0.101094  2 H  s                 47      0.101092  3 H  s          

 Vector   18  Occ=0.000000D+00  E= 1.421509D+00
              MO Center=  4.2D-05, -5.0D-01,  1.1D-11, r^2= 2.0D+00
   Bfn.  Coefficient  Atom+Function         Bfn.  Coefficient  Atom+Function  
  ----- ------------  ---------------      ----- ------------  ---------------
    37     -1.485797  2 H  px                51     -1.485742  3 H  px         
    32      1.388230  2 H  s                 46     -1.388179  3 H  s          
     8     -1.159338  1 O  px                38      1.063672  2 H  py         
    52     -1.063625  3 H  py                11     -0.931097  1 O  px         
    33      0.830145  2 H  s                 47     -0.830128  3 H  s          

 Vector   19  Occ=0.000000D+00  E= 1.452606D+00
              MO Center= -4.2D-05, -5.2D-01, -1.0D-11, r^2= 1.6D+00
   Bfn.  Coefficient  Atom+Function         Bfn.  Coefficient  Atom+Function  
  ----- ------------  ---------------      ----- ------------  ---------------
     4      2.158092  1 O  s                 37      1.088500  2 H  px         
    51     -1.088578  3 H  px                32     -1.000522  2 H  s          
    46     -1.000593  3 H  s                  2      0.899528  1 O  s          
    38     -0.862648  2 H  py                52     -0.862700  3 H  py         
     9     -0.614228  1 O  py                12     -0.373695  1 O  py         

 Vector   20  Occ=0.000000D+00  E= 1.921331D+00
              MO Center=  2.3D-06,  2.2D-02, -1.8D-11, r^2= 1.1D+00
   Bfn.  Coefficient  Atom+Function         Bfn.  Coefficient  Atom+Function  
  ----- ------------  ---------------      ----- ------------  ---------------
    20      1.162649  1 O  d -1              13     -0.711597  1 O  pz         
    39      0.674828  2 H  pz                53      0.674812  3 H  pz         
    41      0.069809  2 H  d -1              55      0.069810  3 H  d -1       
    10     -0.043002  1 O  pz                36     -0.038410  2 H  pz         
    50     -0.038408  3 H  pz         

 Vector   21  Occ=0.000000D+00  E= 1.942262D+00
              MO Center= -2.1D-06,  1.7D-02, -6.9D-11, r^2= 1.1D+00
   Bfn.  Coefficient  Atom+Function         Bfn.  Coefficient  Atom+Function  
  ----- ------------  ---------------      ----- ------------  ---------------
    22      1.224756  1 O  d  1              39      0.608340  2 H  pz         
    53     -0.608361  3 H  pz                36     -0.053795  2 H  pz         
    50      0.053796  3 H  pz                43      0.053497  2 H  d  1       
    57      0.053497  3 H  d  1       

 Vector   22  Occ=0.000000D+00  E= 1.959813D+00
              MO Center= -6.4D-07,  1.1D-01,  7.0D-11, r^2= 1.7D+00
   Bfn.  Coefficient  Atom+Function         Bfn.  Coefficient  Atom+Function  
  ----- ------------  ---------------      ----- ------------  ---------------
    32      4.428002  2 H  s                 46     -4.428041  3 H  s          
    11     -2.784197  1 O  px                 8     -1.756404  1 O  px         
    19      1.730319  1 O  d -2              37     -1.732663  2 H  px         
    51     -1.732676  3 H  px                38      1.250211  2 H  py         
    52     -1.250218  3 H  py                31     -0.416179  2 H  s          

 Vector   23  Occ=0.000000D+00  E= 2.045203D+00
              MO Center= -6.6D-08, -8.1D-02,  8.7D-12, r^2= 1.2D+00
   Bfn.  Coefficient  Atom+Function         Bfn.  Coefficient  Atom+Function  
  ----- ------------  ---------------      ----- ------------  ---------------
     4      2.378966  1 O  s                 32     -1.648346  2 H  s          
    46     -1.648326  3 H  s                 23      1.329333  1 O  d  2       
    38     -0.996567  2 H  py                52     -0.996562  3 H  py         
     9     -0.390414  1 O  py                 2      0.388402  1 O  s          
    12     -0.273664  1 O  py                21     -0.273730  1 O  d  0       

 Vector   24  Occ=0.000000D+00  E= 2.113127D+00
              MO Center= -9.2D-08,  2.1D-01,  5.3D-12, r^2= 1.3D+00
   Bfn.  Coefficient  Atom+Function         Bfn.  Coefficient  Atom+Function  
  ----- ------------  ---------------      ----- ------------  ---------------
     4      6.807841  1 O  s                 32     -4.169939  2 H  s          
    46     -4.169928  3 H  s                 12     -2.747860  1 O  py         
    37      1.521070  2 H  px                51     -1.521064  3 H  px         
    21     -1.450866  1 O  d  0               9     -0.884703  1 O  py         
    38     -0.742533  2 H  py                52     -0.742525  3 H  py         

 Vector   25  Occ=0.000000D+00  E= 2.427270D+00
              MO Center=  1.7D-06, -3.4D-01,  2.3D-11, r^2= 1.2D+00
   Bfn.  Coefficient  Atom+Function         Bfn.  Coefficient  Atom+Function  
  ----- ------------  ---------------      ----- ------------  ---------------
    32      1.524249  2 H  s                 46      1.524243  3 H  s          
    31     -0.950664  2 H  s                 45     -0.950660  3 H  s          
     4     -0.654299  1 O  s                  2     -0.419848  1 O  s          
     9      0.383132  1 O  py                23      0.380228  1 O  d  2       
    12      0.377112  1 O  py                33     -0.352637  2 H  s          

 Vector   26  Occ=0.000000D+00  E= 2.785582D+00
              MO Center= -9.9D-08, -1.8D-01, -2.5D-11, r^2= 1.2D+00
   Bfn.  Coefficient  Atom+Function         Bfn.  Coefficient  Atom+Function  
  ----- ------------  ---------------      ----- ------------  ---------------
    31      0.872490  2 H  s                 45     -0.872491  3 H  s          
    32     -0.738131  2 H  s                 46      0.738133  3 H  s          
    19      0.667545  1 O  d -2              33      0.580433  2 H  s          
    47     -0.580434  3 H  s                  8      0.515362  1 O  px         
    11     -0.507041  1 O  px                 5     -0.335184  1 O  px         

 Vector   27  Occ=0.000000D+00  E= 3.205453D+00
              MO Center=  9.4D-07, -3.5D-01,  1.8D-11, r^2= 1.1D+00
   Bfn.  Coefficient  Atom+Function         Bfn.  Coefficient  Atom+Function  
  ----- ------------  ---------------      ----- ------------  ---------------
    41      0.525597  2 H  d -1              55      0.525596  3 H  d -1       
    43     -0.352054  2 H  d  1              57      0.352053  3 H  d  1       
    20     -0.313841  1 O  d -1              36      0.219554  2 H  pz         
    50      0.219554  3 H  pz                39     -0.211718  2 H  pz         
    53     -0.211718  3 H  pz                 7     -0.140496  1 O  pz         

 Vector   28  Occ=0.000000D+00  E= 3.343857D+00
              MO Center=  1.3D-07, -3.7D-01,  1.2D-11, r^2= 1.1D+00
   Bfn.  Coefficient  Atom+Function         Bfn.  Coefficient  Atom+Function  
  ----- ------------  ---------------      ----- ------------  ---------------
     4      1.080752  1 O  s                 32     -0.884889  2 H  s          
    46     -0.884896  3 H  s                 42     -0.581441  2 H  d  0       
    56     -0.581441  3 H  d  0              12     -0.361538  1 O  py         
    40      0.322019  2 H  d -2              54     -0.322021  3 H  d -2       
    23      0.319580  1 O  d  2              31      0.306175  2 H  s          

 Vector   29  Occ=0.000000D+00  E= 3.430370D+00
              MO Center=  1.3D-06, -5.1D-01,  1.2D-11, r^2= 9.1D-01
[...]
    27      0.471754  1 O  f  0              29     -0.302216  1 O  f  2       
    41      0.295200  2 H  d -1              55      0.295173  3 H  d -1       
    20     -0.281688  1 O  d -1              36      0.240631  2 H  pz         
    50      0.240594  3 H  pz                43      0.222021  2 H  d  1       

 Vector   49  Occ=0.000000D+00  E= 6.568458D+00
              MO Center= -3.3D-05,  6.2D-02,  4.5D-12, r^2= 3.8D-01
   Bfn.  Coefficient  Atom+Function         Bfn.  Coefficient  Atom+Function  
  ----- ------------  ---------------      ----- ------------  ---------------
    17      1.155729  1 O  d  1              22     -0.520767  1 O  d  1       
    25      0.214630  1 O  f -2              43      0.176494  2 H  d  1       
    57      0.176556  3 H  d  1              39     -0.115863  2 H  pz         
    53      0.115879  3 H  pz                36      0.104433  2 H  pz         
    50     -0.104504  3 H  pz                41      0.072987  2 H  d -1       

 Vector   50  Occ=0.000000D+00  E= 6.653007D+00
              MO Center=  7.1D-06, -1.6D-02, -9.9D-13, r^2= 4.8D-01
   Bfn.  Coefficient  Atom+Function         Bfn.  Coefficient  Atom+Function  
  ----- ------------  ---------------      ----- ------------  ---------------
    18      0.986969  1 O  d  2               2     -0.701953  1 O  s          
    24     -0.576741  1 O  f -3               1     -0.534645  1 O  s          
     3      0.404837  1 O  s                 23     -0.361766  1 O  d  2       
    31     -0.326700  2 H  s                 45     -0.326676  3 H  s          
    38      0.312690  2 H  py                52      0.312709  3 H  py         

 Vector   51  Occ=0.000000D+00  E= 6.691286D+00
              MO Center= -1.9D-06,  8.0D-02,  2.1D-12, r^2= 6.3D-01
   Bfn.  Coefficient  Atom+Function         Bfn.  Coefficient  Atom+Function  
  ----- ------------  ---------------      ----- ------------  ---------------
    20      1.071096  1 O  d -1              27      1.021516  1 O  f  0       
    10     -0.915777  1 O  pz                15     -0.615242  1 O  d -1       
    43      0.533444  2 H  d  1              57     -0.533444  3 H  d  1       
    39      0.424617  2 H  pz                53      0.424613  3 H  pz         
    36      0.388925  2 H  pz                50      0.388925  3 H  pz         

 Vector   52  Occ=0.000000D+00  E= 6.720484D+00
              MO Center= -7.2D-06,  2.6D-02, -1.9D-12, r^2= 7.0D-01
   Bfn.  Coefficient  Atom+Function         Bfn.  Coefficient  Atom+Function  
  ----- ------------  ---------------      ----- ------------  ---------------
     8      1.693937  1 O  px                19     -0.836013  1 O  d -2       
    28      0.798249  1 O  f  1              32     -0.765825  2 H  s          
    46      0.765819  3 H  s                 30     -0.746629  1 O  f  3       
    11      0.615563  1 O  px                 5     -0.604906  1 O  px         
    31     -0.562871  2 H  s                 45      0.562886  3 H  s          

 Vector   53  Occ=0.000000D+00  E= 6.827483D+00
              MO Center= -4.6D-07,  1.3D-01, -2.1D-12, r^2= 5.1D-01
   Bfn.  Coefficient  Atom+Function         Bfn.  Coefficient  Atom+Function  
  ----- ------------  ---------------      ----- ------------  ---------------
     4      1.271314  1 O  s                 23     -1.012386  1 O  d  2       
    32     -0.935297  2 H  s                 46     -0.935295  3 H  s          
    16      0.891582  1 O  d  0              12     -0.767417  1 O  py         
     9     -0.652774  1 O  py                21     -0.638341  1 O  d  0       
    24      0.606046  1 O  f -3              37      0.492257  2 H  px         

 Vector   54  Occ=0.000000D+00  E= 6.929802D+00
              MO Center= -1.9D-06,  4.3D-02, -1.3D-12, r^2= 6.9D-01
   Bfn.  Coefficient  Atom+Function         Bfn.  Coefficient  Atom+Function  
  ----- ------------  ---------------      ----- ------------  ---------------
    25      1.266907  1 O  f -2              22      1.131772  1 O  d  1       
    43      0.526199  2 H  d  1              57      0.526207  3 H  d  1       
    36      0.489290  2 H  pz                50     -0.489298  3 H  pz         
    41      0.450071  2 H  d -1              55     -0.450076  3 H  d -1       
    39      0.345707  2 H  pz                53     -0.345712  3 H  pz         

 Vector   55  Occ=0.000000D+00  E= 7.110935D+00
              MO Center= -2.4D-10,  1.0D-01, -7.0D-13, r^2= 6.0D-01
   Bfn.  Coefficient  Atom+Function         Bfn.  Coefficient  Atom+Function  
  ----- ------------  ---------------      ----- ------------  ---------------
     4      1.123332  1 O  s                 23      0.998748  1 O  d  2       
    24     -0.862202  1 O  f -3              21     -0.746166  1 O  d  0       
    16      0.735269  1 O  d  0               2     -0.647731  1 O  s          
    18     -0.528534  1 O  d  2              31     -0.506392  2 H  s          
    45     -0.506393  3 H  s                 44      0.349343  2 H  d  2       

 Vector   56  Occ=0.000000D+00  E= 7.449390D+00
              MO Center= -4.7D-07,  1.0D-01,  7.6D-14, r^2= 6.5D-01
   Bfn.  Coefficient  Atom+Function         Bfn.  Coefficient  Atom+Function  
  ----- ------------  ---------------      ----- ------------  ---------------
    19      1.660944  1 O  d -2              30     -1.068118  1 O  f  3       
     8     -0.940431  1 O  px                31      0.847725  2 H  s          
    45     -0.847731  3 H  s                 11     -0.682813  1 O  px         
    32      0.684300  2 H  s                 46     -0.684295  3 H  s          
    14     -0.675369  1 O  d -2              34     -0.599147  2 H  px         

 Vector   57  Occ=0.000000D+00  E= 7.899202D+00
              MO Center=  2.9D-07, -1.3D-01,  4.5D-12, r^2= 6.2D-01
   Bfn.  Coefficient  Atom+Function         Bfn.  Coefficient  Atom+Function  
  ----- ------------  ---------------      ----- ------------  ---------------
     8      2.751830  1 O  px                32     -2.173436  2 H  s          
    46      2.173434  3 H  s                 14     -1.056483  1 O  d -2       
    19     -0.918035  1 O  d -2              37      0.920368  2 H  px         
    51      0.920367  3 H  px                34      0.882958  2 H  px         
    48      0.882961  3 H  px                38     -0.619941  2 H  py         

 Vector   58  Occ=0.000000D+00  E= 1.226570D+01
              MO Center= -7.7D-07, -1.4D-01, -1.2D-12, r^2= 8.0D-01
   Bfn.  Coefficient  Atom+Function         Bfn.  Coefficient  Atom+Function  
  ----- ------------  ---------------      ----- ------------  ---------------
     2      5.795335  1 O  s                  1      3.728747  1 O  s          
     4      3.536260  1 O  s                 32     -3.542889  2 H  s          
    46     -3.542912  3 H  s                  9     -2.660932  1 O  py         
     3     -2.635354  1 O  s                 37      1.373911  2 H  px         
    51     -1.373920  3 H  px                38     -1.169677  2 H  py         


 center of mass
 --------------
 x =   0.00000000 y =   0.09911481 z =   0.00000000

 moments of inertia (a.u.)
 ------------------
           2.266428026031           0.000005469268           0.000000000000
           0.000005469268           4.155714155453           0.000000000000
           0.000000000000           0.000000000000           6.422142181484

     Multipole analysis of the density
     ---------------------------------

     L   x y z        total         alpha         beta         nuclear
     -   - - -        -----         -----         ----         -------
     0   0 0 0     -0.000000     -5.000000     -5.000000     10.000000

     1   1 0 0     -0.000000     -0.000000     -0.000000      0.000000
     1   0 1 0     -0.803751     -0.401876     -0.401876      0.000000
     1   0 0 1     -0.000000     -0.000000     -0.000000      0.000000

     2   2 0 0     -3.369687     -3.746567     -3.746567      4.123448
     2   1 1 0     -0.000002      0.000002      0.000002     -0.000005
     2   1 0 1      0.000000      0.000000      0.000000      0.000000
     2   0 2 0     -4.738954     -3.382367     -3.382367      2.025780
     2   0 1 1      0.000000      0.000000      0.000000      0.000000
     2   0 0 2     -5.663806     -2.831903     -2.831903      0.000000


int_init: setting std/high accuracies to  1.0D-15  1.0D-30
  int_init: cando_txs set to always be  F
                                NWChem TDDFT Module
                                -------------------


            General Information
            -------------------
           No. of orbitals :     116
            Alpha orbitals :      58
             Beta orbitals :      58
        Alpha frozen cores :       0
         Beta frozen cores :       0
     Alpha frozen virtuals :       0
      Beta frozen virtuals :       0
         Spin multiplicity :       1
    Number of AO functions :      58
        Use of symmetry is : off
      Symmetry adaption is : off
         Schwarz screening :  0.10D-07

              XC Information
              --------------
              Hartree-Fock (Exact) Exchange   1.00          
            LC-BNL 2007 Exchange Functional   0.90 local    
       Lee-Yang-Parr Correlation Functional   1.00          
           Alpha           :  0.00
           Beta            :  1.00
           Gamma           :  0.50

             TDDFT Information
             -----------------
          Calculation type : TDDFT             
         Wavefunction type : Restricted singlets
          No. of electrons :      10
           Alpha electrons :       5
            Beta electrons :       5
              No. of roots :       5
          Max subspacesize :    5000
            Max iterations :     100
               Target root :       1
           Target symmetry : none
      Symmetry restriction : off
                 Algorithm : Disk-based multiple tensor contraction
        Davidson threshold :  0.10D-03

            Memory Information
            ------------------
          Available GA space size is         689973980 doubles
          Available MA space size is         138100868 doubles
          Length of a trial vector is          265
          Estimated peak GA usage is            151196 doubles
          Estimated peak MA usage is           1268000 doubles
          Estimated peak DRA usage is          5300000 doubles

    5 smallest eigenvalue differences (eV) 
--------------------------------------------------------
  No. Spin  Occ  Vir  Irrep   E(Occ)    E(Vir)   E(Diff)
--------------------------------------------------------
    1    1    5    6 a        -0.440     0.111    14.987
    2    1    5    7 a        -0.440     0.175    16.751
    3    1    4    6 a        -0.513     0.111    16.965
    4    1    4    7 a        -0.513     0.175    18.728
    5    1    3    6 a        -0.652     0.111    20.745
--------------------------------------------------------

  Entering Davidson iterations
  Restricted singlet excited states

  Iter   NTrls   NConv    DeltaV     DeltaE      Time   
  ----  ------  ------  ---------  ---------  --------- 
    1      5       0     0.20E+00   0.10+100        1.5
    2     15       0     0.65E-01   0.11E-01        2.4
    3     25       0     0.99E-02   0.84E-03        2.4
    4     35       0     0.17E-02   0.32E-04        2.4
    5     45       4     0.39E-03   0.11E-05        2.4
    6     47       5     0.82E-04   0.30E-07        1.1
  ----  ------  ------  ---------  ---------  --------- 
  Convergence criterion met

  Ground state a         -75.218551087493 a.u.

  ----------------------------------------------------------------------------
  Root   1 singlet a              0.282446117 a.u.                7.6858 eV 
  ----------------------------------------------------------------------------
     Transition Moments    X  0.00000   Y  0.00000   Z -0.41852
     Transition Moments   XX -0.00000  XY -0.00000  XZ -0.00000
     Transition Moments   YY -0.00000  YZ  0.12615  ZZ -0.00000
     Dipole Oscillator Strength                    0.0329819633
     Electric Quadrupole                           0.0000000019
     Magnetic Dipole                               0.0000000330
     Total Oscillator Strength                     0.0329819982

     Occ.    5  a   ---  Virt.    6  a   -0.99530 X
     Occ.    5  a   ---  Virt.    9  a    0.08611 X
  ----------------------------------------------------------------------------
  Root   2 singlet a              0.353212839 a.u.                9.6114 eV 
  ----------------------------------------------------------------------------
     Transition Moments    X  0.00000   Y -0.00000   Z -0.00000
     Transition Moments   XX -0.00000  XY -0.00000  XZ  0.44897
     Transition Moments   YY  0.00000  YZ -0.00000  ZZ -0.00000
     Dipole Oscillator Strength                    0.0000000000
     Electric Quadrupole                           0.0000000473
     Magnetic Dipole                               0.0000001202
     Total Oscillator Strength                     0.0000001675

     Occ.    5  a   ---  Virt.    7  a   -0.98435 X
     Occ.    5  a   ---  Virt.    8  a   -0.14859 X
     Occ.    5  a   ---  Virt.   12  a   -0.09344 X
  ----------------------------------------------------------------------------
  Root   3 singlet a              0.364092129 a.u.                9.9075 eV 
  ----------------------------------------------------------------------------
     Transition Moments    X  0.00000   Y -0.59424   Z -0.00000
     Transition Moments   XX  0.35356  XY -0.00000  XZ -0.00000
     Transition Moments   YY  0.37859  YZ  0.00000  ZZ  0.05062
     Dipole Oscillator Strength                    0.0857119351
     Electric Quadrupole                           0.0000000086
     Magnetic Dipole                               0.0000000000
     Total Oscillator Strength                     0.0857119436

     Occ.    3  a   ---  Virt.    7  a    0.05561 X
     Occ.    4  a   ---  Virt.    6  a   -0.99356 X
     Occ.    4  a   ---  Virt.    9  a    0.07907 X
  ----------------------------------------------------------------------------
  Root   4 singlet a              0.439096868 a.u.               11.9484 eV 
  ----------------------------------------------------------------------------
     Transition Moments    X -0.35789   Y -0.00000   Z  0.00000
     Transition Moments   XX -0.00000  XY  0.63839  XZ  0.00000
     Transition Moments   YY -0.00000  YZ -0.00000  ZZ -0.00000
     Dipole Oscillator Strength                    0.0374952967
     Electric Quadrupole                           0.0000001837
     Magnetic Dipole                               0.0000001772
     Total Oscillator Strength                     0.0374956576

     Occ.    3  a   ---  Virt.    6  a    0.06593 X
     Occ.    4  a   ---  Virt.    7  a   -0.98921 X
     Occ.    4  a   ---  Virt.    8  a   -0.07590 X
     Occ.    4  a   ---  Virt.   12  a   -0.09323 X
  ----------------------------------------------------------------------------
  Root   5 singlet a              0.498122832 a.u.               13.5546 eV 
  ----------------------------------------------------------------------------
     Transition Moments    X -0.80866   Y  0.00000   Z  0.00000
     Transition Moments   XX -0.00000  XY  0.72048  XZ  0.00000
     Transition Moments   YY -0.00000  YZ -0.00000  ZZ -0.00000
     Dipole Oscillator Strength                    0.2171601246
     Electric Quadrupole                           0.0000003417
     Magnetic Dipole                               0.0000000215
     Total Oscillator Strength                     0.2171604877

     Occ.    3  a   ---  Virt.    6  a   -0.99278 X
     Occ.    3  a   ---  Virt.   10  a    0.05287 X
     Occ.    4  a   ---  Virt.    7  a   -0.07102 X
     Occ.    4  a   ---  Virt.    8  a    0.05514 X

              Target root =      1
          Target symmetry = none
      Ground state energy =    -75.218551087493
        Excitation energy =      0.282446116519
     Excited state energy =    -74.936104970973

  stored tddft:energy   -74.936104970973474     

 Task  times  cpu:       12.8s     wall:       12.9s


                                NWChem Input Module
                                -------------------


 Summary of allocated global arrays
-----------------------------------
  No active global arrays



                         GA Statistics for process    0
                         ------------------------------

       create   destroy   get      put      acc     scatter   gather  read&inc
calls: 1007     1007     2.00e+05 9.03e+04 1.53e+05  265        0      993     
number of processes/call 1.07e+00 1.12e+00 1.12e+00 0.00e+00 0.00e+00
bytes total:             2.10e+08 2.98e+07 1.98e+08 6.96e+03 0.00e+00 7.94e+03
bytes remote:            7.51e+07 1.31e+07 6.13e+07 0.00e+00 0.00e+00 0.00e+00
Max memory consumed for GA by this process: 977152 bytes

MA_summarize_allocated_blocks: starting scan ...
heap block 'gridpts', handle 103, address 0x55bfef10a268:
	type of elements:		double precision
	number of elements:		34392098
	address of client space:	0x55bfef10a2c0
	index for client space:		11948139
	total number of bytes:		275136880
MA_summarize_allocated_blocks: scan completed: 1 heap block, 0 stack blocks
MA usage statistics:

	allocation statistics:
					      heap	     stack
					      ----	     -----
	current number of blocks	         1	         0
	maximum number of blocks	        24	        56
	current total bytes		 275136880	         0
	maximum total bytes		 276325096	  22512136
	maximum total K-bytes		    276326	     22513
	maximum total M-bytes		       277	        23


                                     CITATION
                                     --------
                Please cite the following reference when publishing
                           results obtained with NWChem:

                 M. Valiev, E.J. Bylaska, N. Govind, K. Kowalski,
              T.P. Straatsma, H.J.J. van Dam, D. Wang, J. Nieplocha,
                        E. Apra, T.L. Windus, W.A. de Jong
                 "NWChem: a comprehensive and scalable open-source
                  solution for large scale molecular simulations"
                      Comput. Phys. Commun. 181, 1477 (2010)
                           doi:10.1016/j.cpc.2010.04.018

                                      AUTHORS
                                      -------
          E. Apra, E. J. Bylaska, W. A. de Jong, N. Govind, K. Kowalski,
       T. P. Straatsma, M. Valiev, H. J. J. van Dam, D. Wang, T. L. Windus,
        J. Hammond, J. Autschbach, K. Bhaskaran-Nair, J. Brabec, K. Lopata,
    S. A. Fischer, S. Krishnamoorthy, M. Jacquelin, W. Ma, M. Klemm, O. Villa,
      Y. Chen, V. Anisimov, F. Aquino, S. Hirata, M. T. Hackler, V. Konjkov,
            D. Mejia-Rodriguez, T. Risthaus, M. Malagoli, A. Marenich,
   A. Otero-de-la-Roza, J. Mullin, P. Nichols, R. Peverati, J. Pittner, Y. Zhao,
        P.-D. Fan, A. Fonari, M. J. Williamson, R. J. Harrison, J. R. Rehr,
      M. Dupuis, D. Silverstein, D. M. A. Smith, J. Nieplocha, V. Tipparaju,
    M. Krishnan, B. E. Van Kuiken, A. Vazquez-Mayagoitia, L. Jensen, M. Swart,
      Q. Wu, T. Van Voorhis, A. A. Auer, M. Nooijen, L. D. Crosby, E. Brown,
      G. Cisneros, G. I. Fann, H. Fruchtl, J. Garza, K. Hirao, R. A. Kendall,
      J. A. Nichols, K. Tsemekhman, K. Wolinski, J. Anchell, D. E. Bernholdt,
      P. Borowski, T. Clark, D. Clerc, H. Dachsel, M. J. O. Deegan, K. Dyall,
    D. Elwood, E. Glendening, M. Gutowski, A. C. Hess, J. Jaffe, B. G. Johnson,
     J. Ju, R. Kobayashi, R. Kutteh, Z. Lin, R. Littlefield, X. Long, B. Meng,
      T. Nakajima, S. Niu, L. Pollack, M. Rosing, K. Glaesemann, G. Sandrone,
      M. Stave, H. Taylor, G. Thomas, J. H. van Lenthe, A. T. Wong, Z. Zhang.

 Total times  cpu:       15.5s     wall:       15.6s
