 argument  1 = /home/list1234/source/nwchem-6.8.1-release/QA/tests/h3tr1/h3tr1.nw



============================== echo of input deck ==============================
echo
start h3

basis
 h library 3-21G
end

scf
   uhf
   doublet
   thresh 1.0e-6
end

dirdyvtst autosym 0.001
  theory scf
*GENERAL
  TITLE
    Test run: H+H2 reaction, Euler integration, no restart

  ATOMS
    1  H
    2  H
    3  H
  END

*REACT1
   GEOM
     1   0.0   0.0   0.0
     2   0.0   0.0   1.3886144
   END

   SPECIES LINRP

*REACT2

   GEOM
    3    0.0   0.0    190.3612132
   END

   SPECIES  ATOMIC

*PROD2

  GEOM
   1  0.0   0.0 190.3612132
  END

  SPECIES  ATOMIC

*PROD1
  GEOM
   2    0.0   0.0   1.3886144
   3    0.0   0.0   0.0
  END

  SPECIES  LINRP

*START
  GEOM
   1    0.0   0.0  -1.76531973
   2    0.0   0.0   0.0
   3    0.0   0.0   1.76531973
  END

  SPECIES  LINTS

*PATH
   SSTEP  0.01
   SSAVE  0.05
   SLP    0.5
   SLM   -0.5
   SCALEMASS    0.6718993

   INTEGRA EULER

   PRINTFREQ
end

task dirdyvtst
================================================================================


                                         
                                         


              Northwest Computational Chemistry Package (NWChem) 6.8
              ------------------------------------------------------


                    Environmental Molecular Sciences Laboratory
                       Pacific Northwest National Laboratory
                                Richland, WA 99352

                              Copyright (c) 1994-2018
                       Pacific Northwest National Laboratory
                            Battelle Memorial Institute

             NWChem is an open-source computational chemistry package
                        distributed under the terms of the
                      Educational Community License (ECL) 2.0
             A copy of the license is included with this distribution
                              in the LICENSE.TXT file

                                  ACKNOWLEDGMENT
                                  --------------

            This software and its documentation were developed at the
            EMSL at Pacific Northwest National Laboratory, a multiprogram
            national laboratory, operated for the U.S. Department of Energy
            by Battelle under Contract Number DE-AC05-76RL01830. Support
            for this work was provided by the Department of Energy Office
            of Biological and Environmental Research, Office of Basic
            Energy Sciences, and the Office of Advanced Scientific Computing.


           Job information
           ---------------

    hostname        = list1234-B360M-H
    program         = /home/list1234/source/nwchem-6.8.1-release/bin/LINUX64/nwchem
    date            = Sun Jun 30 07:58:08 2019

    compiled        = Sun_Jun_30_05:21:11_2019
    source          = /home/list1234/source/nwchem-6.8.1-release
    nwchem branch   = Development
    nwchem revision = N/A
    ga revision     = 5.6.5
    use scalapack   = T
    input           = /home/list1234/source/nwchem-6.8.1-release/QA/tests/h3tr1/h3tr1.nw
    prefix          = h3.
    data base       = ./h3.db
    status          = startup
    nproc           =        4
    time left       =     -1s



           Memory information
           ------------------

    heap     =   86247168 doubles =    658.0 Mbytes
    stack    =   86247165 doubles =    658.0 Mbytes
    global   =  172494336 doubles =   1316.0 Mbytes (distinct from heap & stack)
    total    =  344988669 doubles =   2632.1 Mbytes
    verify   = yes
    hardfail = no 


           Directory information
           ---------------------

  0 permanent = .
  0 scratch   = .




                                NWChem Input Module
                                -------------------


                      Basis "ao basis" -> "" (cartesian)
                      -----
  h (Hydrogen)
  ------------
            Exponent  Coefficients 
       -------------- ---------------------------------------------------------
  1 S  5.44717800E+00  0.156285
  1 S  8.24547000E-01  0.904691

  2 S  1.83192000E-01  1.000000



 Summary of "ao basis" -> "" (cartesian)
 ------------------------------------------------------------------------------
       Tag                 Description            Shells   Functions and Types
 ---------------- ------------------------------  ------  ---------------------
 h                           3-21G                   2        2   2s




 DIRDYVTST - DiRect DYnamics for Variational Transition State Theory with the NWChem  electronic structure code

     This code prepares the file30 input for POLYRATE from electronic structure calculations of gradients
     hessians at the reactant, product, and saddle point geometries, and along the minimum energy path.
     Cartesian geometries for the reactants, products, and saddle points need to be input to this code;
     optimization for these geometries is not performed in the code.  Points along the minimum energy path
     are calculated here.

 Options, lgs=
   1 1 0 0 0 1 0 0 0 0 0 0 0 0 0 0 0 0 0 0 0 0 0 0 0 0 0 0 0 0 1 0 0 0 0 0 0 0 0

           Note that only lgs 1,2,6,8,27,31,38,39 are used.

     lgs( 1)= 1, saddle point; MEP started along unbound eigenvector
     lgs( 2)= 1, print frequencies and eigenvectors at save points along MEP
     lgs( 6)= 1,  2, reactants,  2, products
     lgs( 8)= 0, no restart
     lgs(27)= 0, use original direction of unbound eigenvector at saddle point
     lgs(31)= 1, MEP calculation uses euler integrator
     lgs(38)= 0, No electronic structure files saved
     lgs(39)= 0, No single point calculation  performed


 Title:
     Test run: H+H2 reaction, Euler integration, no restart                      


 Number of atoms =     3


 Masses
                                  amu             a.u.            kg
     Mass of atom  1           1.007825      1837.108749   1.673231E-27
     Mass of atom  2           1.007825      1837.108749   1.673231E-27
     Mass of atom  3           1.007825      1837.108749   1.673231E-27
     Forward reduced mass      0.671899      1224.768271   1.115514E-27


 Reactants

     Input geometry (cartesian coordinates in au)
      atom            x             y             z
        1          0.00000       0.00000       0.00000
        2          0.00000       0.00000       1.38861
        3          0.00000       0.00000     190.36121

     Species 1 consists of atom(s):    1  2
          icode=    3

     Species 2 consists of atom(s):    3
          icode=    1


 Products

     Input geometry (cartesian coordinates in au)
      atom            x             y             z
        1          0.00000       0.00000     190.36121
        2          0.00000       0.00000       1.38861
        3          0.00000       0.00000       0.00000

     Species 3 consists of atom(s):    2  3
          icode=    3

     Species 4 consists of atom(s):    1
          icode=    1


 Saddle point or starting geometry on MEP

     Input geometry (cartesian coordinates in au)
      atom            x             y             z
        1          0.00000       0.00000      -1.76532
        2          0.00000       0.00000       0.00000
        3          0.00000       0.00000       1.76532
          icode=    3

 Mass scaled coordinates, rotated so principle axes are aligned

     Reactants
      atom            x             y             z
        1          0.00000       0.00000     -78.28061
        2          0.00000       0.00000     -76.57993
        3          0.00000       0.00000     154.86054

     Products
      atom            x             y             z
        1          0.00000       0.00000    -154.86054
        2          0.00000       0.00000      76.57993
        3          0.00000       0.00000      78.28061

     Saddle point or starting geometry on MEP
      atom            x             y             z
        1          0.00000       0.00000      -2.16204
        2          0.00000       0.00000       0.00000
        3          0.00000       0.00000       2.16204


 Parameters for MEP calculation

     Step size, dels=  0.010000
     Interval for saving Hessian data, delsv =  0.050000
     Interval for computing Hessian data, delhss =  0.050000
     Path also stopped if s .gt.  0.500000 or s .lt. -0.500000


 ********** Reactants

 Geometry in mass-scaled cartesians (bohrs):

                 x               y               z
   1        0.000000E+00    0.000000E+00   -7.828061E+01
   2        0.000000E+00    0.000000E+00   -7.657993E+01
   3        0.000000E+00    0.000000E+00    1.548605E+02
 Symmetry group is C4V
 SCF residual:    1.2121617440664422E-008

 Derivative Dipole

  
  
 X vector of derivative dipole (au) [debye/angstrom]
 d_dipole_x/<atom=   1,x> =    -0.0000     [   -0.0000]
 d_dipole_x/<atom=   1,y> =     0.0000     [    0.0000]
 d_dipole_x/<atom=   1,z> =     0.0000     [    0.0000]
 d_dipole_x/<atom=   2,x> =     0.0000     [    0.0000]
 d_dipole_x/<atom=   2,y> =     0.0000     [    0.0000]
 d_dipole_x/<atom=   2,z> =     0.0000     [    0.0000]
 d_dipole_x/<atom=   3,x> =    -0.0000     [   -0.0000]
 d_dipole_x/<atom=   3,y> =     0.0000     [    0.0000]
 d_dipole_x/<atom=   3,z> =     0.0000     [    0.0000]
  
 Y vector of derivative dipole (au) [debye/angstrom]
 d_dipole_y/<atom=   1,x> =     0.0000     [    0.0000]
 d_dipole_y/<atom=   1,y> =    -0.0000     [   -0.0000]
 d_dipole_y/<atom=   1,z> =     0.0000     [    0.0000]
 d_dipole_y/<atom=   2,x> =     0.0000     [    0.0000]
 d_dipole_y/<atom=   2,y> =     0.0000     [    0.0000]
 d_dipole_y/<atom=   2,z> =     0.0000     [    0.0000]
 d_dipole_y/<atom=   3,x> =     0.0000     [    0.0000]
 d_dipole_y/<atom=   3,y> =    -0.0000     [   -0.0000]
 d_dipole_y/<atom=   3,z> =     0.0000     [    0.0000]
  
 Z vector of derivative dipole (au) [debye/angstrom]
 d_dipole_z/<atom=   1,x> =     0.0000     [    0.0000]
 d_dipole_z/<atom=   1,y> =     0.0000     [    0.0000]
 d_dipole_z/<atom=   1,z> =    -0.0000     [   -0.0000]
 d_dipole_z/<atom=   2,x> =     0.0000     [    0.0000]
 d_dipole_z/<atom=   2,y> =     0.0000     [    0.0000]
 d_dipole_z/<atom=   2,z> =     0.0000     [    0.0000]
 d_dipole_z/<atom=   3,x> =     0.0000     [    0.0000]
 d_dipole_z/<atom=   3,y> =     0.0000     [    0.0000]
 d_dipole_z/<atom=   3,z> =     0.0000     [    0.0000]
  
  

 Potential energy=  -1.6191584449E+00 Hartree= -1.01604E+03 kcal/mol

 Derivatives in mass-scaled cartesians (au):
   1        0.000000E+00    0.000000E+00   -4.572111E-08
   2        0.000000E+00    0.000000E+00    4.572111E-08
   3        0.000000E+00    0.000000E+00   -8.918973E-17

 Reactant species    1

 Eigenvalues and eigenvectors of hessian

                       m=       1            2            3            4            5            6
  Eigenvalues (au)=           0.551477     0.000000     0.000000     0.000000     0.000000     0.000000
  Frequencies (cm^-1)=     4657.160549     1.454672     1.454672     0.000200     0.000184     0.000032
  Eigenvectors=
                        1     0.000000     0.000000    -0.707107    -0.000000     0.707107     0.000000
                        2     0.000000     0.707107     0.000000     0.707107     0.000000     0.000000
                        3    -0.707107     0.000000     0.000000    -0.000000     0.000000     0.707107
                        4     0.000000     0.000000     0.707107     0.000000     0.707107     0.000000
                        5     0.000000    -0.707107     0.000000     0.707107    -0.000000    -0.000000
                        6     0.707107     0.000000     0.000000     0.000000     0.000000     0.707107
  

 Reactant species    2 is an atom


 ********** Products

 Geometry in mass-scaled cartesians (bohrs):

                 x               y               z
   1        0.000000E+00    0.000000E+00   -1.548605E+02
   2        0.000000E+00    0.000000E+00    7.657993E+01
   3        0.000000E+00    0.000000E+00    7.828061E+01
 Symmetry group is C4V
 SCF residual:    1.2121618031515727E-008

 Derivative Dipole

  
  
 X vector of derivative dipole (au) [debye/angstrom]
 d_dipole_x/<atom=   1,x> =    -0.0000     [   -0.0000]
 d_dipole_x/<atom=   1,y> =     0.0000     [    0.0000]
 d_dipole_x/<atom=   1,z> =     0.0000     [    0.0000]
 d_dipole_x/<atom=   2,x> =    -0.0000     [   -0.0000]
 d_dipole_x/<atom=   2,y> =     0.0000     [    0.0000]
 d_dipole_x/<atom=   2,z> =     0.0000     [    0.0000]
 d_dipole_x/<atom=   3,x> =     0.0000     [    0.0000]
 d_dipole_x/<atom=   3,y> =     0.0000     [    0.0000]
 d_dipole_x/<atom=   3,z> =     0.0000     [    0.0000]
  
 Y vector of derivative dipole (au) [debye/angstrom]
 d_dipole_y/<atom=   1,x> =     0.0000     [    0.0000]
 d_dipole_y/<atom=   1,y> =    -0.0000     [   -0.0000]
 d_dipole_y/<atom=   1,z> =     0.0000     [    0.0000]
 d_dipole_y/<atom=   2,x> =     0.0000     [    0.0000]
 d_dipole_y/<atom=   2,y> =    -0.0000     [   -0.0000]
 d_dipole_y/<atom=   2,z> =     0.0000     [    0.0000]
 d_dipole_y/<atom=   3,x> =     0.0000     [    0.0000]
 d_dipole_y/<atom=   3,y> =     0.0000     [    0.0000]
 d_dipole_y/<atom=   3,z> =     0.0000     [    0.0000]
  
 Z vector of derivative dipole (au) [debye/angstrom]
 d_dipole_z/<atom=   1,x> =     0.0000     [    0.0000]
 d_dipole_z/<atom=   1,y> =     0.0000     [    0.0000]
 d_dipole_z/<atom=   1,z> =     0.0000     [    0.0000]
 d_dipole_z/<atom=   2,x> =     0.0000     [    0.0000]
 d_dipole_z/<atom=   2,y> =     0.0000     [    0.0000]
 d_dipole_z/<atom=   2,z> =     0.0000     [    0.0000]
 d_dipole_z/<atom=   3,x> =     0.0000     [    0.0000]
 d_dipole_z/<atom=   3,y> =     0.0000     [    0.0000]
 d_dipole_z/<atom=   3,z> =     0.0000     [    0.0000]
  
  

 Potential energy=  -1.6191584449E+00 Hartree= -1.01604E+03 kcal/mol

 Derivatives in mass-scaled cartesians (au):
   1        0.000000E+00    0.000000E+00    7.442806E-17
   2        0.000000E+00    0.000000E+00   -4.572096E-08
   3        0.000000E+00    0.000000E+00    4.572096E-08

 Product species     1

 Eigenvalues and eigenvectors of hessian

                       m=       1            2            3            4            5            6
  Eigenvalues (au)=           0.551477     0.000000     0.000000     0.000000     0.000000    -0.000000
  Frequencies (cm^-1)=     4657.160549     1.454670     1.454670     0.000175     0.000172    -0.000042
  Eigenvectors=
                        1     0.000000     0.000000    -0.707107     0.000000    -0.707107     0.000000
                        2     0.000000     0.707107    -0.000000    -0.707007     0.000000    -0.011903
                        3     0.707107     0.000000     0.000000     0.011903     0.000000    -0.707007
                        4     0.000000    -0.000000     0.707107     0.000000    -0.707107     0.000000
                        5    -0.000000    -0.707107     0.000000    -0.707007     0.000000    -0.011903
                        6    -0.707107     0.000000     0.000000     0.011903     0.000000    -0.707007
  

 Product species     2 is an atom


 ********** Saddle point or starting point

 Geometry in mass-scaled cartesians (bohrs):

                 x               y               z
   1        0.000000E+00    0.000000E+00   -2.162041E+00
   2        0.000000E+00    0.000000E+00    0.000000E+00
   3        0.000000E+00    0.000000E+00    2.162041E+00
 Symmetry group is D4H
 SCF residual:    8.7218180538135239E-007

 Derivative Dipole

  
  
 X vector of derivative dipole (au) [debye/angstrom]
 d_dipole_x/<atom=   1,x> =     0.0390     [    0.1872]
 d_dipole_x/<atom=   1,y> =     0.0000     [    0.0000]
 d_dipole_x/<atom=   1,z> =     0.0000     [    0.0000]
 d_dipole_x/<atom=   2,x> =    -0.0779     [   -0.3744]
 d_dipole_x/<atom=   2,y> =     0.0000     [    0.0000]
 d_dipole_x/<atom=   2,z> =     0.0000     [    0.0000]
 d_dipole_x/<atom=   3,x> =     0.0390     [    0.1872]
 d_dipole_x/<atom=   3,y> =     0.0000     [    0.0000]
 d_dipole_x/<atom=   3,z> =     0.0000     [    0.0000]
  
 Y vector of derivative dipole (au) [debye/angstrom]
 d_dipole_y/<atom=   1,x> =     0.0000     [    0.0000]
 d_dipole_y/<atom=   1,y> =     0.0390     [    0.1872]
 d_dipole_y/<atom=   1,z> =     0.0000     [    0.0000]
 d_dipole_y/<atom=   2,x> =     0.0000     [    0.0000]
 d_dipole_y/<atom=   2,y> =    -0.0779     [   -0.3744]
 d_dipole_y/<atom=   2,z> =     0.0000     [    0.0000]
 d_dipole_y/<atom=   3,x> =     0.0000     [    0.0000]
 d_dipole_y/<atom=   3,y> =     0.0390     [    0.1872]
 d_dipole_y/<atom=   3,z> =     0.0000     [    0.0000]
  
 Z vector of derivative dipole (au) [debye/angstrom]
 d_dipole_z/<atom=   1,x> =     0.0000     [    0.0000]
 d_dipole_z/<atom=   1,y> =     0.0000     [    0.0000]
 d_dipole_z/<atom=   1,z> =    -0.0860     [   -0.4130]
 d_dipole_z/<atom=   2,x> =     0.0000     [    0.0000]
 d_dipole_z/<atom=   2,y> =     0.0000     [    0.0000]
 d_dipole_z/<atom=   2,z> =     0.1720     [    0.8261]
 d_dipole_z/<atom=   3,x> =     0.0000     [    0.0000]
 d_dipole_z/<atom=   3,y> =     0.0000     [    0.0000]
 d_dipole_z/<atom=   3,z> =    -0.0860     [   -0.4130]
  
  

 Potential energy=  -1.5920744789E+00 Hartree= -9.99042E+02 kcal/mol

 Derivatives in mass-scaled cartesians (au):
   1        0.000000E+00    0.000000E+00   -2.370965E-08
   2        0.000000E+00    0.000000E+00   -1.133130E-17
   3        0.000000E+00    0.000000E+00    2.370965E-08

 Eigenvalues and eigenvectors of hessian

                       m=       1            2            3            4            5            6
  Eigenvalues (au)=           0.107368     0.031975     0.031975    -0.133584     0.000000    -0.000000
  Frequencies (cm^-1)=     2054.917086  1121.408586  1121.408586 -2292.103142     0.656861    -0.003966
  Eigenvectors=
                        1    -0.000000     0.272084     0.304363    -0.000000     0.122936    -0.385033
                        2    -0.000000     0.304363    -0.272084     0.000000    -0.696338    -0.430213
                        3     0.707107     0.000000     0.000000     0.408248    -0.000000     0.000002
                        4     0.000000    -0.544168    -0.608726     0.000000     0.000000    -0.385033
                        5    -0.000000    -0.608726     0.544168    -0.000000     0.000000    -0.430213
                        6     0.000000     0.000000     0.000000    -0.816497    -0.000000     0.000002
                        7     0.000000     0.272084     0.304363     0.000000    -0.122936    -0.385033
                        8     0.000000     0.304363    -0.272084     0.000000     0.696338    -0.430213
                        9    -0.707107    -0.000000    -0.000000     0.408248    -0.000000     0.000002
  

                       m=       7            8            9
  Eigenvalues (au)=          -0.000000    -0.000000     0.000000
  Frequencies (cm^-1)=       -0.003966    -0.007242     0.656861
  Eigenvectors=
                        1    -0.430213    -0.000000    -0.696338
                        2     0.385033    -0.000003    -0.122936
                        3    -0.000002    -0.577350    -0.000000
                        4    -0.430213    -0.000000     0.000000
                        5     0.385033    -0.000003     0.000000
                        6    -0.000002    -0.577350    -0.000000
                        7    -0.430213    -0.000000     0.696338
                        8     0.385033    -0.000003     0.122936
                        9    -0.000002    -0.577350    -0.000000
  


 Set up to take first step off saddle point

 Vector for initial step off saddle point=
                                     0.0000  -0.0000  -0.4082  -0.0000   0.0000   0.8165  -0.0000  -0.0000  -0.4082


 ********** Calculate points along reaction path

      dels=          1.00000E-02
      delsv=         5.00000E-02
      delhss=        5.00000E-02
      dir=           1.00000E+00
      slm=          -5.00000E-01
      slp=           5.00000E-01

 Path followed using Euler integrator

 Take step from saddle point in reactant direction

  All quantities in atomic units, x is vector of mass-weighted coordinates,
  dx is the normalized mass-weighted gradient vector, and |dV/x| is the magnitude of the gradient
         s       V,|dV/dx|
        0.00000  2.70840E-02    x=   0.0000   0.0000  -2.1620   0.0000   0.0000   0.0000   0.0000   0.0000   2.1620
                 0.00000E+00   dx=   0.0000  -0.0000  -0.4082  -0.0000   0.0000   0.8165  -0.0000  -0.0000  -0.4082
 Symmetry group is C4V
       -0.01000  2.70773E-02    x=  -0.0000   0.0000  -2.1580   0.0000  -0.0000  -0.0082   0.0000   0.0000   2.1661
                 1.33475E-03   dx=   0.0000   0.0000  -0.3973   0.0000   0.0000   0.8164   0.0000   0.0000  -0.4191
 Symmetry group is C4V
       -0.02000  2.70573E-02    x=  -0.0000   0.0000  -2.1540   0.0000  -0.0000  -0.0163  -0.0000   0.0000   2.1703
                 2.66371E-03   dx=   0.0000   0.0000  -0.3907   0.0000   0.0000   0.8162   0.0000   0.0000  -0.4255
 Symmetry group is C4V
       -0.03000  2.70241E-02    x=  -0.0000   0.0000  -2.1501   0.0000  -0.0000  -0.0245  -0.0000   0.0000   2.1746
                 3.98127E-03   dx=   0.0000   0.0000  -0.3828   0.0000   0.0000   0.8160   0.0000   0.0000  -0.4331
 Symmetry group is C4V
       -0.04000  2.69777E-02    x=  -0.0000   0.0000  -2.1462   0.0000  -0.0000  -0.0327  -0.0000   0.0000   2.1789
                 5.28180E-03   dx=   0.0000   0.0000  -0.3748   0.0000   0.0000   0.8156   0.0000   0.0000  -0.4409
 Symmetry group is C4V
 SCF residual:    8.6466299821728223E-008

 Derivative Dipole

  
  
 X vector of derivative dipole (au) [debye/angstrom]
 d_dipole_x/<atom=   1,x> =     0.0423     [    0.2032]
 d_dipole_x/<atom=   1,y> =     0.0000     [    0.0000]
 d_dipole_x/<atom=   1,z> =     0.0000     [    0.0000]
 d_dipole_x/<atom=   2,x> =    -0.0776     [   -0.3726]
 d_dipole_x/<atom=   2,y> =     0.0000     [    0.0000]
 d_dipole_x/<atom=   2,z> =     0.0000     [    0.0000]
 d_dipole_x/<atom=   3,x> =     0.0353     [    0.1694]
 d_dipole_x/<atom=   3,y> =     0.0000     [    0.0000]
 d_dipole_x/<atom=   3,z> =     0.0000     [    0.0000]
  
 Y vector of derivative dipole (au) [debye/angstrom]
 d_dipole_y/<atom=   1,x> =     0.0000     [    0.0000]
 d_dipole_y/<atom=   1,y> =     0.0423     [    0.2032]
 d_dipole_y/<atom=   1,z> =     0.0000     [    0.0000]
 d_dipole_y/<atom=   2,x> =     0.0000     [    0.0000]
 d_dipole_y/<atom=   2,y> =    -0.0776     [   -0.3726]
 d_dipole_y/<atom=   2,z> =     0.0000     [    0.0000]
 d_dipole_y/<atom=   3,x> =     0.0000     [    0.0000]
 d_dipole_y/<atom=   3,y> =     0.0353     [    0.1694]
 d_dipole_y/<atom=   3,z> =     0.0000     [    0.0000]
  
 Z vector of derivative dipole (au) [debye/angstrom]
 d_dipole_z/<atom=   1,x> =     0.0000     [    0.0000]
 d_dipole_z/<atom=   1,y> =     0.0000     [    0.0000]
 d_dipole_z/<atom=   1,z> =    -0.1043     [   -0.5008]
 d_dipole_z/<atom=   2,x> =     0.0000     [    0.0000]
 d_dipole_z/<atom=   2,y> =     0.0000     [    0.0000]
 d_dipole_z/<atom=   2,z> =     0.1699     [    0.8158]
 d_dipole_z/<atom=   3,x> =     0.0000     [    0.0000]
 d_dipole_z/<atom=   3,y> =     0.0000     [    0.0000]
 d_dipole_z/<atom=   3,z> =    -0.0656     [   -0.3151]
  
  
       -0.05000  2.69185E-02    x=  -0.0000   0.0000  -2.1425   0.0000  -0.0000  -0.0408  -0.0000   0.0000   2.1833
                 6.55986E-03   dx=   0.0000   0.0000  -0.3665   0.0000   0.0000   0.8151   0.0000   0.0000  -0.4486

 Eigenvalues and eigenvectors of hessian

                       m=       1            2            3            4            5            6
  Eigenvalues (au)=           0.109900     0.031662     0.031662     0.000000     0.000000     0.000000
  Frequencies (cm^-1)=     2079.007829  1115.895582  1115.895582     0.000037     0.000021     0.000013
  Eigenvectors=
                        1    -0.000000     0.017502     0.419381     0.020430     0.335728    -0.614290
                        2     0.000000    -0.419381     0.017502    -0.100286    -0.606806    -0.334974
                        3     0.729631     0.000000    -0.000000    -0.362542     0.051144     0.015894
                        4     0.000000    -0.034040    -0.815678     0.000389     0.006394    -0.011703
                        5     0.000000     0.815678    -0.034040    -0.001909    -0.011557    -0.006378
                        6    -0.047438     0.000000    -0.000000     0.806366    -0.113754    -0.035352
                        7     0.000000     0.016538     0.396297    -0.020820    -0.342123     0.625985
                        8    -0.000000    -0.396297     0.016538     0.102199     0.618365     0.341357
                        9    -0.682194     0.000000    -0.000000    -0.443824     0.062610     0.019457
  

                       m=       7            8            9
  Eigenvalues (au)=          -0.000000    -0.000000    -0.000000
  Frequencies (cm^-1)=       -0.007316    -0.007316    -2.259517
  Eigenvectors=
                        1    -0.388123    -0.427424    -0.000000
                        2    -0.427427     0.388126    -0.000000
                        3    -0.000000     0.000001     0.577350
                        4    -0.388123    -0.427427     0.000000
                        5    -0.427427     0.388123     0.000000
                        6     0.000001    -0.000001     0.577350
                        7    -0.388124    -0.427430     0.000000
                        8    -0.427427     0.388121     0.000000
                        9    -0.000001     0.000001     0.577350
  
 Symmetry group is C4V
       -0.06000  2.68466E-02    x=  -0.0000   0.0000  -2.1388   0.0000  -0.0000  -0.0490  -0.0000   0.0000   2.1878
                 7.81019E-03   dx=   0.0000   0.0000  -0.3580   0.0000   0.0000   0.8145   0.0000   0.0000  -0.4565
 Symmetry group is C4V
       -0.07000  2.67624E-02    x=  -0.0000   0.0000  -2.1353   0.0000  -0.0000  -0.0571  -0.0000   0.0000   2.1924
                 9.02771E-03   dx=   0.0000   0.0000  -0.3493   0.0000   0.0000   0.8138   0.0000   0.0000  -0.4645
 Symmetry group is C4V
       -0.08000  2.66662E-02    x=  -0.0000   0.0000  -2.1318   0.0000  -0.0000  -0.0652  -0.0000   0.0000   2.1970
                 1.02076E-02   dx=   0.0000   0.0000  -0.3403   0.0000   0.0000   0.8129   0.0000   0.0000  -0.4726
 Symmetry group is C4V
       -0.09000  2.65584E-02    x=  -0.0000   0.0000  -2.1284   0.0000  -0.0000  -0.0734  -0.0000   0.0000   2.2017
                 1.13455E-02   dx=   0.0000   0.0000  -0.3310   0.0000   0.0000   0.8119   0.0000   0.0000  -0.4809
 Symmetry group is C4V
 SCF residual:    4.0497513667410224E-008

 Derivative Dipole

  
  
 X vector of derivative dipole (au) [debye/angstrom]
 d_dipole_x/<atom=   1,x> =     0.0451     [    0.2167]
 d_dipole_x/<atom=   1,y> =     0.0000     [    0.0000]
 d_dipole_x/<atom=   1,z> =     0.0000     [    0.0000]
 d_dipole_x/<atom=   2,x> =    -0.0764     [   -0.3672]
 d_dipole_x/<atom=   2,y> =     0.0000     [    0.0000]
 d_dipole_x/<atom=   2,z> =     0.0000     [    0.0000]
 d_dipole_x/<atom=   3,x> =     0.0313     [    0.1505]
 d_dipole_x/<atom=   3,y> =     0.0000     [    0.0000]
 d_dipole_x/<atom=   3,z> =     0.0000     [    0.0000]
  
 Y vector of derivative dipole (au) [debye/angstrom]
 d_dipole_y/<atom=   1,x> =     0.0000     [    0.0000]
 d_dipole_y/<atom=   1,y> =     0.0451     [    0.2167]
 d_dipole_y/<atom=   1,z> =     0.0000     [    0.0000]
 d_dipole_y/<atom=   2,x> =     0.0000     [    0.0000]
 d_dipole_y/<atom=   2,y> =    -0.0764     [   -0.3672]
 d_dipole_y/<atom=   2,z> =     0.0000     [    0.0000]
 d_dipole_y/<atom=   3,x> =     0.0000     [    0.0000]
 d_dipole_y/<atom=   3,y> =     0.0313     [    0.1505]
 d_dipole_y/<atom=   3,z> =     0.0000     [    0.0000]
  
 Z vector of derivative dipole (au) [debye/angstrom]
 d_dipole_z/<atom=   1,x> =     0.0000     [    0.0000]
 d_dipole_z/<atom=   1,y> =     0.0000     [    0.0000]
 d_dipole_z/<atom=   1,z> =    -0.1194     [   -0.5734]
 d_dipole_z/<atom=   2,x> =     0.0000     [    0.0000]
 d_dipole_z/<atom=   2,y> =     0.0000     [    0.0000]
 d_dipole_z/<atom=   2,z> =     0.1634     [    0.7850]
 d_dipole_z/<atom=   3,x> =     0.0000     [    0.0000]
 d_dipole_z/<atom=   3,y> =     0.0000     [    0.0000]
 d_dipole_z/<atom=   3,z> =    -0.0440     [   -0.2116]
  
  
       -0.10000  2.64394E-02    x=  -0.0000   0.0000  -2.1251   0.0000  -0.0000  -0.0815  -0.0000   0.0000   2.2065
                 1.24370E-02   dx=   0.0000   0.0000  -0.3214   0.0000   0.0000   0.8107   0.0000   0.0000  -0.4893

 Eigenvalues and eigenvectors of hessian

                       m=       1            2            3            4            5            6
  Eigenvalues (au)=           0.117792     0.030707     0.030707     0.000000     0.000000     0.000000
  Frequencies (cm^-1)=     2152.360865  1098.953742  1098.953742     0.013491     0.013491     0.000009
  Eigenvectors=
                        1     0.000000     0.001372    -0.431058    -0.163249    -0.553790     0.662659
                        2    -0.000000    -0.431058    -0.001372     0.553790    -0.163249    -0.199510
                        3     0.750570     0.000000    -0.000000     0.000000    -0.000000     0.020375
                        4    -0.000000    -0.002597     0.816059    -0.163249    -0.553790     0.025411
                        5    -0.000000     0.816059     0.002597     0.553790    -0.163249    -0.007650
                        6    -0.096927    -0.000000     0.000000    -0.000001     0.000000    -0.051393
                        7    -0.000000     0.001225    -0.385001    -0.163249    -0.553789    -0.688070
                        8     0.000000    -0.385001    -0.001225     0.553789    -0.163248     0.207161
                        9    -0.653644    -0.000000    -0.000000     0.000000    -0.000000     0.031018
  

                       m=       7            8            9
  Eigenvalues (au)=          -0.000000    -0.000000    -0.000000
  Frequencies (cm^-1)=       -0.000011    -0.000022    -3.497733
  Eigenvectors=
                        1    -0.192070    -0.069609    -0.000000
                        2    -0.557575    -0.360774     0.000000
                        3     0.169087    -0.272591     0.577350
                        4    -0.007365    -0.002669    -0.000000
                        5    -0.021381    -0.013834    -0.000000
                        6    -0.426490     0.687559     0.577350
                        7     0.199436     0.072278     0.000000
                        8     0.578957     0.374610    -0.000000
                        9     0.257403    -0.414968     0.577350
  
 Symmetry group is C4V
       -0.11000  2.63098E-02    x=  -0.0000   0.0000  -2.1218   0.0000  -0.0000  -0.0896  -0.0000   0.0000   2.2114
                 1.34783E-02   dx=   0.0000   0.0000  -0.3114   0.0000   0.0000   0.8094   0.0000   0.0000  -0.4979
 Symmetry group is C4V
       -0.12000  2.61701E-02    x=  -0.0000   0.0000  -2.1187   0.0000  -0.0000  -0.0977  -0.0000   0.0000   2.2164
                 1.44661E-02   dx=   0.0000   0.0000  -0.3011   0.0000   0.0000   0.8078   0.0000   0.0000  -0.5067
 Symmetry group is C4V
       -0.13000  2.60207E-02    x=  -0.0000   0.0000  -2.1157   0.0000  -0.0000  -0.1058  -0.0000   0.0000   2.2215
                 1.53974E-02   dx=   0.0000   0.0000  -0.2903   0.0000   0.0000   0.8060   0.0000   0.0000  -0.5158
 Symmetry group is C4V
       -0.14000  2.58623E-02    x=  -0.0000   0.0000  -2.1128   0.0000  -0.0000  -0.1138  -0.0000   0.0000   2.2266
                 1.62697E-02   dx=   0.0000   0.0000  -0.2790   0.0000   0.0000   0.8040   0.0000   0.0000  -0.5251
 Symmetry group is C4V
 SCF residual:    1.4271866279742045E-008

 Derivative Dipole

  
  
 X vector of derivative dipole (au) [debye/angstrom]
 d_dipole_x/<atom=   1,x> =     0.0473     [    0.2270]
 d_dipole_x/<atom=   1,y> =     0.0000     [    0.0000]
 d_dipole_x/<atom=   1,z> =     0.0000     [    0.0000]
 d_dipole_x/<atom=   2,x> =    -0.0746     [   -0.3584]
 d_dipole_x/<atom=   2,y> =     0.0000     [    0.0000]
 d_dipole_x/<atom=   2,z> =     0.0000     [    0.0000]
 d_dipole_x/<atom=   3,x> =     0.0274     [    0.1314]
 d_dipole_x/<atom=   3,y> =     0.0000     [    0.0000]
 d_dipole_x/<atom=   3,z> =     0.0000     [    0.0000]
  
 Y vector of derivative dipole (au) [debye/angstrom]
 d_dipole_y/<atom=   1,x> =     0.0000     [    0.0000]
 d_dipole_y/<atom=   1,y> =     0.0473     [    0.2270]
 d_dipole_y/<atom=   1,z> =     0.0000     [    0.0000]
 d_dipole_y/<atom=   2,x> =     0.0000     [    0.0000]
 d_dipole_y/<atom=   2,y> =    -0.0746     [   -0.3584]
 d_dipole_y/<atom=   2,z> =     0.0000     [    0.0000]
 d_dipole_y/<atom=   3,x> =     0.0000     [    0.0000]
 d_dipole_y/<atom=   3,y> =     0.0274     [    0.1314]
 d_dipole_y/<atom=   3,z> =     0.0000     [    0.0000]
  
 Z vector of derivative dipole (au) [debye/angstrom]
 d_dipole_z/<atom=   1,x> =     0.0000     [    0.0000]
 d_dipole_z/<atom=   1,y> =     0.0000     [    0.0000]
 d_dipole_z/<atom=   1,z> =    -0.1307     [   -0.6279]
 d_dipole_z/<atom=   2,x> =     0.0000     [    0.0000]
 d_dipole_z/<atom=   2,y> =     0.0000     [    0.0000]
 d_dipole_z/<atom=   2,z> =     0.1531     [    0.7355]
 d_dipole_z/<atom=   3,x> =     0.0000     [    0.0000]
 d_dipole_z/<atom=   3,y> =     0.0000     [    0.0000]
 d_dipole_z/<atom=   3,z> =    -0.0224     [   -0.1077]
  
  
       -0.15000  2.56955E-02    x=  -0.0000   0.0000  -2.1100   0.0000  -0.0000  -0.1219  -0.0000   0.0000   2.2319
                 1.70810E-02   dx=   0.0000   0.0000  -0.2672   0.0000   0.0000   0.8018   0.0000   0.0000  -0.5346

 Eigenvalues and eigenvectors of hessian

                       m=       1            2            3            4            5            6
  Eigenvalues (au)=           0.132303     0.029042     0.029042     0.000000     0.000000    -0.000000
  Frequencies (cm^-1)=     2281.092316  1068.744910  1068.744910     0.000029     0.000014    -0.000014
  Eigenvectors=
                        1    -0.000000    -0.407900     0.170506    -0.010322    -0.154943    -0.668656
                        2     0.000000    -0.170506    -0.407900    -0.093422    -0.662190     0.154886
                        3     0.771552     0.000000     0.000000    -0.264644     0.036323    -0.004331
                        4     0.000000     0.752441    -0.314528    -0.000596    -0.008950    -0.038622
                        5    -0.000000     0.314528     0.752441    -0.005395    -0.038247     0.008946
                        6    -0.154409     0.000000    -0.000000     0.794212    -0.109008     0.012999
                        7    -0.000000    -0.344541     0.144022     0.010918     0.163891     0.707272
                        8    -0.000000    -0.144022    -0.344541     0.098818     0.700435    -0.163832
                        9    -0.617143     0.000000     0.000000    -0.529568     0.072685    -0.008668
  

                       m=       7            8            9
  Eigenvalues (au)=          -0.000000    -0.000000    -0.000001
  Frequencies (cm^-1)=       -0.008532    -0.008532    -4.542085
  Eigenvectors=
                        1     0.143194     0.559308     0.000000
                        2     0.559310    -0.143195    -0.000000
                        3     0.000000    -0.000000     0.577351
                        4     0.143195     0.559311    -0.000000
                        5     0.559311    -0.143195     0.000000
                        6    -0.000001     0.000000     0.577350
                        7     0.143196     0.559313    -0.000000
                        8     0.559311    -0.143195     0.000000
                        9     0.000001    -0.000000     0.577350
  
 Symmetry group is C4V
       -0.16000  2.55209E-02    x=  -0.0000   0.0000  -2.1073   0.0000  -0.0000  -0.1299  -0.0000   0.0000   2.2372
                 1.78298E-02   dx=   0.0000   0.0000  -0.2548   0.0000   0.0000   0.7992   0.0000   0.0000  -0.5444
 Symmetry group is C4V
       -0.17000  2.53391E-02    x=  -0.0000   0.0000  -2.1048   0.0000  -0.0000  -0.1379  -0.0000   0.0000   2.2427
                 1.85154E-02   dx=   0.0000   0.0000  -0.2419   0.0000   0.0000   0.7963   0.0000   0.0000  -0.5544
 Symmetry group is C4V
       -0.18000  2.51508E-02    x=  -0.0000   0.0000  -2.1024   0.0000  -0.0000  -0.1458  -0.0000   0.0000   2.2482
                 1.91372E-02   dx=   0.0000   0.0000  -0.2284   0.0000   0.0000   0.7931   0.0000   0.0000  -0.5647
 Symmetry group is C4V
       -0.19000  2.49566E-02    x=  -0.0000   0.0000  -2.1001   0.0000  -0.0000  -0.1538  -0.0000   0.0000   2.2539
                 1.96957E-02   dx=   0.0000   0.0000  -0.2142   0.0000   0.0000   0.7894   0.0000   0.0000  -0.5752
 Symmetry group is C4V
 SCF residual:    7.4249976673629433E-008

 Derivative Dipole

  
  
 X vector of derivative dipole (au) [debye/angstrom]
 d_dipole_x/<atom=   1,x> =     0.0487     [    0.2339]
 d_dipole_x/<atom=   1,y> =     0.0000     [    0.0000]
 d_dipole_x/<atom=   1,z> =     0.0000     [    0.0000]
 d_dipole_x/<atom=   2,x> =    -0.0722     [   -0.3467]
 d_dipole_x/<atom=   2,y> =     0.0000     [    0.0000]
 d_dipole_x/<atom=   2,z> =     0.0000     [    0.0000]
 d_dipole_x/<atom=   3,x> =     0.0235     [    0.1129]
 d_dipole_x/<atom=   3,y> =     0.0000     [    0.0000]
 d_dipole_x/<atom=   3,z> =     0.0000     [    0.0000]
  
 Y vector of derivative dipole (au) [debye/angstrom]
 d_dipole_y/<atom=   1,x> =     0.0000     [    0.0000]
 d_dipole_y/<atom=   1,y> =     0.0487     [    0.2339]
 d_dipole_y/<atom=   1,z> =     0.0000     [    0.0000]
 d_dipole_y/<atom=   2,x> =     0.0000     [    0.0000]
 d_dipole_y/<atom=   2,y> =    -0.0722     [   -0.3467]
 d_dipole_y/<atom=   2,z> =     0.0000     [    0.0000]
 d_dipole_y/<atom=   3,x> =     0.0000     [    0.0000]
 d_dipole_y/<atom=   3,y> =     0.0235     [    0.1129]
 d_dipole_y/<atom=   3,z> =     0.0000     [    0.0000]
  
 Z vector of derivative dipole (au) [debye/angstrom]
 d_dipole_z/<atom=   1,x> =     0.0000     [    0.0000]
 d_dipole_z/<atom=   1,y> =     0.0000     [    0.0000]
 d_dipole_z/<atom=   1,z> =    -0.1379     [   -0.6626]
 d_dipole_z/<atom=   2,x> =     0.0000     [    0.0000]
 d_dipole_z/<atom=   2,y> =     0.0000     [    0.0000]
 d_dipole_z/<atom=   2,z> =     0.1397     [    0.6710]
 d_dipole_z/<atom=   3,x> =     0.0000     [    0.0000]
 d_dipole_z/<atom=   3,y> =     0.0000     [    0.0000]
 d_dipole_z/<atom=   3,z> =    -0.0018     [   -0.0084]
  
  
       -0.20000  2.47571E-02    x=  -0.0000   0.0000  -2.0980   0.0000  -0.0000  -0.1617  -0.0000   0.0000   2.2596
                 2.01917E-02   dx=   0.0000   0.0000  -0.1994   0.0000   0.0000   0.7854   0.0000   0.0000  -0.5860

 Eigenvalues and eigenvectors of hessian

                       m=       1            2            3            4            5            6
  Eigenvalues (au)=           0.155392     0.026616     0.026616     0.000000     0.000000     0.000000
  Frequencies (cm^-1)=     2472.129947  1023.127240  1023.127240     0.006544     0.006544     0.000036
  Eigenvectors=
                        1    -0.000000    -0.145818    -0.428628    -0.575567     0.045390     0.005033
                        2     0.000000    -0.428628     0.145818    -0.045390    -0.575567    -0.046531
                        3     0.791781     0.000000     0.000000     0.000000    -0.000000     0.198899
                        4     0.000000     0.262428     0.771399    -0.575564     0.045389     0.000388
                        5    -0.000000     0.771399    -0.262428    -0.045389    -0.575564    -0.003586
                        6    -0.223229     0.000000     0.000000    -0.000000     0.000001    -0.783523
                        7    -0.000000    -0.116610    -0.342771    -0.575559     0.045389    -0.005420
                        8     0.000000    -0.342771     0.116610    -0.045388    -0.575560     0.050115
                        9    -0.568552    -0.000000     0.000000     0.000000    -0.000001     0.584625
  

                       m=       7            8            9
  Eigenvalues (au)=          -0.000000    -0.000000    -0.000001
  Frequencies (cm^-1)=       -0.000003    -0.000009    -5.264864
  Eigenvectors=
                        1    -0.677289     0.054135    -0.000000
                        2    -0.054353    -0.675691    -0.000000
                        3     0.000381    -0.013727    -0.577351
                        4    -0.052188     0.004172     0.000000
                        5    -0.004188    -0.052066     0.000000
                        6    -0.001500     0.054076    -0.577350
                        7     0.729488    -0.058306     0.000000
                        8     0.058541     0.727766     0.000000
                        9     0.001119    -0.040349    -0.577350
  
 Symmetry group is C4V
       -0.21000  2.45530E-02    x=  -0.0000   0.0000  -2.0960   0.0000  -0.0000  -0.1695  -0.0000   0.0000   2.2655
                 2.06267E-02   dx=   0.0000   0.0000  -0.1839   0.0000   0.0000   0.7809   0.0000   0.0000  -0.5970
 Symmetry group is C4V
       -0.22000  2.43448E-02    x=  -0.0000   0.0000  -2.0941   0.0000  -0.0000  -0.1773  -0.0000   0.0000   2.2715
                 2.10028E-02   dx=   0.0000   0.0000  -0.1677   0.0000   0.0000   0.7759   0.0000   0.0000  -0.6082
 Symmetry group is C4V
       -0.23000  2.41331E-02    x=  -0.0000   0.0000  -2.0924   0.0000  -0.0000  -0.1851  -0.0000   0.0000   2.2775
                 2.13224E-02   dx=   0.0000   0.0000  -0.1509   0.0000   0.0000   0.7704   0.0000   0.0000  -0.6195
 Symmetry group is C4V
       -0.24000  2.39185E-02    x=  -0.0000   0.0000  -2.0909   0.0000  -0.0000  -0.1928  -0.0000   0.0000   2.2837
                 2.15886E-02   dx=   0.0000   0.0000  -0.1334   0.0000   0.0000   0.7643   0.0000   0.0000  -0.6309
 Symmetry group is C4V
 SCF residual:    9.1376356139404674E-008

 Derivative Dipole

  
  
 X vector of derivative dipole (au) [debye/angstrom]
 d_dipole_x/<atom=   1,x> =     0.0493     [    0.2367]
 d_dipole_x/<atom=   1,y> =     0.0000     [    0.0000]
 d_dipole_x/<atom=   1,z> =     0.0000     [    0.0000]
 d_dipole_x/<atom=   2,x> =    -0.0692     [   -0.3326]
 d_dipole_x/<atom=   2,y> =     0.0000     [    0.0000]
 d_dipole_x/<atom=   2,z> =     0.0000     [    0.0000]
 d_dipole_x/<atom=   3,x> =     0.0199     [    0.0958]
 d_dipole_x/<atom=   3,y> =     0.0000     [    0.0000]
 d_dipole_x/<atom=   3,z> =     0.0000     [    0.0000]
  
 Y vector of derivative dipole (au) [debye/angstrom]
 d_dipole_y/<atom=   1,x> =     0.0000     [    0.0000]
 d_dipole_y/<atom=   1,y> =     0.0493     [    0.2367]
 d_dipole_y/<atom=   1,z> =     0.0000     [    0.0000]
 d_dipole_y/<atom=   2,x> =     0.0000     [    0.0000]
 d_dipole_y/<atom=   2,y> =    -0.0692     [   -0.3326]
 d_dipole_y/<atom=   2,z> =     0.0000     [    0.0000]
 d_dipole_y/<atom=   3,x> =     0.0000     [    0.0000]
 d_dipole_y/<atom=   3,y> =     0.0199     [    0.0958]
 d_dipole_y/<atom=   3,z> =     0.0000     [    0.0000]
  
 Z vector of derivative dipole (au) [debye/angstrom]
 d_dipole_z/<atom=   1,x> =     0.0000     [    0.0000]
 d_dipole_z/<atom=   1,y> =     0.0000     [    0.0000]
 d_dipole_z/<atom=   1,z> =    -0.1412     [   -0.6782]
 d_dipole_z/<atom=   2,x> =     0.0000     [    0.0000]
 d_dipole_z/<atom=   2,y> =     0.0000     [    0.0000]
 d_dipole_z/<atom=   2,z> =     0.1242     [    0.5967]
 d_dipole_z/<atom=   3,x> =     0.0000     [    0.0000]
 d_dipole_z/<atom=   3,y> =     0.0000     [    0.0000]
 d_dipole_z/<atom=   3,z> =     0.0170     [    0.0815]
  
  
       -0.25000  2.37015E-02    x=  -0.0000   0.0000  -2.0896   0.0000  -0.0000  -0.2004  -0.0000   0.0000   2.2900
                 2.18050E-02   dx=   0.0000   0.0000  -0.1152   0.0000   0.0000   0.7576   0.0000   0.0000  -0.6424

 Eigenvalues and eigenvectors of hessian

                       m=       1            2            3            4            5            6
  Eigenvalues (au)=           0.188866     0.023486     0.023486    -0.000000    -0.000000    -0.000000
  Frequencies (cm^-1)=     2725.425620   961.079223   961.079223    -0.000011    -0.000015    -0.000028
  Eigenvectors=
                        1    -0.000000    -0.100054    -0.451903     0.136701     0.652251     0.091218
                        2     0.000000    -0.451903     0.100054     0.186274     0.051067    -0.644312
                        3     0.808324     0.000000     0.000000    -0.108220     0.026760    -0.029166
                        4     0.000000     0.175950     0.794698     0.013112     0.062564     0.008750
                        5    -0.000000     0.794698    -0.175950     0.017868     0.004899    -0.061806
                        6    -0.304369    -0.000000     0.000000     0.711544    -0.175947     0.191767
                        7    -0.000000    -0.075897    -0.342795    -0.149814    -0.714815    -0.099967
                        8    -0.000000    -0.342795     0.075897    -0.204141    -0.055965     0.706107
                        9    -0.503956    -0.000000     0.000000    -0.603324     0.149187    -0.162601
  

                       m=       7            8            9
  Eigenvalues (au)=          -0.000000    -0.000000    -0.000001
  Frequencies (cm^-1)=       -0.008657    -0.008657    -5.655110
  Eigenvectors=
                        1    -0.567244     0.107552     0.000000
                        2     0.107551     0.567240    -0.000000
                        3    -0.000000    -0.000000    -0.577351
                        4    -0.567244     0.107552     0.000000
                        5     0.107552     0.567244     0.000000
                        6     0.000000     0.000001    -0.577350
                        7    -0.567244     0.107552     0.000000
                        8     0.107553     0.567249     0.000000
                        9    -0.000000    -0.000001    -0.577350
  
 Symmetry group is C4V
       -0.26000  2.34826E-02    x=  -0.0000   0.0000  -2.0885   0.0000  -0.0000  -0.2080  -0.0000   0.0000   2.2965
                 2.19752E-02   dx=   0.0000   0.0000  -0.0965   0.0000   0.0000   0.7504   0.0000   0.0000  -0.6539
 Symmetry group is C4V
       -0.27000  2.32622E-02    x=  -0.0000   0.0000  -2.0875   0.0000  -0.0000  -0.2155  -0.0000   0.0000   2.3030
                 2.21037E-02   dx=   0.0000   0.0000  -0.0773   0.0000   0.0000   0.7426   0.0000   0.0000  -0.6653
 Symmetry group is C4V
       -0.28000  2.30407E-02    x=  -0.0000   0.0000  -2.0867   0.0000  -0.0000  -0.2229  -0.0000   0.0000   2.3097
                 2.21945E-02   dx=   0.0000   0.0000  -0.0576   0.0000   0.0000   0.7341   0.0000   0.0000  -0.6766
 Symmetry group is C4V
       -0.29000  2.28184E-02    x=  -0.0000   0.0000  -2.0861   0.0000  -0.0000  -0.2303  -0.0000   0.0000   2.3164
                 2.22522E-02   dx=   0.0000   0.0000  -0.0375   0.0000   0.0000   0.7251   0.0000   0.0000  -0.6876
 Symmetry group is C4V
 SCF residual:    4.6939185566456225E-008

 Derivative Dipole

  
  
 X vector of derivative dipole (au) [debye/angstrom]
 d_dipole_x/<atom=   1,x> =     0.0490     [    0.2356]
 d_dipole_x/<atom=   1,y> =     0.0000     [    0.0000]
 d_dipole_x/<atom=   1,z> =     0.0000     [    0.0000]
 d_dipole_x/<atom=   2,x> =    -0.0659     [   -0.3166]
 d_dipole_x/<atom=   2,y> =     0.0000     [    0.0000]
 d_dipole_x/<atom=   2,z> =     0.0000     [    0.0000]
 d_dipole_x/<atom=   3,x> =     0.0169     [    0.0811]
 d_dipole_x/<atom=   3,y> =     0.0000     [    0.0000]
 d_dipole_x/<atom=   3,z> =     0.0000     [    0.0000]
  
 Y vector of derivative dipole (au) [debye/angstrom]
 d_dipole_y/<atom=   1,x> =     0.0000     [    0.0000]
 d_dipole_y/<atom=   1,y> =     0.0490     [    0.2356]
 d_dipole_y/<atom=   1,z> =     0.0000     [    0.0000]
 d_dipole_y/<atom=   2,x> =     0.0000     [    0.0000]
 d_dipole_y/<atom=   2,y> =    -0.0659     [   -0.3166]
 d_dipole_y/<atom=   2,z> =     0.0000     [    0.0000]
 d_dipole_y/<atom=   3,x> =     0.0000     [    0.0000]
 d_dipole_y/<atom=   3,y> =     0.0169     [    0.0811]
 d_dipole_y/<atom=   3,z> =     0.0000     [    0.0000]
  
 Z vector of derivative dipole (au) [debye/angstrom]
 d_dipole_z/<atom=   1,x> =     0.0000     [    0.0000]
 d_dipole_z/<atom=   1,y> =     0.0000     [    0.0000]
 d_dipole_z/<atom=   1,z> =    -0.1411     [   -0.6777]
 d_dipole_z/<atom=   2,x> =     0.0000     [    0.0000]
 d_dipole_z/<atom=   2,y> =     0.0000     [    0.0000]
 d_dipole_z/<atom=   2,z> =     0.1082     [    0.5195]
 d_dipole_z/<atom=   3,x> =     0.0000     [    0.0000]
 d_dipole_z/<atom=   3,y> =     0.0000     [    0.0000]
 d_dipole_z/<atom=   3,z> =     0.0329     [    0.1582]
  
  
       -0.30000  2.25958E-02    x=  -0.0000   0.0000  -2.0858   0.0000  -0.0000  -0.2375  -0.0000   0.0000   2.3233
                 2.22809E-02   dx=   0.0000   0.0000  -0.0172   0.0000   0.0000   0.7156   0.0000   0.0000  -0.6983

 Eigenvalues and eigenvectors of hessian

                       m=       1            2            3            4            5            6
  Eigenvalues (au)=           0.232141     0.019897     0.019897     0.000000     0.000000     0.000000
  Frequencies (cm^-1)=     3021.572466   884.606715   884.606715     0.004627     0.004627     0.000036
  Eigenvectors=
                        1     0.000000    -0.472179    -0.000005    -0.577146    -0.015407     0.000225
                        2    -0.000000    -0.000005     0.472179     0.015407    -0.577157    -0.017730
                        3     0.816315     0.000000    -0.000000     0.000000    -0.000000     0.017204
                        4    -0.000000     0.812965     0.000009    -0.577145    -0.015407     0.000026
                        5     0.000000     0.000009    -0.812965     0.015407    -0.577146    -0.002020
                        6    -0.393254     0.000000    -0.000000    -0.000000     0.000001    -0.715301
                        7     0.000000    -0.340786    -0.000004    -0.577143    -0.015406    -0.000250
                        8     0.000000    -0.000004     0.340786     0.015407    -0.577131     0.019749
                        9    -0.423062     0.000000    -0.000000     0.000000    -0.000001     0.698097
  

                       m=       7            8            9
  Eigenvalues (au)=           0.000000    -0.000000    -0.000001
  Frequencies (cm^-1)=        0.000004    -0.000024    -5.840348
  Eigenvectors=
                        1    -0.664590    -0.045083    -0.000000
                        2     0.045061    -0.664345     0.000000
                        3     0.000037    -0.000457    -0.577351
                        4    -0.075685    -0.005134     0.000000
                        5     0.005132    -0.075648    -0.000000
                        6    -0.001530     0.018986    -0.577350
                        7     0.740278     0.050218    -0.000000
                        8    -0.050193     0.740026    -0.000000
                        9     0.001493    -0.018529    -0.577350
  
 Symmetry group is C4V
       -0.31000  2.23729E-02    x=  -0.0000   0.0000  -2.0856   0.0000  -0.0000  -0.2447  -0.0000   0.0000   2.3303
                 2.22850E-02   dx=   0.0000   0.0000   0.0032   0.0000   0.0000   0.7055   0.0000   0.0000  -0.7087
 Symmetry group is C4V
       -0.32000  2.21502E-02    x=  -0.0000   0.0000  -2.0856   0.0000  -0.0000  -0.2517  -0.0000   0.0000   2.3374
                 2.22683E-02   dx=   0.0000   0.0000   0.0237   0.0000   0.0000   0.6950   0.0000   0.0000  -0.7186
 Symmetry group is C4V
       -0.33000  2.19276E-02    x=  -0.0000   0.0000  -2.0859   0.0000  -0.0000  -0.2587  -0.0000   0.0000   2.3446
                 2.22344E-02   dx=   0.0000   0.0000   0.0440   0.0000   0.0000   0.6841   0.0000   0.0000  -0.7281
 Symmetry group is C4V
       -0.34000  2.17055E-02    x=  -0.0000   0.0000  -2.0863   0.0000  -0.0000  -0.2655  -0.0000   0.0000   2.3518
                 2.21866E-02   dx=   0.0000   0.0000   0.0640   0.0000   0.0000   0.6729   0.0000   0.0000  -0.7369
 Symmetry group is C4V
 SCF residual:    2.7629908643958718E-008

 Derivative Dipole

  
  
 X vector of derivative dipole (au) [debye/angstrom]
 d_dipole_x/<atom=   1,x> =     0.0480     [    0.2307]
 d_dipole_x/<atom=   1,y> =     0.0000     [    0.0000]
 d_dipole_x/<atom=   1,z> =     0.0000     [    0.0000]
 d_dipole_x/<atom=   2,x> =    -0.0624     [   -0.2997]
 d_dipole_x/<atom=   2,y> =     0.0000     [    0.0000]
 d_dipole_x/<atom=   2,z> =     0.0000     [    0.0000]
 d_dipole_x/<atom=   3,x> =     0.0144     [    0.0690]
 d_dipole_x/<atom=   3,y> =     0.0000     [    0.0000]
 d_dipole_x/<atom=   3,z> =     0.0000     [    0.0000]
  
 Y vector of derivative dipole (au) [debye/angstrom]
 d_dipole_y/<atom=   1,x> =     0.0000     [    0.0000]
 d_dipole_y/<atom=   1,y> =     0.0480     [    0.2307]
 d_dipole_y/<atom=   1,z> =     0.0000     [    0.0000]
 d_dipole_y/<atom=   2,x> =     0.0000     [    0.0000]
 d_dipole_y/<atom=   2,y> =    -0.0624     [   -0.2997]
 d_dipole_y/<atom=   2,z> =     0.0000     [    0.0000]
 d_dipole_y/<atom=   3,x> =     0.0000     [    0.0000]
 d_dipole_y/<atom=   3,y> =     0.0144     [    0.0690]
 d_dipole_y/<atom=   3,z> =     0.0000     [    0.0000]
  
 Z vector of derivative dipole (au) [debye/angstrom]
 d_dipole_z/<atom=   1,x> =     0.0000     [    0.0000]
 d_dipole_z/<atom=   1,y> =     0.0000     [    0.0000]
 d_dipole_z/<atom=   1,z> =    -0.1385     [   -0.6652]
 d_dipole_z/<atom=   2,x> =     0.0000     [    0.0000]
 d_dipole_z/<atom=   2,y> =     0.0000     [    0.0000]
 d_dipole_z/<atom=   2,z> =     0.0928     [    0.4459]
 d_dipole_z/<atom=   3,x> =     0.0000     [    0.0000]
 d_dipole_z/<atom=   3,y> =     0.0000     [    0.0000]
 d_dipole_z/<atom=   3,z> =     0.0456     [    0.2192]
  
  
       -0.35000  2.14840E-02    x=  -0.0000   0.0000  -2.0869   0.0000  -0.0000  -0.2723  -0.0000   0.0000   2.3592
                 2.21275E-02   dx=   0.0000   0.0000   0.0836   0.0000   0.0000   0.6616   0.0000   0.0000  -0.7452

 Eigenvalues and eigenvectors of hessian

                       m=       1            2            3            4            5            6
  Eigenvalues (au)=           0.279966     0.016271     0.016271     0.000000     0.000000    -0.000000
  Frequencies (cm^-1)=     3318.257681   799.954358   799.954358     0.000036     0.000011    -0.000004
  Eigenvectors=
                        1     0.000000     0.000012    -0.480552    -0.004043    -0.538768     0.381378
                        2    -0.000000     0.480552     0.000012     0.169152     0.367804     0.521387
                        3     0.812206    -0.000000     0.000000    -0.080800     0.012780     0.017198
                        4    -0.000000    -0.000019     0.811942    -0.000527    -0.070288     0.049755
                        5     0.000000    -0.811942    -0.000019     0.022067     0.047984     0.068021
                        6    -0.478497    -0.000000     0.000000    -0.639491     0.101150     0.136115
                        7     0.000000     0.000008    -0.331391     0.004570     0.609057    -0.431133
                        8     0.000000     0.331391     0.000008    -0.191223    -0.415788    -0.589407
                        9    -0.333710    -0.000000    -0.000000     0.720291    -0.113931    -0.153313
  

                       m=       7            8            9
  Eigenvalues (au)=          -0.000000    -0.000000    -0.000001
  Frequencies (cm^-1)=       -0.010347    -0.010347    -5.985476
  Eigenvectors=
                        1    -0.001938    -0.577347    -0.000000
                        2    -0.577347     0.001938     0.000000
                        3     0.000000    -0.000000    -0.577351
                        4    -0.001938    -0.577347    -0.000000
                        5    -0.577347     0.001938    -0.000000
                        6     0.000002    -0.000000    -0.577350
                        7    -0.001938    -0.577347     0.000000
                        8    -0.577347     0.001938    -0.000000
                        9    -0.000002     0.000000    -0.577350
  
 Symmetry group is C4V
       -0.36000  2.12630E-02    x=  -0.0000   0.0000  -2.0878   0.0000  -0.0000  -0.2789  -0.0000   0.0000   2.3667
                 2.20595E-02   dx=   0.0000   0.0000   0.1027   0.0000   0.0000   0.6501   0.0000   0.0000  -0.7528
 Symmetry group is C4V
       -0.37000  2.10428E-02    x=  -0.0000   0.0000  -2.0888   0.0000  -0.0000  -0.2854  -0.0000   0.0000   2.3742
                 2.19847E-02   dx=   0.0000   0.0000   0.1211   0.0000   0.0000   0.6387   0.0000   0.0000  -0.7598
 Symmetry group is C4V
       -0.38000  2.08234E-02    x=  -0.0000   0.0000  -2.0900   0.0000  -0.0000  -0.2918  -0.0000   0.0000   2.3818
                 2.19044E-02   dx=   0.0000   0.0000   0.1388   0.0000   0.0000   0.6274   0.0000   0.0000  -0.7662
 Symmetry group is C4V
       -0.39000  2.06048E-02    x=  -0.0000   0.0000  -2.0914   0.0000  -0.0000  -0.2980  -0.0000   0.0000   2.3894
                 2.18196E-02   dx=   0.0000   0.0000   0.1557   0.0000   0.0000   0.6162   0.0000   0.0000  -0.7720
 Symmetry group is C4V
 SCF residual:    6.7872400772586426E-007

 Derivative Dipole

  
  
 X vector of derivative dipole (au) [debye/angstrom]
 d_dipole_x/<atom=   1,x> =     0.0464     [    0.2227]
 d_dipole_x/<atom=   1,y> =     0.0000     [    0.0000]
 d_dipole_x/<atom=   1,z> =     0.0000     [    0.0000]
 d_dipole_x/<atom=   2,x> =    -0.0588     [   -0.2825]
 d_dipole_x/<atom=   2,y> =     0.0000     [    0.0000]
 d_dipole_x/<atom=   2,z> =     0.0000     [    0.0000]
 d_dipole_x/<atom=   3,x> =     0.0124     [    0.0598]
 d_dipole_x/<atom=   3,y> =     0.0000     [    0.0000]
 d_dipole_x/<atom=   3,z> =     0.0000     [    0.0000]
  
 Y vector of derivative dipole (au) [debye/angstrom]
 d_dipole_y/<atom=   1,x> =     0.0000     [    0.0000]
 d_dipole_y/<atom=   1,y> =     0.0464     [    0.2227]
 d_dipole_y/<atom=   1,z> =     0.0000     [    0.0000]
 d_dipole_y/<atom=   2,x> =     0.0000     [    0.0000]
 d_dipole_y/<atom=   2,y> =    -0.0588     [   -0.2825]
 d_dipole_y/<atom=   2,z> =     0.0000     [    0.0000]
 d_dipole_y/<atom=   3,x> =     0.0000     [    0.0000]
 d_dipole_y/<atom=   3,y> =     0.0124     [    0.0598]
 d_dipole_y/<atom=   3,z> =     0.0000     [    0.0000]
  
 Z vector of derivative dipole (au) [debye/angstrom]
 d_dipole_z/<atom=   1,x> =     0.0000     [    0.0000]
 d_dipole_z/<atom=   1,y> =     0.0000     [    0.0000]
 d_dipole_z/<atom=   1,z> =    -0.1344     [   -0.6453]
 d_dipole_z/<atom=   2,x> =     0.0000     [    0.0000]
 d_dipole_z/<atom=   2,y> =     0.0000     [    0.0000]
 d_dipole_z/<atom=   2,z> =     0.0793     [    0.3809]
 d_dipole_z/<atom=   3,x> =     0.0000     [    0.0000]
 d_dipole_z/<atom=   3,y> =     0.0000     [    0.0000]
 d_dipole_z/<atom=   3,z> =     0.0551     [    0.2645]
  
  
       -0.40000  2.03870E-02    x=  -0.0000   0.0000  -2.0930   0.0000  -0.0000  -0.3042  -0.0000   0.0000   2.3972
                 2.17313E-02   dx=   0.0000   0.0000   0.1718   0.0000   0.0000   0.6054   0.0000   0.0000  -0.7772

 Eigenvalues and eigenvectors of hessian

                       m=       1            2            3            4            5            6
  Eigenvalues (au)=           0.324627     0.013033     0.013033    -0.000000    -0.000000    -0.000000
  Frequencies (cm^-1)=     3573.136102   715.933344   715.933344    -0.000012    -0.000020    -0.000054
  Eigenvectors=
                        1    -0.000000    -0.000012    -0.487877     0.653149    -0.045018    -0.002074
                        2     0.000000     0.487877    -0.000012    -0.045010    -0.653208     0.002380
                        3     0.798221     0.000000    -0.000000    -0.000586    -0.000585    -0.171779
                        4     0.000000     0.000019     0.810932     0.094928    -0.006546    -0.000301
                        5    -0.000000    -0.810932     0.000019    -0.006545    -0.094987     0.000348
                        6    -0.547878    -0.000000    -0.000000    -0.002064    -0.002062    -0.605383
                        7     0.000000    -0.000008    -0.323055    -0.748096     0.051553     0.002375
                        8     0.000000     0.323055    -0.000008     0.051545     0.748036    -0.002721
                        9    -0.250344    -0.000000    -0.000000     0.002650     0.002647     0.777162
  

                       m=       7            8            9
  Eigenvalues (au)=          -0.000000    -0.000000    -0.000001
  Frequencies (cm^-1)=       -0.001463    -0.001463    -6.184481
  Eigenvectors=
                        1    -0.576785     0.025704     0.000000
                        2    -0.025696    -0.576718    -0.000000
                        3    -0.000000    -0.000001    -0.577351
                        4    -0.576779     0.025703    -0.000000
                        5    -0.025702    -0.576769     0.000000
                        6    -0.000000    -0.000002    -0.577350
                        7    -0.576770     0.025702     0.000000
                        8    -0.025711    -0.576846     0.000000
                        9     0.000000     0.000003    -0.577350
  
 Symmetry group is C4V
       -0.41000  2.01702E-02    x=  -0.0000   0.0000  -2.0947   0.0000  -0.0000  -0.3103  -0.0000   0.0000   2.4049
                 2.16399E-02   dx=   0.0000   0.0000   0.1869   0.0000   0.0000   0.5949   0.0000   0.0000  -0.7818
 Symmetry group is C4V
       -0.42000  1.99542E-02    x=  -0.0000   0.0000  -2.0965   0.0000  -0.0000  -0.3162  -0.0000   0.0000   2.4128
                 2.15457E-02   dx=   0.0000   0.0000   0.2011   0.0000   0.0000   0.5848   0.0000   0.0000  -0.7859
 Symmetry group is C4V
       -0.43000  1.97393E-02    x=  -0.0000   0.0000  -2.0986   0.0000  -0.0000  -0.3221  -0.0000   0.0000   2.4206
                 2.14490E-02   dx=   0.0000   0.0000   0.2144   0.0000   0.0000   0.5751   0.0000   0.0000  -0.7895
 Symmetry group is C4V
       -0.44000  1.95253E-02    x=  -0.0000   0.0000  -2.1007   0.0000  -0.0000  -0.3278  -0.0000   0.0000   2.4285
                 2.13498E-02   dx=   0.0000   0.0000   0.2267   0.0000   0.0000   0.5659   0.0000   0.0000  -0.7927
 Symmetry group is C4V
 SCF residual:    6.1583314112155065E-007

 Derivative Dipole

  
  
 X vector of derivative dipole (au) [debye/angstrom]
 d_dipole_x/<atom=   1,x> =     0.0443     [    0.2127]
 d_dipole_x/<atom=   1,y> =     0.0000     [    0.0000]
 d_dipole_x/<atom=   1,z> =     0.0000     [    0.0000]
 d_dipole_x/<atom=   2,x> =    -0.0553     [   -0.2656]
 d_dipole_x/<atom=   2,y> =     0.0000     [    0.0000]
 d_dipole_x/<atom=   2,z> =     0.0000     [    0.0000]
 d_dipole_x/<atom=   3,x> =     0.0110     [    0.0529]
 d_dipole_x/<atom=   3,y> =     0.0000     [    0.0000]
 d_dipole_x/<atom=   3,z> =     0.0000     [    0.0000]
  
 Y vector of derivative dipole (au) [debye/angstrom]
 d_dipole_y/<atom=   1,x> =     0.0000     [    0.0000]
 d_dipole_y/<atom=   1,y> =     0.0443     [    0.2127]
 d_dipole_y/<atom=   1,z> =     0.0000     [    0.0000]
 d_dipole_y/<atom=   2,x> =     0.0000     [    0.0000]
 d_dipole_y/<atom=   2,y> =    -0.0553     [   -0.2656]
 d_dipole_y/<atom=   2,z> =     0.0000     [    0.0000]
 d_dipole_y/<atom=   3,x> =     0.0000     [    0.0000]
 d_dipole_y/<atom=   3,y> =     0.0110     [    0.0529]
 d_dipole_y/<atom=   3,z> =     0.0000     [    0.0000]
  
 Z vector of derivative dipole (au) [debye/angstrom]
 d_dipole_z/<atom=   1,x> =     0.0000     [    0.0000]
 d_dipole_z/<atom=   1,y> =     0.0000     [    0.0000]
 d_dipole_z/<atom=   1,z> =    -0.1295     [   -0.6220]
 d_dipole_z/<atom=   2,x> =     0.0000     [    0.0000]
 d_dipole_z/<atom=   2,y> =     0.0000     [    0.0000]
 d_dipole_z/<atom=   2,z> =     0.0679     [    0.3263]
 d_dipole_z/<atom=   3,x> =     0.0000     [    0.0000]
 d_dipole_z/<atom=   3,y> =     0.0000     [    0.0000]
 d_dipole_z/<atom=   3,z> =     0.0616     [    0.2957]
  
  
       -0.45000  1.93123E-02    x=  -0.0000   0.0000  -2.1030   0.0000  -0.0000  -0.3335  -0.0000   0.0000   2.4364
                 2.12481E-02   dx=   0.0000   0.0000   0.2382   0.0000   0.0000   0.5572   0.0000   0.0000  -0.7955

 Eigenvalues and eigenvectors of hessian

                       m=       1            2            3            4            5            6
  Eigenvalues (au)=           0.361629     0.010402     0.010402     0.000000    -0.000000    -0.000000
  Frequencies (cm^-1)=     3771.280646   639.624251   639.624251     0.000008    -0.000019    -0.000035
  Eigenvectors=
                        1     0.000000     0.000021    -0.494234     0.649602    -0.019353     0.006013
                        2     0.000000     0.494234     0.000021    -0.013696    -0.277125     0.587803
                        3     0.780974    -0.000000    -0.000000    -0.005475    -0.215357    -0.101669
                        4    -0.000000    -0.000034     0.809967     0.103004    -0.003069     0.000954
                        5    -0.000000    -0.809967    -0.000034    -0.002172    -0.043953     0.093274
                        6    -0.596786    -0.000000    -0.000000    -0.012807    -0.503773    -0.237828
                        7     0.000000     0.000013    -0.315733    -0.752619     0.022422    -0.006967
                        8     0.000000     0.315733     0.000013     0.015868     0.321043    -0.680842
                        9    -0.184189     0.000000    -0.000000     0.018281     0.719131     0.339497
  

                       m=       7            8            9
  Eigenvalues (au)=          -0.000000    -0.000000    -0.000001
  Frequencies (cm^-1)=       -0.002534    -0.002535    -6.437048
  Eigenvectors=
                        1     0.576935    -0.022022     0.000000
                        2    -0.022020    -0.576845     0.000000
                        3    -0.000000    -0.000009    -0.577351
                        4     0.576931    -0.022023    -0.000000
                        5    -0.022023    -0.576917    -0.000000
                        6    -0.000001    -0.000022    -0.577350
                        7     0.576925    -0.022025     0.000000
                        8    -0.022027    -0.577029    -0.000000
                        9     0.000001     0.000031    -0.577350
  
 Symmetry group is C4V
       -0.46000  1.91003E-02    x=  -0.0000   0.0000  -2.1053   0.0000  -0.0000  -0.3390  -0.0000   0.0000   2.4444
                 2.11439E-02   dx=   0.0000   0.0000   0.2488   0.0000   0.0000   0.5491   0.0000   0.0000  -0.7979
 Symmetry group is C4V
       -0.47000  1.88894E-02    x=  -0.0000   0.0000  -2.1078   0.0000  -0.0000  -0.3445  -0.0000   0.0000   2.4524
                 2.10371E-02   dx=   0.0000   0.0000   0.2586   0.0000   0.0000   0.5414   0.0000   0.0000  -0.8000
 Symmetry group is C4V
       -0.48000  1.86796E-02    x=  -0.0000   0.0000  -2.1104   0.0000  -0.0000  -0.3499  -0.0000   0.0000   2.4604
                 2.09279E-02   dx=   0.0000   0.0000   0.2677   0.0000   0.0000   0.5342   0.0000   0.0000  -0.8019
 Symmetry group is C4V
       -0.49000  1.84709E-02    x=  -0.0000   0.0000  -2.1131   0.0000  -0.0000  -0.3553  -0.0000   0.0000   2.4684
                 2.08160E-02   dx=   0.0000   0.0000   0.2760   0.0000   0.0000   0.5275   0.0000   0.0000  -0.8035
 Symmetry group is C4V
 SCF residual:    5.5079391249767138E-007

 Derivative Dipole

  
  
 X vector of derivative dipole (au) [debye/angstrom]
 d_dipole_x/<atom=   1,x> =     0.0419     [    0.2015]
 d_dipole_x/<atom=   1,y> =     0.0000     [    0.0000]
 d_dipole_x/<atom=   1,z> =     0.0000     [    0.0000]
 d_dipole_x/<atom=   2,x> =    -0.0519     [   -0.2493]
 d_dipole_x/<atom=   2,y> =     0.0000     [    0.0000]
 d_dipole_x/<atom=   2,z> =     0.0000     [    0.0000]
 d_dipole_x/<atom=   3,x> =     0.0100     [    0.0478]
 d_dipole_x/<atom=   3,y> =     0.0000     [    0.0000]
 d_dipole_x/<atom=   3,z> =     0.0000     [    0.0000]
  
 Y vector of derivative dipole (au) [debye/angstrom]
 d_dipole_y/<atom=   1,x> =     0.0000     [    0.0000]
 d_dipole_y/<atom=   1,y> =     0.0419     [    0.2015]
 d_dipole_y/<atom=   1,z> =     0.0000     [    0.0000]
 d_dipole_y/<atom=   2,x> =     0.0000     [    0.0000]
 d_dipole_y/<atom=   2,y> =    -0.0519     [   -0.2493]
 d_dipole_y/<atom=   2,z> =     0.0000     [    0.0000]
 d_dipole_y/<atom=   3,x> =     0.0000     [    0.0000]
 d_dipole_y/<atom=   3,y> =     0.0100     [    0.0478]
 d_dipole_y/<atom=   3,z> =     0.0000     [    0.0000]
  
 Z vector of derivative dipole (au) [debye/angstrom]
 d_dipole_z/<atom=   1,x> =     0.0000     [    0.0000]
 d_dipole_z/<atom=   1,y> =     0.0000     [    0.0000]
 d_dipole_z/<atom=   1,z> =    -0.1244     [   -0.5976]
 d_dipole_z/<atom=   2,x> =     0.0000     [    0.0000]
 d_dipole_z/<atom=   2,y> =     0.0000     [    0.0000]
 d_dipole_z/<atom=   2,z> =     0.0587     [    0.2820]
 d_dipole_z/<atom=   3,x> =     0.0000     [    0.0000]
 d_dipole_z/<atom=   3,y> =     0.0000     [    0.0000]
 d_dipole_z/<atom=   3,z> =     0.0657     [    0.3156]
  
  
       -0.50000  1.82633E-02    x=  -0.0000   0.0000  -2.1159   0.0000  -0.0000  -0.3606  -0.0000   0.0000   2.4764
                 2.07016E-02   dx=   0.0000   0.0000   0.2836   0.0000   0.0000   0.5212   0.0000   0.0000  -0.8049

 Eigenvalues and eigenvectors of hessian

                       m=       1            2            3            4            5            6
  Eigenvalues (au)=           0.391047     0.008368     0.008368     0.000000    -0.000000    -0.000000
  Frequencies (cm^-1)=     3921.677030   573.663209   573.663209     0.000010    -0.000013    -0.000054
  Eigenvectors=
                        1     0.000000    -0.499808     0.000064    -0.002450    -0.645650    -0.000305
                        2     0.000000     0.000064     0.499808     0.158677    -0.000292    -0.626404
                        3     0.765643    -0.000000    -0.000000     0.274946    -0.001077     0.069716
                        4    -0.000000     0.809050    -0.000103    -0.000419    -0.110031    -0.000046
                        5    -0.000000    -0.000103    -0.809050     0.027030    -0.000044    -0.107212
                        6    -0.628469    -0.000000    -0.000000     0.505249    -0.001979     0.128112
                        7     0.000000    -0.309242     0.000039     0.002865     0.755655     0.000373
                        8     0.000000     0.000039     0.309242    -0.185742     0.000357     0.731925
                        9    -0.137175    -0.000000     0.000000    -0.780195     0.003055    -0.197828
  

                       m=       7            8            9
  Eigenvalues (au)=          -0.000000    -0.000000    -0.000001
  Frequencies (cm^-1)=       -0.001463    -0.001464    -6.696616
  Eigenvectors=
                        1     0.577326     0.004145     0.000000
                        2    -0.004125     0.576728     0.000000
                        3    -0.000001     0.000074    -0.577351
                        4     0.577334     0.004139    -0.000000
                        5    -0.004136     0.577232    -0.000000
                        6    -0.000001     0.000135    -0.577350
                        7     0.577347     0.004130     0.000000
                        8    -0.004153     0.578046    -0.000000
                        9     0.000002    -0.000209    -0.577350
  

 Take step from saddle point in product direction

  All quantities in atomic units, x is vector of mass-weighted coordinates,
  dx is the normalized mass-weighted gradient vector, and |dV/x| is the magnitude of the gradient
         s       V,|dV/dx|
        0.00000  2.70840E-02    x=   0.0000   0.0000  -2.1620   0.0000   0.0000   0.0000   0.0000   0.0000   2.1620
                 0.00000E+00   dx=   0.0000  -0.0000  -0.4082  -0.0000   0.0000   0.8165  -0.0000  -0.0000  -0.4082
 Symmetry group is C4V
        0.01000  2.70773E-02    x=   0.0000  -0.0000  -2.1661  -0.0000   0.0000   0.0082   0.0000   0.0000   2.1580
                 1.33475E-03   dx=   0.0000   0.0000   0.4191   0.0000   0.0000  -0.8164   0.0000   0.0000   0.3973
 Symmetry group is C4V
        0.02000  2.70573E-02    x=   0.0000  -0.0000  -2.1703  -0.0000   0.0000   0.0163   0.0000  -0.0000   2.1540
                 2.66371E-03   dx=   0.0000   0.0000   0.4255   0.0000   0.0000  -0.8162   0.0000   0.0000   0.3907
 Symmetry group is C4V
        0.03000  2.70241E-02    x=   0.0000  -0.0000  -2.1746  -0.0000   0.0000   0.0245   0.0000  -0.0000   2.1501
                 3.98127E-03   dx=   0.0000   0.0000   0.4331   0.0000   0.0000  -0.8160   0.0000   0.0000   0.3828
 Symmetry group is C4V
        0.04000  2.69777E-02    x=   0.0000  -0.0000  -2.1789  -0.0000   0.0000   0.0327   0.0000  -0.0000   2.1462
                 5.28180E-03   dx=   0.0000   0.0000   0.4409   0.0000   0.0000  -0.8156   0.0000   0.0000   0.3748
 Symmetry group is C4V
 SCF residual:    8.6466299411424431E-008

 Derivative Dipole

  
  
 X vector of derivative dipole (au) [debye/angstrom]
 d_dipole_x/<atom=   1,x> =     0.0353     [    0.1694]
 d_dipole_x/<atom=   1,y> =     0.0000     [    0.0000]
 d_dipole_x/<atom=   1,z> =     0.0000     [    0.0000]
 d_dipole_x/<atom=   2,x> =    -0.0776     [   -0.3726]
 d_dipole_x/<atom=   2,y> =     0.0000     [    0.0000]
 d_dipole_x/<atom=   2,z> =     0.0000     [    0.0000]
 d_dipole_x/<atom=   3,x> =     0.0423     [    0.2032]
 d_dipole_x/<atom=   3,y> =     0.0000     [    0.0000]
 d_dipole_x/<atom=   3,z> =     0.0000     [    0.0000]
  
 Y vector of derivative dipole (au) [debye/angstrom]
 d_dipole_y/<atom=   1,x> =     0.0000     [    0.0000]
 d_dipole_y/<atom=   1,y> =     0.0353     [    0.1694]
 d_dipole_y/<atom=   1,z> =     0.0000     [    0.0000]
 d_dipole_y/<atom=   2,x> =     0.0000     [    0.0000]
 d_dipole_y/<atom=   2,y> =    -0.0776     [   -0.3726]
 d_dipole_y/<atom=   2,z> =     0.0000     [    0.0000]
 d_dipole_y/<atom=   3,x> =     0.0000     [    0.0000]
 d_dipole_y/<atom=   3,y> =     0.0423     [    0.2032]
 d_dipole_y/<atom=   3,z> =     0.0000     [    0.0000]
  
 Z vector of derivative dipole (au) [debye/angstrom]
 d_dipole_z/<atom=   1,x> =     0.0000     [    0.0000]
 d_dipole_z/<atom=   1,y> =     0.0000     [    0.0000]
 d_dipole_z/<atom=   1,z> =    -0.0656     [   -0.3151]
 d_dipole_z/<atom=   2,x> =     0.0000     [    0.0000]
 d_dipole_z/<atom=   2,y> =     0.0000     [    0.0000]
 d_dipole_z/<atom=   2,z> =     0.1699     [    0.8158]
 d_dipole_z/<atom=   3,x> =     0.0000     [    0.0000]
 d_dipole_z/<atom=   3,y> =     0.0000     [    0.0000]
 d_dipole_z/<atom=   3,z> =    -0.1043     [   -0.5008]
  
  
        0.05000  2.69185E-02    x=   0.0000  -0.0000  -2.1833  -0.0000   0.0000   0.0408   0.0000  -0.0000   2.1425
                 6.55986E-03   dx=   0.0000   0.0000   0.4486   0.0000   0.0000  -0.8151   0.0000   0.0000   0.3665

 Eigenvalues and eigenvectors of hessian

                       m=       1            2            3            4            5            6
  Eigenvalues (au)=           0.109900     0.031662     0.031662     0.000000     0.000000     0.000000
  Frequencies (cm^-1)=     2079.008127  1115.895582  1115.895582     2.259801     0.000017     0.000014
  Eigenvectors=
                        1    -0.000000    -0.000000     0.396642     0.000000     0.182004    -0.689959
                        2     0.000000    -0.396642    -0.000000    -0.000000    -0.687528    -0.180127
                        3    -0.682194     0.000000    -0.000000    -0.577350    -0.037308    -0.018369
                        4     0.000000     0.000000    -0.816388     0.000000    -0.003402     0.012895
                        5    -0.000000     0.816388     0.000000     0.000000     0.012850     0.003365
                        6    -0.047438     0.000000     0.000000    -0.577350     0.067783     0.033373
                        7     0.000000    -0.000000     0.419746     0.000000    -0.178602     0.677063
                        8     0.000000    -0.419746    -0.000000     0.000000     0.674678     0.176756
                        9     0.729631     0.000000    -0.000000    -0.577350    -0.030475    -0.015005
  

                       m=       7            8            9
  Eigenvalues (au)=          -0.000000    -0.000000    -0.000000
  Frequencies (cm^-1)=       -0.000027    -0.005667    -0.005667
  Eigenvectors=
                        1    -0.013170    -0.464336    -0.343110
                        2    -0.064828     0.343112    -0.464335
                        3     0.446709     0.000001    -0.000001
                        4     0.000247    -0.464336    -0.343112
                        5     0.001210     0.343112    -0.464336
                        6    -0.811608    -0.000001     0.000001
                        7     0.012925    -0.464335    -0.343114
                        8     0.063614     0.343112    -0.464336
                        9     0.364899     0.000001    -0.000001
  
 Symmetry group is C4V
        0.06000  2.68466E-02    x=   0.0000  -0.0000  -2.1878  -0.0000   0.0000   0.0490   0.0000  -0.0000   2.1388
                 7.81019E-03   dx=   0.0000   0.0000   0.4565   0.0000   0.0000  -0.8145   0.0000   0.0000   0.3580
 Symmetry group is C4V
        0.07000  2.67624E-02    x=   0.0000  -0.0000  -2.1924  -0.0000   0.0000   0.0571   0.0000  -0.0000   2.1353
                 9.02771E-03   dx=   0.0000   0.0000   0.4645   0.0000   0.0000  -0.8138   0.0000   0.0000   0.3493
 Symmetry group is C4V
        0.08000  2.66662E-02    x=   0.0000  -0.0000  -2.1970  -0.0000   0.0000   0.0652   0.0000  -0.0000   2.1318
                 1.02076E-02   dx=   0.0000   0.0000   0.4726   0.0000   0.0000  -0.8129   0.0000   0.0000   0.3403
 Symmetry group is C4V
        0.09000  2.65584E-02    x=   0.0000  -0.0000  -2.2017  -0.0000   0.0000   0.0734   0.0000  -0.0000   2.1284
                 1.13455E-02   dx=   0.0000   0.0000   0.4809   0.0000   0.0000  -0.8119   0.0000   0.0000   0.3310
 Symmetry group is C4V
 SCF residual:    4.0497512745327742E-008

 Derivative Dipole

  
  
 X vector of derivative dipole (au) [debye/angstrom]
 d_dipole_x/<atom=   1,x> =     0.0313     [    0.1505]
 d_dipole_x/<atom=   1,y> =     0.0000     [    0.0000]
 d_dipole_x/<atom=   1,z> =     0.0000     [    0.0000]
 d_dipole_x/<atom=   2,x> =    -0.0764     [   -0.3672]
 d_dipole_x/<atom=   2,y> =     0.0000     [    0.0000]
 d_dipole_x/<atom=   2,z> =     0.0000     [    0.0000]
 d_dipole_x/<atom=   3,x> =     0.0451     [    0.2167]
 d_dipole_x/<atom=   3,y> =     0.0000     [    0.0000]
 d_dipole_x/<atom=   3,z> =     0.0000     [    0.0000]
  
 Y vector of derivative dipole (au) [debye/angstrom]
 d_dipole_y/<atom=   1,x> =     0.0000     [    0.0000]
 d_dipole_y/<atom=   1,y> =     0.0313     [    0.1505]
 d_dipole_y/<atom=   1,z> =     0.0000     [    0.0000]
 d_dipole_y/<atom=   2,x> =     0.0000     [    0.0000]
 d_dipole_y/<atom=   2,y> =    -0.0764     [   -0.3672]
 d_dipole_y/<atom=   2,z> =     0.0000     [    0.0000]
 d_dipole_y/<atom=   3,x> =     0.0000     [    0.0000]
 d_dipole_y/<atom=   3,y> =     0.0451     [    0.2167]
 d_dipole_y/<atom=   3,z> =     0.0000     [    0.0000]
  
 Z vector of derivative dipole (au) [debye/angstrom]
 d_dipole_z/<atom=   1,x> =     0.0000     [    0.0000]
 d_dipole_z/<atom=   1,y> =     0.0000     [    0.0000]
 d_dipole_z/<atom=   1,z> =    -0.0440     [   -0.2116]
[...]
                        7     0.051256     0.576098     0.038350
                        8     0.652372     0.038372    -0.576213
                        9     0.004270     0.000001    -0.000010
  
 Symmetry group is C4V
        0.41000  2.01702E-02    x=   0.0000  -0.0000  -2.4049  -0.0000   0.0000   0.3103   0.0000  -0.0000   2.0947
                 2.16399E-02   dx=   0.0000   0.0000   0.7818   0.0000   0.0000  -0.5949   0.0000   0.0000  -0.1869
 Symmetry group is C4V
        0.42000  1.99542E-02    x=   0.0000  -0.0000  -2.4128  -0.0000   0.0000   0.3162   0.0000  -0.0000   2.0965
                 2.15457E-02   dx=   0.0000   0.0000   0.7859   0.0000   0.0000  -0.5848   0.0000   0.0000  -0.2011
 Symmetry group is C4V
        0.43000  1.97393E-02    x=   0.0000  -0.0000  -2.4206  -0.0000   0.0000   0.3221   0.0000  -0.0000   2.0986
                 2.14490E-02   dx=   0.0000   0.0000   0.7895   0.0000   0.0000  -0.5751   0.0000   0.0000  -0.2144
 Symmetry group is C4V
        0.44000  1.95253E-02    x=   0.0000  -0.0000  -2.4285  -0.0000   0.0000   0.3278   0.0000  -0.0000   2.1007
                 2.13498E-02   dx=   0.0000   0.0000   0.7927   0.0000   0.0000  -0.5659   0.0000   0.0000  -0.2267
 Symmetry group is C4V
 SCF residual:    6.1583314115330178E-007

 Derivative Dipole

  
  
 X vector of derivative dipole (au) [debye/angstrom]
 d_dipole_x/<atom=   1,x> =     0.0110     [    0.0529]
 d_dipole_x/<atom=   1,y> =     0.0000     [    0.0000]
 d_dipole_x/<atom=   1,z> =     0.0000     [    0.0000]
 d_dipole_x/<atom=   2,x> =    -0.0553     [   -0.2656]
 d_dipole_x/<atom=   2,y> =     0.0000     [    0.0000]
 d_dipole_x/<atom=   2,z> =     0.0000     [    0.0000]
 d_dipole_x/<atom=   3,x> =     0.0443     [    0.2127]
 d_dipole_x/<atom=   3,y> =     0.0000     [    0.0000]
 d_dipole_x/<atom=   3,z> =     0.0000     [    0.0000]
  
 Y vector of derivative dipole (au) [debye/angstrom]
 d_dipole_y/<atom=   1,x> =     0.0000     [    0.0000]
 d_dipole_y/<atom=   1,y> =     0.0110     [    0.0529]
 d_dipole_y/<atom=   1,z> =     0.0000     [    0.0000]
 d_dipole_y/<atom=   2,x> =     0.0000     [    0.0000]
 d_dipole_y/<atom=   2,y> =    -0.0553     [   -0.2656]
 d_dipole_y/<atom=   2,z> =     0.0000     [    0.0000]
 d_dipole_y/<atom=   3,x> =     0.0000     [    0.0000]
 d_dipole_y/<atom=   3,y> =     0.0443     [    0.2127]
 d_dipole_y/<atom=   3,z> =     0.0000     [    0.0000]
  
 Z vector of derivative dipole (au) [debye/angstrom]
 d_dipole_z/<atom=   1,x> =     0.0000     [    0.0000]
 d_dipole_z/<atom=   1,y> =     0.0000     [    0.0000]
 d_dipole_z/<atom=   1,z> =     0.0616     [    0.2957]
 d_dipole_z/<atom=   2,x> =     0.0000     [    0.0000]
 d_dipole_z/<atom=   2,y> =     0.0000     [    0.0000]
 d_dipole_z/<atom=   2,z> =     0.0679     [    0.3263]
 d_dipole_z/<atom=   3,x> =     0.0000     [    0.0000]
 d_dipole_z/<atom=   3,y> =     0.0000     [    0.0000]
 d_dipole_z/<atom=   3,z> =    -0.1295     [   -0.6220]
  
  
        0.45000  1.93123E-02    x=   0.0000  -0.0000  -2.4364  -0.0000   0.0000   0.3335   0.0000  -0.0000   2.1030
                 2.12481E-02   dx=   0.0000   0.0000   0.7955   0.0000   0.0000  -0.5572   0.0000   0.0000  -0.2382

 Eigenvalues and eigenvectors of hessian

                       m=       1            2            3            4            5            6
  Eigenvalues (au)=           0.361629     0.010402     0.010402     0.000001     0.000000     0.000000
  Frequencies (cm^-1)=     3771.280075   639.624251   639.624251     6.436797     0.000043     0.000011
  Eigenvectors=
                        1     0.000000     0.315733     0.000015    -0.000000    -0.003022    -0.752562
                        2    -0.000000     0.000015    -0.315733     0.000000    -0.015002    -0.024795
                        3    -0.184188    -0.000000     0.000000    -0.577350    -0.795286     0.003714
                        4    -0.000000    -0.809967    -0.000037     0.000000     0.000414     0.103003
                        5     0.000000    -0.000037     0.809967     0.000000     0.002055     0.003391
                        6    -0.596785    -0.000000    -0.000000    -0.577351     0.557122    -0.002602
                        7     0.000000     0.494234     0.000023    -0.000000     0.002610     0.649565
                        8     0.000000     0.000023    -0.494234     0.000000     0.012951     0.021398
                        9     0.780975    -0.000000    -0.000000    -0.577350     0.238164    -0.001112
  

                       m=       7            8            9
  Eigenvalues (au)=           0.000000    -0.000000    -0.000000
  Frequencies (cm^-1)=        0.000008    -0.002927    -0.002927
  Eigenvectors=
                        1     0.024857     0.514369     0.262222
                        2    -0.752430     0.262213    -0.514360
                        3     0.015736     0.000002    -0.000001
                        4    -0.003403     0.514368     0.262218
                        5     0.102974     0.262220    -0.514369
                        6    -0.011023    -0.000001     0.000001
                        7    -0.021457     0.514367     0.262216
                        8     0.649433     0.262224    -0.514375
                        9    -0.004712    -0.000001     0.000000
  
 Symmetry group is C4V
        0.46000  1.91003E-02    x=   0.0000  -0.0000  -2.4444  -0.0000   0.0000   0.3390   0.0000  -0.0000   2.1053
                 2.11439E-02   dx=   0.0000   0.0000   0.7979   0.0000   0.0000  -0.5491   0.0000   0.0000  -0.2488
 Symmetry group is C4V
        0.47000  1.88894E-02    x=   0.0000  -0.0000  -2.4524  -0.0000   0.0000   0.3445   0.0000  -0.0000   2.1078
                 2.10371E-02   dx=   0.0000   0.0000   0.8000   0.0000   0.0000  -0.5414   0.0000   0.0000  -0.2586
 Symmetry group is C4V
        0.48000  1.86796E-02    x=   0.0000  -0.0000  -2.4604  -0.0000   0.0000   0.3499   0.0000  -0.0000   2.1104
                 2.09279E-02   dx=   0.0000   0.0000   0.8019   0.0000   0.0000  -0.5342   0.0000   0.0000  -0.2677
 Symmetry group is C4V
        0.49000  1.84709E-02    x=   0.0000  -0.0000  -2.4684  -0.0000   0.0000   0.3553   0.0000  -0.0000   2.1131
                 2.08160E-02   dx=   0.0000   0.0000   0.8035   0.0000   0.0000  -0.5275   0.0000   0.0000  -0.2760
 Symmetry group is C4V
 SCF residual:    5.5079391274361459E-007

 Derivative Dipole

  
  
 X vector of derivative dipole (au) [debye/angstrom]
 d_dipole_x/<atom=   1,x> =     0.0100     [    0.0478]
 d_dipole_x/<atom=   1,y> =     0.0000     [    0.0000]
 d_dipole_x/<atom=   1,z> =     0.0000     [    0.0000]
 d_dipole_x/<atom=   2,x> =    -0.0519     [   -0.2493]
 d_dipole_x/<atom=   2,y> =     0.0000     [    0.0000]
 d_dipole_x/<atom=   2,z> =     0.0000     [    0.0000]
 d_dipole_x/<atom=   3,x> =     0.0419     [    0.2015]
 d_dipole_x/<atom=   3,y> =     0.0000     [    0.0000]
 d_dipole_x/<atom=   3,z> =     0.0000     [    0.0000]
  
 Y vector of derivative dipole (au) [debye/angstrom]
 d_dipole_y/<atom=   1,x> =     0.0000     [    0.0000]
 d_dipole_y/<atom=   1,y> =     0.0100     [    0.0478]
 d_dipole_y/<atom=   1,z> =     0.0000     [    0.0000]
 d_dipole_y/<atom=   2,x> =     0.0000     [    0.0000]
 d_dipole_y/<atom=   2,y> =    -0.0519     [   -0.2493]
 d_dipole_y/<atom=   2,z> =     0.0000     [    0.0000]
 d_dipole_y/<atom=   3,x> =     0.0000     [    0.0000]
 d_dipole_y/<atom=   3,y> =     0.0419     [    0.2015]
 d_dipole_y/<atom=   3,z> =     0.0000     [    0.0000]
  
 Z vector of derivative dipole (au) [debye/angstrom]
 d_dipole_z/<atom=   1,x> =     0.0000     [    0.0000]
 d_dipole_z/<atom=   1,y> =     0.0000     [    0.0000]
 d_dipole_z/<atom=   1,z> =     0.0657     [    0.3156]
 d_dipole_z/<atom=   2,x> =     0.0000     [    0.0000]
 d_dipole_z/<atom=   2,y> =     0.0000     [    0.0000]
 d_dipole_z/<atom=   2,z> =     0.0587     [    0.2820]
 d_dipole_z/<atom=   3,x> =     0.0000     [    0.0000]
 d_dipole_z/<atom=   3,y> =     0.0000     [    0.0000]
 d_dipole_z/<atom=   3,z> =    -0.1244     [   -0.5976]
  
  
        0.50000  1.82633E-02    x=   0.0000  -0.0000  -2.4764  -0.0000   0.0000   0.3606   0.0000  -0.0000   2.1159
                 2.07016E-02   dx=   0.0000   0.0000   0.8049   0.0000   0.0000  -0.5212   0.0000   0.0000  -0.2836

 Eigenvalues and eigenvectors of hessian

                       m=       1            2            3            4            5            6
  Eigenvalues (au)=           0.391047     0.008368     0.008368     0.000001     0.000000     0.000000
  Frequencies (cm^-1)=     3921.676218   573.663209   573.663209     6.696710     0.002535     0.002534
  Eigenvectors=
                        1    -0.000000     0.000000     0.309242    -0.000000     0.001449    -0.577351
                        2    -0.000000    -0.309242     0.000000    -0.000000    -0.577266    -0.001447
                        3    -0.137174     0.000000    -0.000000    -0.577350    -0.000046     0.000001
                        4     0.000000    -0.000001    -0.809050     0.000000     0.001448    -0.577348
                        5     0.000000     0.809050    -0.000001     0.000000    -0.577360    -0.001448
                        6    -0.628468     0.000000    -0.000000    -0.577351     0.000030    -0.000001
                        7     0.000000     0.000000     0.499808    -0.000000     0.001447    -0.577346
                        8     0.000000    -0.499808     0.000000     0.000000    -0.577419    -0.001449
                        9     0.765644     0.000000    -0.000000    -0.577350     0.000016    -0.000000
  

                       m=       7            8            9
  Eigenvalues (au)=           0.000000    -0.000000    -0.000000
  Frequencies (cm^-1)=        0.000027    -0.000009    -0.000063
  Eigenvectors=
                        1     0.004535    -0.755653     0.000370
                        2    -0.752679    -0.004552    -0.067713
                        3     0.072154     0.000040    -0.801651
                        4    -0.000661     0.110024    -0.000055
                        5     0.109513     0.000662     0.009890
                        6    -0.046726    -0.000026     0.519144
                        7    -0.003876     0.645636    -0.000318
                        8     0.642969     0.003887     0.057905
                        9    -0.025427    -0.000014     0.282507
  


 Sort data in file 30 so points along MEP have the reaction coordinate in ascending order.
 Also calculate the values of the reaction coordinate at the reactant and product geometries
  and shift energies so reactant v is zero.

 Summary of sorted data (all units are atomic)
     R = reactants, P = products, * = saddle point or starting geometry

         s           V               x (mass weighted)
 R   -187.13167  0.00000E+00         0.0000   0.0000 -78.2806   0.0000   0.0000 -76.5799   0.0000   0.0000 154.8605
 P    187.13167 -1.70974E-14         0.0000   0.0000-154.8605   0.0000   0.0000  76.5799   0.0000   0.0000  78.2806
 *      0.00000  2.70840E-02         0.0000   0.0000  -2.1620   0.0000   0.0000   0.0000   0.0000   0.0000   2.1620
  
       -0.50000  1.82633E-02        -0.0000   0.0000  -2.1159   0.0000  -0.0000  -0.3606  -0.0000   0.0000   2.4764
       -0.45000  1.93123E-02        -0.0000   0.0000  -2.1030   0.0000  -0.0000  -0.3335  -0.0000   0.0000   2.4364
       -0.40000  2.03870E-02        -0.0000   0.0000  -2.0930   0.0000  -0.0000  -0.3042  -0.0000   0.0000   2.3972
       -0.35000  2.14840E-02        -0.0000   0.0000  -2.0869   0.0000  -0.0000  -0.2723  -0.0000   0.0000   2.3592
       -0.30000  2.25958E-02        -0.0000   0.0000  -2.0858   0.0000  -0.0000  -0.2375  -0.0000   0.0000   2.3233
       -0.25000  2.37015E-02        -0.0000   0.0000  -2.0896   0.0000  -0.0000  -0.2004  -0.0000   0.0000   2.2900
       -0.20000  2.47571E-02        -0.0000   0.0000  -2.0980   0.0000  -0.0000  -0.1617  -0.0000   0.0000   2.2596
       -0.15000  2.56955E-02        -0.0000   0.0000  -2.1100   0.0000  -0.0000  -0.1219  -0.0000   0.0000   2.2319
       -0.10000  2.64394E-02        -0.0000   0.0000  -2.1251   0.0000  -0.0000  -0.0815  -0.0000   0.0000   2.2065
       -0.05000  2.69185E-02        -0.0000   0.0000  -2.1425   0.0000  -0.0000  -0.0408  -0.0000   0.0000   2.1833
        0.05000  2.69185E-02         0.0000  -0.0000  -2.1833  -0.0000   0.0000   0.0408   0.0000  -0.0000   2.1425
        0.10000  2.64394E-02         0.0000  -0.0000  -2.2065  -0.0000   0.0000   0.0815   0.0000  -0.0000   2.1251
        0.15000  2.56955E-02         0.0000  -0.0000  -2.2319  -0.0000   0.0000   0.1219   0.0000  -0.0000   2.1100
        0.20000  2.47571E-02         0.0000  -0.0000  -2.2596  -0.0000   0.0000   0.1617   0.0000  -0.0000   2.0980
        0.25000  2.37015E-02         0.0000  -0.0000  -2.2900  -0.0000   0.0000   0.2004   0.0000  -0.0000   2.0896
        0.30000  2.25958E-02         0.0000  -0.0000  -2.3233  -0.0000   0.0000   0.2375   0.0000  -0.0000   2.0858
        0.35000  2.14840E-02         0.0000  -0.0000  -2.3592  -0.0000   0.0000   0.2723   0.0000  -0.0000   2.0869
        0.40000  2.03870E-02         0.0000  -0.0000  -2.3972  -0.0000   0.0000   0.3042   0.0000  -0.0000   2.0930
        0.45000  1.93123E-02         0.0000  -0.0000  -2.4364  -0.0000   0.0000   0.3335   0.0000  -0.0000   2.1030
        0.50000  1.82633E-02         0.0000  -0.0000  -2.4764  -0.0000   0.0000   0.3606   0.0000  -0.0000   2.1159


 Summary of MEP data
     R = reactants, P = products, * = saddle point or starting geometry

  Cartesian coordinates, x

        s (au)   V (kcal/mol)        x (Angstroms)
 R   -187.13167  0.00000E+00
 P    187.13167 -1.07288E-11
 *      0.00000  1.69954E+01         0.0000   0.0000  -0.9342   0.0000   0.0000   0.0000   0.0000   0.0000   0.9342
       -0.50000  1.14604E+01        -0.0000   0.0000  -0.9142   0.0000  -0.0000  -0.1558  -0.0000   0.0000   1.0700
       -0.45000  1.21186E+01        -0.0000   0.0000  -0.9086   0.0000  -0.0000  -0.1441  -0.0000   0.0000   1.0527
       -0.40000  1.27930E+01        -0.0000   0.0000  -0.9043   0.0000  -0.0000  -0.1314  -0.0000   0.0000   1.0358
       -0.35000  1.34814E+01        -0.0000   0.0000  -0.9017   0.0000  -0.0000  -0.1176  -0.0000   0.0000   1.0194
       -0.30000  1.41791E+01        -0.0000   0.0000  -0.9012   0.0000  -0.0000  -0.1026  -0.0000   0.0000   1.0038
       -0.25000  1.48729E+01        -0.0000   0.0000  -0.9029   0.0000  -0.0000  -0.0866  -0.0000   0.0000   0.9895
       -0.20000  1.55353E+01        -0.0000   0.0000  -0.9065   0.0000  -0.0000  -0.0699  -0.0000   0.0000   0.9763
       -0.15000  1.61242E+01        -0.0000   0.0000  -0.9117   0.0000  -0.0000  -0.0527  -0.0000   0.0000   0.9643
       -0.10000  1.65910E+01        -0.0000   0.0000  -0.9182   0.0000  -0.0000  -0.0352  -0.0000   0.0000   0.9534
       -0.05000  1.68916E+01        -0.0000   0.0000  -0.9257   0.0000  -0.0000  -0.0176  -0.0000   0.0000   0.9434
        0.05000  1.68916E+01         0.0000  -0.0000  -0.9434  -0.0000   0.0000   0.0176   0.0000  -0.0000   0.9257
        0.10000  1.65910E+01         0.0000  -0.0000  -0.9534  -0.0000   0.0000   0.0352   0.0000  -0.0000   0.9182
        0.15000  1.61242E+01         0.0000  -0.0000  -0.9643  -0.0000   0.0000   0.0527   0.0000  -0.0000   0.9117
        0.20000  1.55353E+01         0.0000  -0.0000  -0.9763  -0.0000   0.0000   0.0699   0.0000  -0.0000   0.9065
        0.25000  1.48729E+01         0.0000  -0.0000  -0.9895  -0.0000   0.0000   0.0866   0.0000  -0.0000   0.9029
        0.30000  1.41791E+01         0.0000  -0.0000  -1.0038  -0.0000   0.0000   0.1026   0.0000  -0.0000   0.9012
        0.35000  1.34814E+01         0.0000  -0.0000  -1.0194  -0.0000   0.0000   0.1176   0.0000  -0.0000   0.9017
        0.40000  1.27930E+01         0.0000  -0.0000  -1.0358  -0.0000   0.0000   0.1314   0.0000  -0.0000   0.9043
        0.45000  1.21186E+01         0.0000  -0.0000  -1.0527  -0.0000   0.0000   0.1441   0.0000  -0.0000   0.9086
        0.50000  1.14604E+01         0.0000  -0.0000  -1.0700  -0.0000   0.0000   0.1558   0.0000  -0.0000   0.9142


  Frequencies

        s (au)                      frequencies (cm^-1)
 R   -187.13167                     4657.16
 P    187.13167                     4657.16
 *      0.00000                     2054.92  1121.41  1121.41 -2292.10
  
       -0.50000                     3921.68   573.66   573.66
       -0.45000                     3771.28   639.62   639.62
       -0.40000                     3573.14   715.93   715.93
       -0.35000                     3318.26   799.95   799.95
       -0.30000                     3021.57   884.61   884.61
       -0.25000                     2725.43   961.08   961.08
       -0.20000                     2472.13  1023.13  1023.13
       -0.15000                     2281.09  1068.74  1068.74
       -0.10000                     2152.36  1098.95  1098.95
       -0.05000                     2079.01  1115.90  1115.90
        0.05000                     2079.01  1115.90  1115.90
        0.10000                     2152.36  1098.95  1098.95
        0.15000                     2281.09  1068.74  1068.74
        0.20000                     2472.13  1023.13  1023.13
        0.25000                     2725.43   961.08   961.08
        0.30000                     3021.57   884.61   884.61
        0.35000                     3318.26   799.95   799.95
        0.40000                     3573.14   715.93   715.93
        0.45000                     3771.28   639.62   639.62
        0.50000                     3921.68   573.66   573.66
 drdy_NWChem has finished correctly, bye !

 Task  times  cpu:       10.3s     wall:       10.4s


                                     CITATION
                                     --------
                Please cite the following reference when publishing
                           results obtained with NWChem:

                 M. Valiev, E.J. Bylaska, N. Govind, K. Kowalski,
              T.P. Straatsma, H.J.J. van Dam, D. Wang, J. Nieplocha,
                        E. Apra, T.L. Windus, W.A. de Jong
                 "NWChem: a comprehensive and scalable open-source
                  solution for large scale molecular simulations"
                      Comput. Phys. Commun. 181, 1477 (2010)
                           doi:10.1016/j.cpc.2010.04.018

                                      AUTHORS
                                      -------
          E. Apra, E. J. Bylaska, W. A. de Jong, N. Govind, K. Kowalski,
       T. P. Straatsma, M. Valiev, H. J. J. van Dam, D. Wang, T. L. Windus,
        J. Hammond, J. Autschbach, K. Bhaskaran-Nair, J. Brabec, K. Lopata,
    S. A. Fischer, S. Krishnamoorthy, M. Jacquelin, W. Ma, M. Klemm, O. Villa,
      Y. Chen, V. Anisimov, F. Aquino, S. Hirata, M. T. Hackler, V. Konjkov,
            D. Mejia-Rodriguez, T. Risthaus, M. Malagoli, A. Marenich,
   A. Otero-de-la-Roza, J. Mullin, P. Nichols, R. Peverati, J. Pittner, Y. Zhao,
        P.-D. Fan, A. Fonari, M. J. Williamson, R. J. Harrison, J. R. Rehr,
      M. Dupuis, D. Silverstein, D. M. A. Smith, J. Nieplocha, V. Tipparaju,
    M. Krishnan, B. E. Van Kuiken, A. Vazquez-Mayagoitia, L. Jensen, M. Swart,
      Q. Wu, T. Van Voorhis, A. A. Auer, M. Nooijen, L. D. Crosby, E. Brown,
      G. Cisneros, G. I. Fann, H. Fruchtl, J. Garza, K. Hirao, R. A. Kendall,
      J. A. Nichols, K. Tsemekhman, K. Wolinski, J. Anchell, D. E. Bernholdt,
      P. Borowski, T. Clark, D. Clerc, H. Dachsel, M. J. O. Deegan, K. Dyall,
    D. Elwood, E. Glendening, M. Gutowski, A. C. Hess, J. Jaffe, B. G. Johnson,
     J. Ju, R. Kobayashi, R. Kutteh, Z. Lin, R. Littlefield, X. Long, B. Meng,
      T. Nakajima, S. Niu, L. Pollack, M. Rosing, K. Glaesemann, G. Sandrone,
      M. Stave, H. Taylor, G. Thomas, J. H. van Lenthe, A. T. Wong, Z. Zhang.

 Total times  cpu:       10.3s     wall:       10.5s
