 argument  1 = /home/list1234/source/nwchem-6.8.1-release/QA/tests/hess_ch4/hess_ch4.nw



============================== echo of input deck ==============================
echo
start ch4

# SCF geometry optimization and frequencies for CH4

geometry units au
  c 0    0    0
  h 1.18 1.18 1.18
  symmetry Td
end

basis spherical
  c library cc-pvdz
  h library cc-pvdz
end

scf; thresh 1e-7; print low; end

task scf optimize
task scf frequencies

dft
xc becke88 lyp
end

task dft optimize
set hess:restart f
task dft freq

================================================================================


                                         
                                         


              Northwest Computational Chemistry Package (NWChem) 6.8
              ------------------------------------------------------


                    Environmental Molecular Sciences Laboratory
                       Pacific Northwest National Laboratory
                                Richland, WA 99352

                              Copyright (c) 1994-2018
                       Pacific Northwest National Laboratory
                            Battelle Memorial Institute

             NWChem is an open-source computational chemistry package
                        distributed under the terms of the
                      Educational Community License (ECL) 2.0
             A copy of the license is included with this distribution
                              in the LICENSE.TXT file

                                  ACKNOWLEDGMENT
                                  --------------

            This software and its documentation were developed at the
            EMSL at Pacific Northwest National Laboratory, a multiprogram
            national laboratory, operated for the U.S. Department of Energy
            by Battelle under Contract Number DE-AC05-76RL01830. Support
            for this work was provided by the Department of Energy Office
            of Biological and Environmental Research, Office of Basic
            Energy Sciences, and the Office of Advanced Scientific Computing.


           Job information
           ---------------

    hostname        = list1234-B360M-H
    program         = /home/list1234/source/nwchem-6.8.1-release/bin/LINUX64/nwchem
    date            = Sun Jun 30 07:59:43 2019

    compiled        = Sun_Jun_30_05:21:11_2019
    source          = /home/list1234/source/nwchem-6.8.1-release
    nwchem branch   = Development
    nwchem revision = N/A
    ga revision     = 5.6.5
    use scalapack   = T
    input           = /home/list1234/source/nwchem-6.8.1-release/QA/tests/hess_ch4/hess_ch4.nw
    prefix          = ch4.
    data base       = ./ch4.db
    status          = startup
    nproc           =        4
    time left       =     -1s



           Memory information
           ------------------

    heap     =   86247164 doubles =    658.0 Mbytes
    stack    =   86247169 doubles =    658.0 Mbytes
    global   =  172494336 doubles =   1316.0 Mbytes (distinct from heap & stack)
    total    =  344988669 doubles =   2632.1 Mbytes
    verify   = yes
    hardfail = no 


           Directory information
           ---------------------

  0 permanent = .
  0 scratch   = .




                                NWChem Input Module
                                -------------------


 Turning off AUTOSYM since
 SYMMETRY directive was detected!


          ------
          auto-z
          ------
  Looking for out-of-plane bends
  no constraints, skipping    0.0000000000000000     
  no constraints, skipping    0.0000000000000000     


                             Geometry "geometry" -> ""
                             -------------------------

 Output coordinates in a.u. (scale by  1.000000000 to convert to a.u.)

  No.       Tag          Charge          X              Y              Z
 ---- ---------------- ---------- -------------- -------------- --------------
    1 c                    6.0000     0.00000000     0.00000000     0.00000000
    2 h                    1.0000     1.18000000     1.18000000     1.18000000
    3 h                    1.0000    -1.18000000    -1.18000000     1.18000000
    4 h                    1.0000    -1.18000000     1.18000000    -1.18000000
    5 h                    1.0000     1.18000000    -1.18000000    -1.18000000

      Atomic Mass 
      ----------- 

      c                 12.000000
      h                  1.007825


 Effective nuclear repulsion energy (a.u.)      13.5404464442

            Nuclear Dipole moment (a.u.) 
            ----------------------------
        X                 Y               Z
 ---------------- ---------------- ----------------
     0.0000000000     0.0000000000     0.0000000000

      Symmetry information
      --------------------

 Group name              Td       
 Group number             42
 Group order              24
 No. of unique centers     2

      Symmetry unique atoms

     1    2



                                Z-matrix (autoz)
                                -------- 

 Units are Angstrom for bonds and degrees for angles

      Type          Name      I     J     K     L     M      Value
      ----------- --------  ----- ----- ----- ----- ----- ----------
    1 Stretch                  1     2                       1.08154
    2 Stretch                  1     3                       1.08154
    3 Stretch                  1     4                       1.08154
    4 Stretch                  1     5                       1.08154
    5 Bend                     2     1     3               109.47122
    6 Bend                     2     1     4               109.47122
    7 Bend                     2     1     5               109.47122
    8 Bend                     3     1     4               109.47122
    9 Bend                     3     1     5               109.47122
   10 Bend                     4     1     5               109.47122


            XYZ format geometry
            -------------------
     5
 geometry
 c                     0.00000000     0.00000000     0.00000000
 h                     0.62442915     0.62442915     0.62442915
 h                    -0.62442915    -0.62442915     0.62442915
 h                    -0.62442915     0.62442915    -0.62442915
 h                     0.62442915    -0.62442915    -0.62442915

 ==============================================================================
                                internuclear distances
 ------------------------------------------------------------------------------
       center one      |      center two      | atomic units |       a.u.
 ------------------------------------------------------------------------------
    2 h                |   1 c                |     2.04382  |     2.04382
    3 h                |   1 c                |     2.04382  |     2.04382
    4 h                |   1 c                |     2.04382  |     2.04382
    5 h                |   1 c                |     2.04382  |     2.04382
 ------------------------------------------------------------------------------
                         number of included internuclear distances:          4
 ==============================================================================



 ==============================================================================
                                 internuclear angles
 ------------------------------------------------------------------------------
        center 1       |       center 2       |       center 3       |  degrees
 ------------------------------------------------------------------------------
    2 h                |   1 c                |   3 h                |   109.47
    2 h                |   1 c                |   4 h                |   109.47
    2 h                |   1 c                |   5 h                |   109.47
    3 h                |   1 c                |   4 h                |   109.47
    3 h                |   1 c                |   5 h                |   109.47
    4 h                |   1 c                |   5 h                |   109.47
 ------------------------------------------------------------------------------
                            number of included internuclear angles:          6
 ==============================================================================



                      Basis "ao basis" -> "" (spherical)
                      -----
  c (Carbon)
  ----------
            Exponent  Coefficients 
       -------------- ---------------------------------------------------------
  1 S  6.66500000E+03  0.000692
  1 S  1.00000000E+03  0.005329
  1 S  2.28000000E+02  0.027077
  1 S  6.47100000E+01  0.101718
  1 S  2.10600000E+01  0.274740
  1 S  7.49500000E+00  0.448564
  1 S  2.79700000E+00  0.285074
  1 S  5.21500000E-01  0.015204

  2 S  6.66500000E+03 -0.000146
  2 S  1.00000000E+03 -0.001154
  2 S  2.28000000E+02 -0.005725
  2 S  6.47100000E+01 -0.023312
  2 S  2.10600000E+01 -0.063955
  2 S  7.49500000E+00 -0.149981
  2 S  2.79700000E+00 -0.127262
  2 S  5.21500000E-01  0.544529

  3 S  1.59600000E-01  1.000000

  4 P  9.43900000E+00  0.038109
  4 P  2.00200000E+00  0.209480
  4 P  5.45600000E-01  0.508557

  5 P  1.51700000E-01  1.000000

  6 D  5.50000000E-01  1.000000

  h (Hydrogen)
  ------------
            Exponent  Coefficients 
       -------------- ---------------------------------------------------------
  1 S  1.30100000E+01  0.019685
  1 S  1.96200000E+00  0.137977
  1 S  4.44600000E-01  0.478148

  2 S  1.22000000E-01  1.000000

  3 P  7.27000000E-01  1.000000



 Summary of "ao basis" -> "" (spherical)
 ------------------------------------------------------------------------------
       Tag                 Description            Shells   Functions and Types
 ---------------- ------------------------------  ------  ---------------------
 c                          cc-pvdz                  6       14   3s2p1d
 h                          cc-pvdz                  3        5   2s1p




                           NWChem Geometry Optimization
                           ----------------------------


  no constraints, skipping    0.0000000000000000     
 maximum gradient threshold         (gmax) =   0.000450
 rms gradient threshold             (grms) =   0.000300
 maximum cartesian step threshold   (xmax) =   0.001800
 rms cartesian step threshold       (xrms) =   0.001200
 fixed trust radius                (trust) =   0.300000
 maximum step size to saddle      (sadstp) =   0.100000
 energy precision                  (eprec) =   1.0D-07
 maximum number of steps          (nptopt) =   20
 initial hessian option           (inhess) =    0
 line search option               (linopt) =    1
 hessian update option            (modupd) =    1
 saddle point option              (modsad) =    0
 initial eigen-mode to follow     (moddir) =    0
 initial variable to follow       (vardir) =    0
 follow first negative mode     (firstneg) =    T
 apply conjugacy                    (opcg) =    F
 source of zmatrix                         =   autoz   


          -------------------
          Energy Minimization
          -------------------


 Names of Z-matrix variables 
    1              2              3              4              5         
    6              7              8              9             10         

 Variables with the same non-blank name are constrained to be equal


 Using diagonal initial Hessian 
 Scaling for Hessian diagonals: bonds = 1.00  angles = 0.25  torsions = 0.10

          --------
          Step   0
          --------


                         Geometry "geometry" -> "geometry"
                         ---------------------------------

 Output coordinates in a.u. (scale by  1.000000000 to convert to a.u.)

  No.       Tag          Charge          X              Y              Z
 ---- ---------------- ---------- -------------- -------------- --------------
    1 c                    6.0000     0.00000000     0.00000000     0.00000000
    2 h                    1.0000     1.18000000     1.18000000     1.18000000
    3 h                    1.0000    -1.18000000    -1.18000000     1.18000000
    4 h                    1.0000    -1.18000000     1.18000000    -1.18000000
    5 h                    1.0000     1.18000000    -1.18000000    -1.18000000

      Atomic Mass 
      ----------- 

      c                 12.000000
      h                  1.007825


 Effective nuclear repulsion energy (a.u.)      13.5404464442

            Nuclear Dipole moment (a.u.) 
            ----------------------------
        X                 Y               Z
 ---------------- ---------------- ----------------
     0.0000000000     0.0000000000     0.0000000000

      Symmetry information
      --------------------

 Group name              Td       
 Group number             42
 Group order              24
 No. of unique centers     2

      Symmetry unique atoms

     1    2

                                 NWChem SCF Module
                                 -----------------



  ao basis        = "ao basis"
  functions       =    34
  atoms           =     5
  closed shells   =     5
  open shells     =     0
  charge          =   0.00
  wavefunction    = RHF 
  input vectors   = atomic
  output vectors  = ./ch4.movecs
  use symmetry    = T
  symmetry adapt  = T


 Forming initial guess at       0.0s


 Starting SCF solution at       0.1s



       Final RHF  results 
       ------------------ 

         Total SCF energy =    -40.198474976549
      One-electron energy =    -79.893976770439
      Two-electron energy =     26.155055349728
 Nuclear repulsion energy =     13.540446444162

        Time for solution =      0.2s


                              NWChem Gradients Module
                              -----------------------



                         RHF ENERGY GRADIENTS

    atom               coordinates                        gradient
                 x          y          z           x          y          z
   1 c       0.000000   0.000000   0.000000    0.000000   0.000000   0.000000
   2 h       1.180000   1.180000   1.180000   -0.003950  -0.003950  -0.003950
   3 h      -1.180000  -1.180000   1.180000    0.003950   0.003950  -0.003950
   4 h      -1.180000   1.180000  -1.180000    0.003950  -0.003950   0.003950
   5 h       1.180000  -1.180000  -1.180000   -0.003950   0.003950   0.003950

  no constraints, skipping    0.0000000000000000     

@ Step       Energy      Delta E   Gmax     Grms     Xrms     Xmax   Walltime
@ ---- ---------------- -------- -------- -------- -------- -------- --------
@    0     -40.19847498  0.0D+00  0.00684  0.00433  0.00000  0.00000      0.4
                                                                    



                                Z-matrix (autoz)
                                -------- 

 Units are Angstrom for bonds and degrees for angles

      Type          Name      I     J     K     L     M      Value     Gradient
      ----------- --------  ----- ----- ----- ----- ----- ---------- ----------
    1 Stretch                  1     2                       1.08154   -0.00684
    2 Stretch                  1     3                       1.08154   -0.00684
    3 Stretch                  1     4                       1.08154   -0.00684
    4 Stretch                  1     5                       1.08154   -0.00684
    5 Bend                     2     1     3               109.47122   -0.00000
    6 Bend                     2     1     4               109.47122    0.00000
    7 Bend                     2     1     5               109.47122   -0.00000
    8 Bend                     3     1     4               109.47122   -0.00000
    9 Bend                     3     1     5               109.47122   -0.00000
   10 Bend                     4     1     5               109.47122   -0.00000

  no constraints, skipping    0.0000000000000000     
  no constraints, skipping    0.0000000000000000     
  no constraints, skipping    0.0000000000000000     
                                 NWChem SCF Module
                                 -----------------



  ao basis        = "ao basis"
  functions       =    34
  atoms           =     5
  closed shells   =     5
  open shells     =     0
  charge          =   0.00
  wavefunction    = RHF 
  input vectors   = ./ch4.movecs
  output vectors  = ./ch4.movecs
  use symmetry    = T
  symmetry adapt  = T


 Forming initial guess at       0.4s


 Starting SCF solution at       0.4s



       Final RHF  results 
       ------------------ 

         Total SCF energy =    -40.198709031510
      One-electron energy =    -79.654018831756
      Two-electron energy =     26.042383312169
 Nuclear repulsion energy =     13.412926488077

        Time for solution =      0.2s


 Line search: 
     step= 1.00 grad=-5.3D-04 hess= 3.0D-04 energy=    -40.198709 mode=downhill
 new step= 0.89                   predicted energy=    -40.198712
  no constraints, skipping    0.0000000000000000     
  no constraints, skipping    0.0000000000000000     
  no constraints, skipping    0.0000000000000000     

          --------
          Step   1
          --------


                         Geometry "geometry" -> "geometry"
                         ---------------------------------

 Output coordinates in a.u. (scale by  1.000000000 to convert to a.u.)

  No.       Tag          Charge          X              Y              Z
 ---- ---------------- ---------- -------------- -------------- --------------
    1 c                    6.0000     0.00000000     0.00000000     0.00000000
    2 h                    1.0000     1.19001897     1.19001897     1.19001897
    3 h                    1.0000    -1.19001897    -1.19001897     1.19001897
    4 h                    1.0000    -1.19001897     1.19001897    -1.19001897
    5 h                    1.0000     1.19001897    -1.19001897    -1.19001897

      Atomic Mass 
      ----------- 

      c                 12.000000
      h                  1.007825


 Effective nuclear repulsion energy (a.u.)      13.4264471764

            Nuclear Dipole moment (a.u.) 
            ----------------------------
        X                 Y               Z
 ---------------- ---------------- ----------------
     0.0000000000     0.0000000000     0.0000000000

      Symmetry information
      --------------------

 Group name              Td       
 Group number             42
 Group order              24
 No. of unique centers     2

      Symmetry unique atoms

     1    2

                                 NWChem SCF Module
                                 -----------------



  ao basis        = "ao basis"
  functions       =    34
  atoms           =     5
  closed shells   =     5
  open shells     =     0
  charge          =   0.00
  wavefunction    = RHF 
  input vectors   = ./ch4.movecs
  output vectors  = ./ch4.movecs
  use symmetry    = T
  symmetry adapt  = T


 Forming initial guess at       0.6s


 Starting SCF solution at       0.6s



       Final RHF  results 
       ------------------ 

         Total SCF energy =    -40.198711968085
      One-electron energy =    -79.679512946397
      Two-electron energy =     26.054353801931
 Nuclear repulsion energy =     13.426447176382

        Time for solution =      0.2s


                              NWChem Gradients Module
                              -----------------------



                         RHF ENERGY GRADIENTS

    atom               coordinates                        gradient
                 x          y          z           x          y          z
   1 c       0.000000   0.000000   0.000000    0.000000   0.000000   0.000000
   2 h       1.190019   1.190019   1.190019   -0.000025  -0.000025  -0.000025
   3 h      -1.190019  -1.190019   1.190019    0.000025   0.000025  -0.000025
   4 h      -1.190019   1.190019  -1.190019    0.000025  -0.000025   0.000025
   5 h       1.190019  -1.190019  -1.190019   -0.000025   0.000025   0.000025

  no constraints, skipping    0.0000000000000000     

  Step       Energy      Delta E   Gmax     Grms     Xrms     Xmax   Walltime
  ---- ---------------- -------- -------- -------- -------- -------- --------
@    1     -40.19871197 -2.4D-04  0.00004  0.00003  0.00896  0.01002      0.8
                                     ok       ok                    



                                Z-matrix (autoz)
                                -------- 

 Units are Angstrom for bonds and degrees for angles

      Type          Name      I     J     K     L     M      Value     Gradient
      ----------- --------  ----- ----- ----- ----- ----- ---------- ----------
    1 Stretch                  1     2                       1.09073   -0.00004
    2 Stretch                  1     3                       1.09073   -0.00004
    3 Stretch                  1     4                       1.09073   -0.00004
    4 Stretch                  1     5                       1.09073   -0.00004
    5 Bend                     2     1     3               109.47122    0.00000
    6 Bend                     2     1     4               109.47122   -0.00000
    7 Bend                     2     1     5               109.47122    0.00000
    8 Bend                     3     1     4               109.47122    0.00000
    9 Bend                     3     1     5               109.47122   -0.00000
   10 Bend                     4     1     5               109.47122    0.00000

  no constraints, skipping    0.0000000000000000     
  no constraints, skipping    0.0000000000000000     
  no constraints, skipping    0.0000000000000000     
                                 NWChem SCF Module
                                 -----------------



  ao basis        = "ao basis"
  functions       =    34
  atoms           =     5
  closed shells   =     5
  open shells     =     0
  charge          =   0.00
  wavefunction    = RHF 
  input vectors   = ./ch4.movecs
  output vectors  = ./ch4.movecs
  use symmetry    = T
  symmetry adapt  = T


 Forming initial guess at       0.8s


 Starting SCF solution at       0.8s



       Final RHF  results 
       ------------------ 

         Total SCF energy =    -40.198711977693
      One-electron energy =    -79.678169730074
      Two-electron energy =     26.053723105655
 Nuclear repulsion energy =     13.425734646725

        Time for solution =      0.1s


 Line search: 
     step= 1.00 grad=-1.9D-08 hess= 9.1D-09 energy=    -40.198712 mode=accept  
 new step= 1.00                   predicted energy=    -40.198712
  no constraints, skipping    0.0000000000000000     
  no constraints, skipping    0.0000000000000000     
  no constraints, skipping    0.0000000000000000     

          --------
          Step   2
          --------


                         Geometry "geometry" -> "geometry"
                         ---------------------------------

 Output coordinates in a.u. (scale by  1.000000000 to convert to a.u.)

  No.       Tag          Charge          X              Y              Z
 ---- ---------------- ---------- -------------- -------------- --------------
    1 c                    6.0000     0.00000000     0.00000000     0.00000000
    2 h                    1.0000     1.19008212     1.19008212     1.19008212
    3 h                    1.0000    -1.19008212    -1.19008212     1.19008212
    4 h                    1.0000    -1.19008212     1.19008212    -1.19008212
    5 h                    1.0000     1.19008212    -1.19008212    -1.19008212

      Atomic Mass 
      ----------- 

      c                 12.000000
      h                  1.007825


 Effective nuclear repulsion energy (a.u.)      13.4257346467

            Nuclear Dipole moment (a.u.) 
            ----------------------------
        X                 Y               Z
 ---------------- ---------------- ----------------
     0.0000000000     0.0000000000     0.0000000000

      Symmetry information
      --------------------

 Group name              Td       
 Group number             42
 Group order              24
 No. of unique centers     2

      Symmetry unique atoms

     1    2

                                 NWChem SCF Module
                                 -----------------



  ao basis        = "ao basis"
  functions       =    34
  atoms           =     5
  closed shells   =     5
  open shells     =     0
  charge          =   0.00
  wavefunction    = RHF 
  input vectors   = ./ch4.movecs
  output vectors  = ./ch4.movecs
  use symmetry    = T
  symmetry adapt  = T


  The SCF is already converged 

         Total SCF energy =    -40.198711977693

                              NWChem Gradients Module
                              -----------------------



                         RHF ENERGY GRADIENTS

    atom               coordinates                        gradient
                 x          y          z           x          y          z
   1 c       0.000000   0.000000   0.000000    0.000000   0.000000   0.000000
   2 h       1.190082   1.190082   1.190082   -0.000001  -0.000001  -0.000001
   3 h      -1.190082  -1.190082   1.190082    0.000001   0.000001  -0.000001
   4 h      -1.190082   1.190082  -1.190082    0.000001  -0.000001   0.000001
   5 h       1.190082  -1.190082  -1.190082   -0.000001   0.000001   0.000001

  no constraints, skipping    0.0000000000000000     

  Step       Energy      Delta E   Gmax     Grms     Xrms     Xmax   Walltime
  ---- ---------------- -------- -------- -------- -------- -------- --------
@    2     -40.19871198 -9.6D-09  0.00000  0.00000  0.00006  0.00006      1.0
                                     ok       ok       ok       ok  



                                Z-matrix (autoz)
                                -------- 

 Units are Angstrom for bonds and degrees for angles

      Type          Name      I     J     K     L     M      Value     Gradient
      ----------- --------  ----- ----- ----- ----- ----- ---------- ----------
    1 Stretch                  1     2                       1.09078   -0.00000
    2 Stretch                  1     3                       1.09078   -0.00000
    3 Stretch                  1     4                       1.09078   -0.00000
    4 Stretch                  1     5                       1.09078   -0.00000
    5 Bend                     2     1     3               109.47122    0.00000
    6 Bend                     2     1     4               109.47122    0.00000
    7 Bend                     2     1     5               109.47122   -0.00000
    8 Bend                     3     1     4               109.47122    0.00000
    9 Bend                     3     1     5               109.47122   -0.00000
   10 Bend                     4     1     5               109.47122   -0.00000


      ----------------------
      Optimization converged
      ----------------------


  Step       Energy      Delta E   Gmax     Grms     Xrms     Xmax   Walltime
  ---- ---------------- -------- -------- -------- -------- -------- --------
@    2     -40.19871198 -9.6D-09  0.00000  0.00000  0.00006  0.00006      1.0
                                     ok       ok       ok       ok  



                                Z-matrix (autoz)
                                -------- 

 Units are Angstrom for bonds and degrees for angles

      Type          Name      I     J     K     L     M      Value     Gradient
      ----------- --------  ----- ----- ----- ----- ----- ---------- ----------
    1 Stretch                  1     2                       1.09078   -0.00000
    2 Stretch                  1     3                       1.09078   -0.00000
    3 Stretch                  1     4                       1.09078   -0.00000
    4 Stretch                  1     5                       1.09078   -0.00000
    5 Bend                     2     1     3               109.47122    0.00000
    6 Bend                     2     1     4               109.47122    0.00000
    7 Bend                     2     1     5               109.47122   -0.00000
    8 Bend                     3     1     4               109.47122    0.00000
    9 Bend                     3     1     5               109.47122   -0.00000
   10 Bend                     4     1     5               109.47122   -0.00000



                         Geometry "geometry" -> "geometry"
                         ---------------------------------

 Output coordinates in a.u. (scale by  1.000000000 to convert to a.u.)

  No.       Tag          Charge          X              Y              Z
 ---- ---------------- ---------- -------------- -------------- --------------
    1 c                    6.0000     0.00000000     0.00000000     0.00000000
    2 h                    1.0000     1.19008212     1.19008212     1.19008212
    3 h                    1.0000    -1.19008212    -1.19008212     1.19008212
    4 h                    1.0000    -1.19008212     1.19008212    -1.19008212
    5 h                    1.0000     1.19008212    -1.19008212    -1.19008212

      Atomic Mass 
      ----------- 

      c                 12.000000
      h                  1.007825


 Effective nuclear repulsion energy (a.u.)      13.4257346467

            Nuclear Dipole moment (a.u.) 
            ----------------------------
        X                 Y               Z
 ---------------- ---------------- ----------------
     0.0000000000     0.0000000000     0.0000000000

      Symmetry information
      --------------------

 Group name              Td       
 Group number             42
 Group order              24
 No. of unique centers     2

      Symmetry unique atoms

     1    2


                Final and change from initial internal coordinates
                --------------------------------------------------



                                Z-matrix (autoz)
                                -------- 

 Units are Angstrom for bonds and degrees for angles

      Type          Name      I     J     K     L     M      Value       Change
      ----------- --------  ----- ----- ----- ----- ----- ---------- ----------
    1 Stretch                  1     2                       1.09078    0.00924
    2 Stretch                  1     3                       1.09078    0.00924
    3 Stretch                  1     4                       1.09078    0.00924
    4 Stretch                  1     5                       1.09078    0.00924
    5 Bend                     2     1     3               109.47122    0.00000
    6 Bend                     2     1     4               109.47122    0.00000
    7 Bend                     2     1     5               109.47122    0.00000
    8 Bend                     3     1     4               109.47122    0.00000
    9 Bend                     3     1     5               109.47122    0.00000
   10 Bend                     4     1     5               109.47122    0.00000

 ==============================================================================
                                internuclear distances
 ------------------------------------------------------------------------------
       center one      |      center two      | atomic units |       a.u.
 ------------------------------------------------------------------------------
    2 h                |   1 c                |     2.06128  |     2.06128
    3 h                |   1 c                |     2.06128  |     2.06128
    4 h                |   1 c                |     2.06128  |     2.06128
    5 h                |   1 c                |     2.06128  |     2.06128
 ------------------------------------------------------------------------------
                         number of included internuclear distances:          4
 ==============================================================================



 ==============================================================================
                                 internuclear angles
 ------------------------------------------------------------------------------
        center 1       |       center 2       |       center 3       |  degrees
 ------------------------------------------------------------------------------
    2 h                |   1 c                |   3 h                |   109.47
    2 h                |   1 c                |   4 h                |   109.47
    2 h                |   1 c                |   5 h                |   109.47
    3 h                |   1 c                |   4 h                |   109.47
    3 h                |   1 c                |   5 h                |   109.47
    4 h                |   1 c                |   5 h                |   109.47
 ------------------------------------------------------------------------------
                            number of included internuclear angles:          6
 ==============================================================================




 Task  times  cpu:        0.9s     wall:        0.9s


                                NWChem Input Module
                                -------------------




                   NWChem Nuclear Hessian and Frequency Analysis
                   ---------------------------------------------



                              NWChem Analytic Hessian
                              -----------------------

                                 NWChem SCF Module
                                 -----------------



  ao basis        = "ao basis"
  functions       =    34
  atoms           =     5
  closed shells   =     5
  open shells     =     0
  charge          =   0.00
  wavefunction    = RHF 
  input vectors   = ./ch4.movecs
  output vectors  = ./ch4.movecs
  use symmetry    = F
  symmetry adapt  = F


 Forming initial guess at       1.0s


 Starting SCF solution at       1.0s



       Final RHF  results 
       ------------------ 

         Total SCF energy =    -40.198711977693
      One-electron energy =    -79.678169730074
      Two-electron energy =     26.053723105655
 Nuclear repulsion energy =     13.425734646725

        Time for solution =      0.0s



 HESSIAN: the one electron contributions are done in       0.0s


 HESSIAN: 2-el 1st deriv. term done in                     0.1s


 HESSIAN: 2-el 2nd deriv. term done in                     0.2s

  stpr_wrt_fd_from_sq: overwrite of existing file:./ch4.hess
 stpr_wrt_fd_dipole: overwrite of existing file./ch4.fd_ddipole

 HESSIAN: the two electron contributions are done in       0.3s

                                NWChem CPHF Module
                                ------------------


  scftype          =     RHF 
  nclosed          =        5
  nopen            =        0
  variables        =      145
  # of vectors     =       15
  tolerance        = 0.10D-03
  level shift      = 0.00D+00
  max iterations   =       50
  max subspace     =      150

 SCF residual:    5.6289253829024047E-009


Iterative solution of linear equations
  No. of variables      145
  No. of equations       15
  Maximum subspace      150
        Iterations       50
       Convergence  1.0D-04
        Start time      1.5


   iter   nsub   residual    time
   ----  ------  --------  ---------
     1     15    7.24D-02       1.5
     2     30    1.38D-02       1.6
     3     45    2.05D-03       1.6
     4     60    2.77D-04       1.7
     5     75    1.36D-05       1.8
 HESSIAN: the CPHF contributions are done
  stpr_wrt_fd_from_sq: overwrite of existing file:./ch4.hess
 stpr_wrt_fd_dipole: overwrite of existing file./ch4.fd_ddipole

 Derivative Dipole

  
  
 X vector of derivative dipole (au) [debye/angstrom]
 d_dipole_x/<atom=   1,x> =     0.0606     [    0.2909]
 d_dipole_x/<atom=   1,y> =    -0.0000     [   -0.0000]
 d_dipole_x/<atom=   1,z> =     0.0000     [    0.0000]
 d_dipole_x/<atom=   2,x> =    -0.0151     [   -0.0727]
 d_dipole_x/<atom=   2,y> =    -0.0746     [   -0.3585]
 d_dipole_x/<atom=   2,z> =    -0.0746     [   -0.3585]
 d_dipole_x/<atom=   3,x> =    -0.0151     [   -0.0727]
 d_dipole_x/<atom=   3,y> =    -0.0746     [   -0.3585]
 d_dipole_x/<atom=   3,z> =     0.0746     [    0.3585]
 d_dipole_x/<atom=   4,x> =    -0.0151     [   -0.0727]
 d_dipole_x/<atom=   4,y> =     0.0746     [    0.3585]
 d_dipole_x/<atom=   4,z> =    -0.0746     [   -0.3585]
 d_dipole_x/<atom=   5,x> =    -0.0151     [   -0.0727]
 d_dipole_x/<atom=   5,y> =     0.0746     [    0.3585]
 d_dipole_x/<atom=   5,z> =     0.0746     [    0.3585]
  
 Y vector of derivative dipole (au) [debye/angstrom]
 d_dipole_y/<atom=   1,x> =    -0.0000     [   -0.0000]
 d_dipole_y/<atom=   1,y> =     0.0606     [    0.2909]
 d_dipole_y/<atom=   1,z> =     0.0000     [    0.0000]
 d_dipole_y/<atom=   2,x> =    -0.0746     [   -0.3585]
 d_dipole_y/<atom=   2,y> =    -0.0151     [   -0.0727]
 d_dipole_y/<atom=   2,z> =    -0.0746     [   -0.3585]
 d_dipole_y/<atom=   3,x> =    -0.0746     [   -0.3585]
 d_dipole_y/<atom=   3,y> =    -0.0151     [   -0.0727]
 d_dipole_y/<atom=   3,z> =     0.0746     [    0.3585]
 d_dipole_y/<atom=   4,x> =     0.0746     [    0.3585]
 d_dipole_y/<atom=   4,y> =    -0.0151     [   -0.0727]
 d_dipole_y/<atom=   4,z> =     0.0746     [    0.3585]
 d_dipole_y/<atom=   5,x> =     0.0746     [    0.3585]
 d_dipole_y/<atom=   5,y> =    -0.0151     [   -0.0727]
 d_dipole_y/<atom=   5,z> =    -0.0746     [   -0.3585]
  
 Z vector of derivative dipole (au) [debye/angstrom]
 d_dipole_z/<atom=   1,x> =     0.0000     [    0.0000]
 d_dipole_z/<atom=   1,y> =    -0.0000     [   -0.0000]
 d_dipole_z/<atom=   1,z> =     0.0606     [    0.2909]
 d_dipole_z/<atom=   2,x> =    -0.0746     [   -0.3585]
 d_dipole_z/<atom=   2,y> =    -0.0746     [   -0.3585]
 d_dipole_z/<atom=   2,z> =    -0.0151     [   -0.0727]
 d_dipole_z/<atom=   3,x> =     0.0746     [    0.3585]
 d_dipole_z/<atom=   3,y> =     0.0746     [    0.3585]
 d_dipole_z/<atom=   3,z> =    -0.0151     [   -0.0727]
 d_dipole_z/<atom=   4,x> =    -0.0746     [   -0.3585]
 d_dipole_z/<atom=   4,y> =     0.0746     [    0.3585]
 d_dipole_z/<atom=   4,z> =    -0.0151     [   -0.0727]
 d_dipole_z/<atom=   5,x> =     0.0746     [    0.3585]
 d_dipole_z/<atom=   5,y> =    -0.0746     [   -0.3585]
 d_dipole_z/<atom=   5,z> =    -0.0151     [   -0.0727]
  
  
 HESSIAN: the Hessian is done


  Vibrational analysis via the FX method 

  See chapter 2 in "Molecular Vibrations" by Wilson, Decius and Cross

  Vib: Default input used 

  Nuclear Hessian passed symmetry test 



 ---------------------------- Atom information ----------------------------
     atom    #        X              Y              Z            mass
 --------------------------------------------------------------------------
    C        1  0.0000000D+00  0.0000000D+00  0.0000000D+00  1.2000000D+01
    H        2  1.1900821D+00  1.1900821D+00  1.1900821D+00  1.0078250D+00
    H        3 -1.1900821D+00 -1.1900821D+00  1.1900821D+00  1.0078250D+00
    H        4 -1.1900821D+00  1.1900821D+00 -1.1900821D+00  1.0078250D+00
    H        5  1.1900821D+00 -1.1900821D+00 -1.1900821D+00  1.0078250D+00
 --------------------------------------------------------------------------




          ----------------------------------------------------
          MASS-WEIGHTED NUCLEAR HESSIAN (Hartree/Bohr/Bohr/Kamu)
          ----------------------------------------------------


               1            2            3            4            5            6            7            8            9           10
   ----- ----- ----- ----- -----
    1    5.05473D+01
    2    8.14050D-14  5.05473D+01
    3    6.45414D-14  2.12017D-14  5.05473D+01
    4   -4.36050D+01 -2.83568D+01 -2.83568D+01  1.57646D+02
    5   -2.83568D+01 -4.36050D+01 -2.83568D+01  1.07606D+02  1.57646D+02
    6   -2.83568D+01 -2.83568D+01 -4.36050D+01  1.07606D+02  1.07606D+02  1.57646D+02
    7   -4.36050D+01 -2.83568D+01  2.83568D+01 -1.10982D+01 -9.75736D+00  1.26345D+01  1.57646D+02
    8   -2.83568D+01 -4.36050D+01  2.83568D+01 -9.75736D+00 -1.10982D+01  1.26345D+01  1.07606D+02  1.57646D+02
    9    2.83568D+01  2.83568D+01 -4.36050D+01 -1.26345D+01 -1.26345D+01  1.50145D+01 -1.07606D+02 -1.07606D+02  1.57646D+02
   10   -4.36050D+01  2.83568D+01 -2.83568D+01 -1.10982D+01  1.26345D+01 -9.75736D+00  1.50145D+01 -1.26345D+01  1.26345D+01  1.57646D+02
   11    2.83568D+01 -4.36050D+01  2.83568D+01 -1.26345D+01  1.50145D+01 -1.26345D+01  1.26345D+01 -1.10982D+01  9.75736D+00 -1.07606D+02
   12   -2.83568D+01  2.83568D+01 -4.36050D+01 -9.75736D+00  1.26345D+01 -1.10982D+01 -1.26345D+01  9.75736D+00 -1.10982D+01  1.07606D+02
   13   -4.36050D+01  2.83568D+01  2.83568D+01  1.50145D+01 -1.26345D+01 -1.26345D+01 -1.10982D+01  1.26345D+01  9.75736D+00 -1.10982D+01
   14    2.83568D+01 -4.36050D+01 -2.83568D+01  1.26345D+01 -1.10982D+01 -9.75736D+00 -1.26345D+01  1.50145D+01  1.26345D+01  9.75736D+00
   15    2.83568D+01 -2.83568D+01 -4.36050D+01  1.26345D+01 -9.75736D+00 -1.10982D+01  9.75736D+00 -1.26345D+01 -1.10982D+01 -1.26345D+01


              11           12           13           14           15
   ----- ----- ----- ----- -----
   11    1.57646D+02
   12   -1.07606D+02  1.57646D+02
   13    9.75736D+00  1.26345D+01  1.57646D+02
   14   -1.10982D+01 -1.26345D+01 -1.07606D+02  1.57646D+02
   15    1.26345D+01  1.50145D+01 -1.07606D+02  1.07606D+02  1.57646D+02



          -------------------------------------------------
          NORMAL MODE EIGENVECTORS IN CARTESIAN COORDINATES
          -------------------------------------------------
                 (Frequencies expressed in cm-1)

                    1           2           3           4           5           6
 
 Frequency         -3.40       -3.40       -3.40       -0.12        0.01        0.12
 
           1     0.00000    -0.00021    -0.00000     0.17658    -0.00008    -0.17662
           2    -0.00021     0.00000     0.00001    -0.15795     0.11169    -0.15797
           3     0.00021     0.00000    -0.00001    -0.07904    -0.22339    -0.07892
           4    -0.01560    -0.34824    -0.35594     0.17638    -0.00008    -0.17642
           5    -0.33660    -0.00415     0.36727    -0.15786     0.11130    -0.15787
           6     0.35220     0.35218    -0.01133    -0.07892    -0.22300    -0.07922
           7     0.01529    -0.35649     0.34769     0.17638    -0.00008    -0.17642
           8    -0.36749     0.00410    -0.33636    -0.15786     0.11130    -0.15787
           9    -0.35179    -0.35218     0.01131    -0.07915    -0.22378    -0.07862
          10    -0.01529     0.35607    -0.34769     0.17679    -0.00008    -0.17683
          11     0.33619     0.00415    -0.36725    -0.15805     0.11209    -0.15806
          12     0.35189    -0.35213    -0.01957    -0.07934    -0.22300    -0.07881
          13     0.01560     0.34782     0.35594     0.17679    -0.00008    -0.17683
          14     0.36707    -0.00410     0.33638    -0.15805     0.11209    -0.15806
          15    -0.35148     0.35213     0.01956    -0.07874    -0.22378    -0.07903

                    7           8           9          10          11          12
 
 Frequency       1433.27     1433.27     1433.27     1647.87     1647.87     3164.83
 
           1     0.08108     0.00001    -0.08108     0.00000    -0.00000     0.00000
           2     0.07252    -0.05127     0.07252    -0.00000    -0.00000    -0.00000
           3     0.03624     0.10256     0.03626     0.00000     0.00000    -0.00000
           4    -0.03739     0.09614     0.44529     0.18572     0.36178     0.28755
           5     0.00410     0.34493    -0.29989     0.22045    -0.34172     0.28755
           6     0.18011    -0.40139    -0.12398    -0.40617    -0.02005     0.28755
           7    -0.17331    -0.28846     0.30932    -0.18572    -0.36178    -0.28755
           8    -0.13182    -0.03967    -0.43586    -0.22045     0.34172    -0.28755
           9    -0.39589    -0.20918    -0.09188    -0.40617    -0.02005     0.28755
          10    -0.30936     0.28839     0.17335    -0.18572    -0.36178    -0.28755
          11    -0.43586    -0.03972    -0.13182     0.22045    -0.34172     0.28755
          12    -0.09185    -0.20914    -0.39592     0.40617     0.02005    -0.28755
          13    -0.44528    -0.09621     0.03738     0.18572     0.36178     0.28755
          14    -0.29994     0.34489     0.00415    -0.22045     0.34172    -0.28755
          15    -0.12392    -0.40143     0.18006     0.40617     0.02005    -0.28755

                   13          14          15
 
 Frequency       3285.63     3285.63     3285.63
 
           1     0.06248    -0.00000    -0.06250
           2     0.05590    -0.03952     0.05588
           3     0.02795     0.07904     0.02794
           4    -0.45065    -0.12475    -0.07855
           5    -0.45183    -0.13186    -0.05726
           6    -0.45686    -0.11053    -0.06229
           7    -0.27420     0.37424     0.09784
           8    -0.27538     0.36713     0.11913
           9     0.29046    -0.36003    -0.10405
          10    -0.09775    -0.37424     0.27423
          11     0.11904     0.36713    -0.27542
          12    -0.10396    -0.36002     0.29050
          13     0.07870     0.12475     0.45062
          14    -0.05741    -0.13186    -0.45181
          15    -0.06243    -0.11053    -0.45684



 ----------------------------------------------------------------------------
 Normal Eigenvalue ||         Derivative Dipole Moments (debye/angs)
  Mode   [cm**-1]  ||      [d/dqX]             [d/dqY]           [d/dqZ]
 ------ ---------- || ------------------ ------------------ -----------------
    1       -3.402 ||       0.000               0.000            -0.000
    2       -3.402 ||       0.000               0.000             0.000
    3       -3.402 ||       0.000              -0.000             0.000
    4       -0.123 ||       0.000              -0.000            -0.000
    5        0.008 ||       0.000              -0.000             0.000
    6        0.124 ||       0.000               0.000             0.000
    7     1433.274 ||       0.342               0.306             0.153
    8     1433.274 ||       0.000              -0.216             0.433
    9     1433.274 ||       0.342              -0.306            -0.153
   10     1647.868 ||       0.000              -0.000             0.000
   11     1647.868 ||      -0.000              -0.000             0.000
   12     3164.829 ||      -0.000               0.000             0.000
   13     3285.632 ||       0.638               0.571             0.285
   14     3285.632 ||      -0.000              -0.403             0.807
   15     3285.632 ||       0.638              -0.571            -0.285
 ----------------------------------------------------------------------------



  
  
 ----------------------------------------------------------------------------
 Normal Eigenvalue ||                 Infra Red Intensities
  Mode   [cm**-1]  || [atomic units] [(debye/angs)**2] [(KM/mol)] [arbitrary]
 ------ ---------- || -------------- ----------------- ---------- -----------
    1       -3.402 ||    0.000000           0.000         0.000       0.000
    2       -3.402 ||    0.000000           0.000         0.000       0.000
    3       -3.402 ||    0.000000           0.000         0.000       0.000
    4       -0.123 ||    0.000000           0.000         0.000       0.000
    5        0.008 ||    0.000000           0.000         0.000       0.000
    6        0.124 ||    0.000000           0.000         0.000       0.000
    7     1433.274 ||    0.010152           0.234         9.897      11.172
    8     1433.274 ||    0.010152           0.234         9.897      11.172
    9     1433.274 ||    0.010152           0.234         9.897      11.172
   10     1647.868 ||    0.000000           0.000         0.000       0.000
   11     1647.868 ||    0.000000           0.000         0.000       0.000
   12     3164.829 ||    0.000000           0.000         0.000       0.000
   13     3285.632 ||    0.035284           0.814        34.397      38.828
   14     3285.632 ||    0.035284           0.814        34.397      38.828
   15     3285.632 ||    0.035284           0.814        34.397      38.828
 ----------------------------------------------------------------------------





        Vibrational analysis via the FX method 
  --- with translations and rotations projected out ---
  --- via the Eckart algorithm                      ---
 Projected Nuclear Hessian trans-rot subspace norm:2.9220D-33
                         (should be close to zero!) 

          --------------------------------------------------------
          MASS-WEIGHTED PROJECTED HESSIAN (Hartree/Bohr/Bohr/Kamu)
          --------------------------------------------------------


               1            2            3            4            5            6            7            8            9           10
   ----- ----- ----- ----- -----
    1    5.05473D+01
    2    2.75201D-08  5.05473D+01
    3    1.37600D-08  1.35163D-14  5.05473D+01
    4   -4.36050D+01 -2.83568D+01 -2.83568D+01  1.57647D+02
    5   -2.83568D+01 -4.36050D+01 -2.83568D+01  1.07606D+02  1.57647D+02
    6   -2.83568D+01 -2.83568D+01 -4.36050D+01  1.07606D+02  1.07606D+02  1.57647D+02
    7   -4.36050D+01 -2.83568D+01  2.83568D+01 -1.10982D+01 -9.75730D+00  1.26344D+01  1.57647D+02
    8   -2.83568D+01 -4.36050D+01  2.83568D+01 -9.75730D+00 -1.10982D+01  1.26344D+01  1.07606D+02  1.57647D+02
    9    2.83568D+01  2.83568D+01 -4.36050D+01 -1.26344D+01 -1.26344D+01  1.50144D+01 -1.07606D+02 -1.07606D+02  1.57647D+02
   10   -4.36050D+01  2.83568D+01 -2.83568D+01 -1.10982D+01  1.26344D+01 -9.75730D+00  1.50144D+01 -1.26344D+01  1.26344D+01  1.57647D+02
   11    2.83568D+01 -4.36050D+01  2.83568D+01 -1.26344D+01  1.50144D+01 -1.26344D+01  1.26344D+01 -1.10982D+01  9.75730D+00 -1.07606D+02
   12   -2.83568D+01  2.83568D+01 -4.36050D+01 -9.75730D+00  1.26344D+01 -1.10982D+01 -1.26344D+01  9.75730D+00 -1.10982D+01  1.07606D+02
   13   -4.36050D+01  2.83568D+01  2.83568D+01  1.50144D+01 -1.26344D+01 -1.26344D+01 -1.10982D+01  1.26344D+01  9.75730D+00 -1.10982D+01
   14    2.83568D+01 -4.36050D+01 -2.83568D+01  1.26344D+01 -1.10982D+01 -9.75730D+00 -1.26344D+01  1.50144D+01  1.26344D+01  9.75730D+00
   15    2.83568D+01 -2.83568D+01 -4.36050D+01  1.26344D+01 -9.75730D+00 -1.10982D+01  9.75730D+00 -1.26344D+01 -1.10982D+01 -1.26344D+01


              11           12           13           14           15
   ----- ----- ----- ----- -----
   11    1.57647D+02
   12   -1.07606D+02  1.57647D+02
   13    9.75730D+00  1.26344D+01  1.57647D+02
   14   -1.10982D+01 -1.26344D+01 -1.07606D+02  1.57647D+02
   15    1.26344D+01  1.50144D+01 -1.07606D+02  1.07606D+02  1.57647D+02

 center of mass
 --------------
 x =   0.00000000 y =   0.00000000 z =   0.00000000

 moments of inertia (a.u.)
 ------------------
          11.419023790078           0.000000000000           0.000000000000
           0.000000000000          11.419023790078           0.000000000000
           0.000000000000           0.000000000000          11.419023790078

 Rotational Constants
 --------------------
 A=   5.271920 cm-1  (  7.584947 K)
 B=   5.271920 cm-1  (  7.584947 K)
 C=   5.271920 cm-1  (  7.584947 K)


 Temperature                      =   298.15K
 frequency scaling parameter      =   1.0000

 Zero-Point correction to Energy  =   29.460 kcal/mol  (  0.046947 au)
 Thermal correction to Energy     =   31.252 kcal/mol  (  0.049803 au)
 Thermal correction to Enthalpy   =   31.844 kcal/mol  (  0.050747 au)

 Total Entropy                    =   44.425 cal/mol-K
   - Translational                =   34.246 cal/mol-K (mol. weight =  16.0313)
   - Rotational                   =   10.120 cal/mol-K (symmetry #  =       12)
   - Vibrational                  =    0.059 cal/mol-K

 Cv (constant volume heat capacity) =    6.331 cal/mol-K
   - Translational                  =    2.979 cal/mol-K
   - Rotational                     =    2.979 cal/mol-K
   - Vibrational                    =    0.372 cal/mol-K



          -------------------------------------------------
          NORMAL MODE EIGENVECTORS IN CARTESIAN COORDINATES
          -------------------------------------------------
             (Projected Frequencies expressed in cm-1)

                    1           2           3           4           5           6
 
 P.Frequency       -0.00       -0.00        0.00        0.00        0.00        0.00
 
           1    -0.00595     0.00104    -0.00050     0.00712    -0.00016     0.24958
           2    -0.00960     0.02159    -0.00602    -0.00422     0.24853    -0.00005
           3     0.00877     0.00495     0.24829     0.02429     0.00634    -0.00000
           4     0.23934    -0.35300     0.02103    -0.23893     0.03641     0.26398
           5     0.24163     0.38850    -0.04327     0.21612     0.22920    -0.00196
           6    -0.48775    -0.00792     0.26401     0.04999    -0.01091    -0.01250
           7     0.22167     0.34776     0.01200    -0.26690    -0.02584     0.26138
           8     0.25930    -0.31226    -0.03425     0.24409     0.29145     0.00065
           9     0.50529     0.01782     0.23256    -0.00141     0.02358     0.01249
          10    -0.23357    -0.34568    -0.01301     0.28113     0.02551     0.23778
          11    -0.26083    -0.34533     0.03123    -0.22457     0.26785     0.00186
          12    -0.01484    -0.01525     0.29805    -0.47007    -0.00001     0.01371
          13    -0.25124     0.35508    -0.02203     0.25316    -0.03673     0.23518
          14    -0.27850     0.35543     0.02221    -0.25253     0.20561    -0.00074
          15     0.03239     0.02515     0.19853     0.51865     0.01269    -0.01371

                    7           8           9          10          11          12
 
 P.Frequency     1433.27     1433.27     1433.27     1647.87     1647.87     3164.83
 
           1     0.08108    -0.00000    -0.08108    -0.00000    -0.00000     0.00000
           2     0.07252    -0.05128     0.07252    -0.00000    -0.00000    -0.00000
           3     0.03626     0.10255     0.03626     0.00000     0.00000    -0.00000
           4    -0.03738     0.09615     0.44529     0.36178     0.18572     0.28755
           5     0.00415     0.34493    -0.29989    -0.34172     0.22045     0.28755
           6     0.18006    -0.40141    -0.12398    -0.02005    -0.40617     0.28755
           7    -0.17335    -0.28844     0.30932    -0.36178    -0.18572    -0.28755
           8    -0.13182    -0.03966    -0.43586     0.34172    -0.22045    -0.28755
           9    -0.39592    -0.20912    -0.09188    -0.02005    -0.40617     0.28755
          10    -0.30932     0.28844     0.17335    -0.36178    -0.18572    -0.28755
          11    -0.43586    -0.03966    -0.13182    -0.34172     0.22045     0.28755
          12    -0.09188    -0.20912    -0.39592     0.02005     0.40617    -0.28755
          13    -0.44529    -0.09615     0.03738     0.36178     0.18572     0.28755
          14    -0.29989     0.34493     0.00415     0.34172    -0.22045    -0.28755
          15    -0.12398    -0.40141     0.18006     0.02005     0.40617    -0.28755

                   13          14          15
 
 P.Frequency     3285.63     3285.63     3285.63
 
           1     0.06249     0.00000    -0.06249
           2     0.05589    -0.03952     0.05589
           3     0.02794     0.07904     0.02794
           4    -0.45063    -0.12475    -0.07863
           5    -0.45182    -0.13186    -0.05733
           6    -0.45684    -0.11054    -0.06236
           7    -0.27422     0.37424     0.09779
           8    -0.27540     0.36713     0.11909
           9     0.29048    -0.36002    -0.10401
          10    -0.09779    -0.37424     0.27421
          11     0.11908     0.36714    -0.27540
          12    -0.10400    -0.36003     0.29048
          13     0.07862     0.12475     0.45063
          14    -0.05733    -0.13186    -0.45182
          15    -0.06236    -0.11053    -0.45685



 ----------------------------------------------------------------------------
 Normal Eigenvalue ||    Projected Derivative Dipole Moments (debye/angs)
  Mode   [cm**-1]  ||      [d/dqX]             [d/dqY]           [d/dqZ]
 ------ ---------- || ------------------ ------------------ -----------------
    1       -0.000 ||      -0.000              -0.000            -0.000
    2       -0.000 ||       0.000               0.000             0.000
    3        0.000 ||       0.000              -0.000             0.000
    4        0.000 ||      -0.000              -0.000             0.000
    5        0.000 ||       0.000               0.000             0.000
    6        0.000 ||       0.000              -0.000            -0.000
    7     1433.274 ||       0.342               0.306             0.153
    8     1433.274 ||      -0.000              -0.216             0.433
    9     1433.274 ||       0.342              -0.306            -0.153
   10     1647.868 ||       0.000               0.000            -0.000
   11     1647.868 ||      -0.000               0.000            -0.000
   12     3164.829 ||      -0.000              -0.000            -0.000
   13     3285.632 ||       0.638               0.571             0.285
   14     3285.632 ||       0.000              -0.403             0.807
   15     3285.632 ||       0.638              -0.571            -0.285
 ----------------------------------------------------------------------------



  
  
 ----------------------------------------------------------------------------
 Normal Eigenvalue ||           Projected Infra Red Intensities
  Mode   [cm**-1]  || [atomic units] [(debye/angs)**2] [(KM/mol)] [arbitrary]
 ------ ---------- || -------------- ----------------- ---------- -----------
    1       -0.000 ||    0.000000           0.000         0.000       0.000
    2       -0.000 ||    0.000000           0.000         0.000       0.000
    3        0.000 ||    0.000000           0.000         0.000       0.000
    4        0.000 ||    0.000000           0.000         0.000       0.000
    5        0.000 ||    0.000000           0.000         0.000       0.000
    6        0.000 ||    0.000000           0.000         0.000       0.000
    7     1433.274 ||    0.010152           0.234         9.897      11.172
    8     1433.274 ||    0.010152           0.234         9.897      11.172
    9     1433.274 ||    0.010152           0.234         9.897      11.172
   10     1647.868 ||    0.000000           0.000         0.000       0.000
   11     1647.868 ||    0.000000           0.000         0.000       0.000
   12     3164.829 ||    0.000000           0.000         0.000       0.000
   13     3285.632 ||    0.035284           0.814        34.397      38.828
   14     3285.632 ||    0.035284           0.814        34.397      38.828
   15     3285.632 ||    0.035284           0.814        34.397      38.828
 ----------------------------------------------------------------------------



 vib:animation  F

 Task  times  cpu:        0.8s     wall:        0.8s


                                NWChem Input Module
                                -------------------




                           NWChem Geometry Optimization
                           ----------------------------


  no constraints, skipping    0.0000000000000000     
 maximum gradient threshold         (gmax) =   0.000450
 rms gradient threshold             (grms) =   0.000300
 maximum cartesian step threshold   (xmax) =   0.001800
 rms cartesian step threshold       (xrms) =   0.001200
 fixed trust radius                (trust) =   0.300000
 maximum step size to saddle      (sadstp) =   0.100000
 energy precision                  (eprec) =   5.0D-06
 maximum number of steps          (nptopt) =   20
 initial hessian option           (inhess) =    0
 line search option               (linopt) =    1
 hessian update option            (modupd) =    1
 saddle point option              (modsad) =    0
 initial eigen-mode to follow     (moddir) =    0
 initial variable to follow       (vardir) =    0
 follow first negative mode     (firstneg) =    T
 apply conjugacy                    (opcg) =    F
 source of zmatrix                         =   autoz   


          -------------------
          Energy Minimization
          -------------------


 Names of Z-matrix variables 
    1              2              3              4              5         
    6              7              8              9             10         

 Variables with the same non-blank name are constrained to be equal


 Using old Hessian from previous optimization

          --------
          Step   0
          --------


                         Geometry "geometry" -> "geometry"
                         ---------------------------------

 Output coordinates in a.u. (scale by  1.000000000 to convert to a.u.)

  No.       Tag          Charge          X              Y              Z
 ---- ---------------- ---------- -------------- -------------- --------------
    1 c                    6.0000     0.00000000     0.00000000     0.00000000
    2 h                    1.0000     1.19008212     1.19008212     1.19008212
    3 h                    1.0000    -1.19008212    -1.19008212     1.19008212
    4 h                    1.0000    -1.19008212     1.19008212    -1.19008212
    5 h                    1.0000     1.19008212    -1.19008212    -1.19008212

      Atomic Mass 
      ----------- 

      c                 12.000000
      h                  1.007825


 Effective nuclear repulsion energy (a.u.)      13.4257346467

            Nuclear Dipole moment (a.u.) 
            ----------------------------
        X                 Y               Z
 ---------------- ---------------- ----------------
     0.0000000000     0.0000000000     0.0000000000

      Symmetry information
      --------------------

 Group name              Td       
 Group number             42
 Group order              24
 No. of unique centers     2

      Symmetry unique atoms

     1    2


                                 NWChem DFT Module
                                 -----------------




 Summary of "ao basis" -> "ao basis" (spherical)
 ------------------------------------------------------------------------------
       Tag                 Description            Shells   Functions and Types
 ---------------- ------------------------------  ------  ---------------------
 c                          cc-pvdz                  6       14   3s2p1d
 h                          cc-pvdz                  3        5   2s1p


      Symmetry analysis of basis
      --------------------------

        a1          6
        a2          0
        e           4
        t1          3
        t2         21

  Caching 1-el integrals 

            General Information
            -------------------
          SCF calculation type: DFT
          Wavefunction type:  closed shell.
          No. of atoms     :     5
          No. of electrons :    10
           Alpha electrons :     5
            Beta electrons :     5
          Charge           :     0
          Spin multiplicity:     1
          Use of symmetry is: on ; symmetry adaption is: on 
          Maximum number of iterations:  30
          AO basis - number of functions:    34
                     number of shells:    18
          Convergence on energy requested:  1.00D-06
          Convergence on density requested:  1.00D-05
          Convergence on gradient requested:  1.00D-07

              XC Information
              --------------
                    Becke 1988 Exchange Functional  1.000          
              Lee-Yang-Parr Correlation Functional  1.000          

             Grid Information
             ----------------
          Grid used for XC integration:  medium    
          Radial quadrature: Mura-Knowles        
          Angular quadrature: Lebedev. 
          Tag              B.-S. Rad. Rad. Pts. Rad. Cut. Ang. Pts.
          ---              ---------- --------- --------- ---------
          c                   0.70       49           6.0       434
          h                   0.35       45           7.0       434
          Grid pruning is: on 
          Number of quadrature shells:    94
          Spatial weights used:  Erf1

          Convergence Information
          -----------------------
          Convergence aids based upon iterative change in 
          total energy or number of iterations. 
          Levelshifting, if invoked, occurs when the 
          HOMO/LUMO gap drops below (HL_TOL):  1.00D-02
          DIIS, if invoked, will attempt to extrapolate 
          using up to (NFOCK): 10 stored Fock matrices.

                    Damping( 0%)  Levelshifting(0.5)       DIIS
                  --------------- ------------------- ---------------
          dE  on:    start            ASAP                start   
          dE off:    2 iters         30 iters            30 iters 


      Screening Tolerance Information
      -------------------------------
          Density screening/tol_rho:  1.00D-10
          AO Gaussian exp screening on grid/accAOfunc:  14
          CD Gaussian exp screening on grid/accCDfunc:  20
          XC Gaussian exp screening on grid/accXCfunc:  20
          Schwarz screening/accCoul:  1.00D-08


      Superposition of Atomic Density Guess
      -------------------------------------

 Sum of atomic energies:         -39.66326211

      Non-variational initial energy
      ------------------------------

 Total energy =     -40.243919
 1-e energy   =     -78.258369
 2-e energy   =      24.588715
 HOMO         =      -0.517531
 LUMO         =       0.111175


      Symmetry analysis of molecular orbitals - initial
      -------------------------------------------------

  Numbering of irreducible representations: 

     1 a1          2 a2          3 e           4 t1          5 t2      

  Orbital symmetries:

     1 a1          2 a1          3 t2          4 t2          5 t2      
     6 a1          7 t2          8 t2          9 t2         10 t2      
    11 t2         12 t2         13 t2         14 t2         15 t2      

   Time after variat. SCF:      1.8
   Time prior to 1st pass:      1.8

 Grid_pts file          = ./ch4.gridpts.0
 Record size in doubles =  12289        No. of grid_pts per rec  =   3070
 Max. records in memory =      5        Max. recs in file   = 253312716


           Memory utilization after 1st SCF pass: 
           Heap Space remaining (MW):       51.75            51745388
          Stack Space remaining (MW):       86.25            86246828

   convergence    iter        energy       DeltaE   RMS-Dens  Diis-err    time
 ---------------- ----- ----------------- --------- --------- ---------  ------
 d= 0,ls=0.0,diis     1    -40.4645310312 -5.39D+01  8.93D-03  1.01D-01     1.8
 d= 0,ls=0.0,diis     2    -40.4732076136 -8.68D-03  3.80D-03  1.57D-02     1.9
 d= 0,ls=0.0,diis     3    -40.4734467874 -2.39D-04  1.95D-03  1.34D-02     1.9
 d= 0,ls=0.0,diis     4    -40.4752214435 -1.77D-03  9.09D-05  1.13D-05     1.9
 d= 0,ls=0.0,diis     5    -40.4752234839 -2.04D-06  3.08D-06  2.39D-08     1.9
 d= 0,ls=0.0,diis     6    -40.4752234873 -3.42D-09  2.81D-08  3.70D-12     2.0


         Total DFT energy =      -40.475223487334
      One electron energy =      -79.792806901978
           Coulomb energy =       32.754792628790
    Exchange-Corr. energy =       -6.862943860872
 Nuclear repulsion energy =       13.425734646725

 Numeric. integr. density =       10.000006332158

     Total iterative time =      0.1s



                  Occupations of the irreducible representations
                  ----------------------------------------------

                     irrep           alpha         beta
                     --------     --------     --------
                     a1                2.0          2.0
                     a2                0.0          0.0
                     e                 0.0          0.0
                     t1                0.0          0.0
                     t2                3.0          3.0


                       DFT Final Molecular Orbital Analysis
                       ------------------------------------

 Vector    1  Occ=2.000000D+00  E=-9.907563D+00  Symmetry=a1
              MO Center= -6.1D-21,  4.4D-21,  2.8D-21, r^2= 2.8D-02
   Bfn.  Coefficient  Atom+Function         Bfn.  Coefficient  Atom+Function  
  ----- ------------  ---------------      ----- ------------  ---------------
     1      1.007856  1 C  s          

 Vector    2  Occ=2.000000D+00  E=-6.164071D-01  Symmetry=a1
              MO Center=  2.8D-17, -8.8D-18,  2.2D-17, r^2= 1.0D+00
   Bfn.  Coefficient  Atom+Function         Bfn.  Coefficient  Atom+Function  
  ----- ------------  ---------------      ----- ------------  ---------------
     2      0.382275  1 C  s                  3      0.206133  1 C  s          
    15      0.184937  2 H  s                 20      0.184937  3 H  s          
    25      0.184937  4 H  s                 30      0.184937  5 H  s          
    16      0.034854  2 H  s                 21      0.034854  3 H  s          
    26      0.034854  4 H  s                 31      0.034854  5 H  s          

 Vector    3  Occ=2.000000D+00  E=-3.376323D-01  Symmetry=t2
              MO Center= -2.9D-01,  7.8D-02, -8.6D-02, r^2= 1.2D+00
   Bfn.  Coefficient  Atom+Function         Bfn.  Coefficient  Atom+Function  
  ----- ------------  ---------------      ----- ------------  ---------------
    25      0.352266  4 H  s                  5      0.321853  1 C  py         
     6     -0.292859  1 C  pz                20     -0.265842  3 H  s          
    26      0.167519  4 H  s                 21     -0.126420  3 H  s          
     8      0.123319  1 C  py                 9     -0.112210  1 C  pz         
     4     -0.085949  1 C  px                30     -0.057788  5 H  s          

 Vector    4  Occ=2.000000D+00  E=-3.376323D-01  Symmetry=t2
              MO Center=  1.6D-01, -2.5D-01, -1.6D-01, r^2= 1.2D+00
   Bfn.  Coefficient  Atom+Function         Bfn.  Coefficient  Atom+Function  
  ----- ------------  ---------------      ----- ------------  ---------------
    30      0.379247  5 H  s                  4      0.286572  1 C  px         
     6     -0.284976  1 C  pz                20     -0.195459  3 H  s          
     5     -0.182778  1 C  py                31      0.180349  5 H  s          
     7      0.109801  1 C  px                 9     -0.109190  1 C  pz         
    21     -0.092950  3 H  s                 25     -0.092696  4 H  s          

 Vector    5  Occ=2.000000D+00  E=-3.376323D-01  Symmetry=t2
              MO Center=  1.3D-01,  1.8D-01,  2.5D-01, r^2= 1.2D+00
   Bfn.  Coefficient  Atom+Function         Bfn.  Coefficient  Atom+Function  
  ----- ------------  ---------------      ----- ------------  ---------------
    15      0.374265  2 H  s                  4      0.327463  1 C  px         
     5      0.244430  1 C  py                20     -0.200788  3 H  s          
    16      0.177980  2 H  s                  6      0.172525  1 C  pz         
    25     -0.128485  4 H  s                  7      0.125469  1 C  px         
    21     -0.095484  3 H  s                  8      0.093654  1 C  py         

 Vector    6  Occ=0.000000D+00  E= 5.462240D-02  Symmetry=a1
              MO Center= -6.3D-15, -1.2D-14, -1.7D-14, r^2= 4.4D+00
   Bfn.  Coefficient  Atom+Function         Bfn.  Coefficient  Atom+Function  
  ----- ------------  ---------------      ----- ------------  ---------------
     3      2.131572  1 C  s                 16     -0.789194  2 H  s          
    21     -0.789194  3 H  s                 26     -0.789194  4 H  s          
    31     -0.789194  5 H  s                  2      0.181755  1 C  s          
     1     -0.057616  1 C  s                 15     -0.039823  2 H  s          
    20     -0.039823  3 H  s                 25     -0.039823  4 H  s          

 Vector    7  Occ=0.000000D+00  E= 1.221585D-01  Symmetry=t2
              MO Center=  2.9D-01, -4.4D-01, -5.9D-01, r^2= 3.4D+00
   Bfn.  Coefficient  Atom+Function         Bfn.  Coefficient  Atom+Function  
  ----- ------------  ---------------      ----- ------------  ---------------
    31      1.936596  5 H  s                 26     -1.049341  4 H  s          
     7     -0.956079  1 C  px                21     -0.757519  3 H  s          
     8      0.623895  1 C  py                 9      0.469481  1 C  pz         
     4     -0.310687  1 C  px                 5      0.202741  1 C  py         
     6      0.152562  1 C  pz                30      0.132487  5 H  s          

 Vector    8  Occ=0.000000D+00  E= 1.221585D-01  Symmetry=t2
              MO Center=  3.3D-01,  6.6D-01,  2.4D-01, r^2= 3.5D+00
   Bfn.  Coefficient  Atom+Function         Bfn.  Coefficient  Atom+Function  
  ----- ------------  ---------------      ----- ------------  ---------------
    16      1.893124  2 H  s                 26     -1.233172  4 H  s          
     9     -0.956621  1 C  pz                 7     -0.697623  1 C  px         
    31     -0.574711  5 H  s                  8     -0.349206  1 C  py         
     6     -0.310863  1 C  pz                 4     -0.226699  1 C  px         
    15      0.129513  2 H  s                  5     -0.113478  1 C  py         

 Vector    9  Occ=0.000000D+00  E= 1.221585D-01  Symmetry=t2
              MO Center= -6.2D-01, -2.2D-01,  3.5D-01, r^2= 3.5D+00
   Bfn.  Coefficient  Atom+Function         Bfn.  Coefficient  Atom+Function  
  ----- ------------  ---------------      ----- ------------  ---------------
    21      1.870973  3 H  s                 26     -1.208227  4 H  s          
     8      1.006258  1 C  py                16     -0.693465  2 H  s          
     9     -0.623065  1 C  pz                 7      0.350685  1 C  px         
     5      0.326993  1 C  py                 6     -0.202471  1 C  pz         
    20      0.127997  3 H  s                  4      0.113958  1 C  px         

 Vector   10  Occ=0.000000D+00  E= 3.821050D-01  Symmetry=t2
              MO Center= -5.6D-03,  2.5D-04,  9.2D-03, r^2= 2.5D+00
   Bfn.  Coefficient  Atom+Function         Bfn.  Coefficient  Atom+Function  
  ----- ------------  ---------------      ----- ------------  ---------------
     8      1.109500  1 C  py                30      0.513109  5 H  s          
    25     -0.487046  4 H  s                 15     -0.470243  2 H  s          
    20      0.444179  3 H  s                  5     -0.293253  1 C  py         
    13      0.133115  1 C  d  1              31     -0.115477  5 H  s          
    26      0.109612  4 H  s                 16      0.105830  2 H  s          

 Vector   11  Occ=0.000000D+00  E= 3.821050D-01  Symmetry=t2
              MO Center=  2.2D-03,  4.3D-02, -9.9D-03, r^2= 2.5D+00
   Bfn.  Coefficient  Atom+Function         Bfn.  Coefficient  Atom+Function  
  ----- ------------  ---------------      ----- ------------  ---------------
     7      1.083769  1 C  px                20      0.594085  3 H  s          
    30     -0.546614  5 H  s                 15     -0.388473  2 H  s          
    25      0.341003  4 H  s                  4     -0.286452  1 C  px         
     9     -0.238304  1 C  pz                21     -0.133701  3 H  s          
    11     -0.130028  1 C  d -1              31      0.123018  5 H  s          

 Vector   12  Occ=0.000000D+00  E= 3.821050D-01  Symmetry=t2
              MO Center=  3.4D-03, -4.3D-02,  7.5D-04, r^2= 2.5D+00
   Bfn.  Coefficient  Atom+Function         Bfn.  Coefficient  Atom+Function  
  ----- ------------  ---------------      ----- ------------  ---------------
     9      1.084744  1 C  pz                25      0.579389  4 H  s          
    15     -0.563160  2 H  s                 20     -0.372769  3 H  s          
    30      0.356539  5 H  s                  6     -0.286710  1 C  pz         
     7      0.239473  1 C  px                10     -0.130145  1 C  d -2       
    26     -0.130394  4 H  s                 16      0.126741  2 H  s          

 Vector   13  Occ=0.000000D+00  E= 6.094220D-01  Symmetry=t2
              MO Center= -9.3D-03,  6.4D-02, -1.1D-01, r^2= 2.8D+00
   Bfn.  Coefficient  Atom+Function         Bfn.  Coefficient  Atom+Function  
  ----- ------------  ---------------      ----- ------------  ---------------
     7      1.808208  1 C  px                26      1.416805  4 H  s          
    31     -1.216760  5 H  s                 16     -1.081835  2 H  s          
    21      0.881790  3 H  s                  4     -0.855290  1 C  px         
    25     -0.290185  4 H  s                 11      0.268034  1 C  d -1       
     8     -0.263507  1 C  py                30      0.249213  5 H  s          

 Vector   14  Occ=0.000000D+00  E= 6.094220D-01  Symmetry=t2
              MO Center= -3.2D-01, -6.3D-02,  1.1D-01, r^2= 2.7D+00
   Bfn.  Coefficient  Atom+Function         Bfn.  Coefficient  Atom+Function  
  ----- ------------  ---------------      ----- ------------  ---------------
    21      1.769536  3 H  s                  8      1.556014  1 C  py         
    26     -1.379381  4 H  s                  9     -0.921106  1 C  pz         
     5     -0.736001  1 C  py                16     -0.598626  2 H  s          
     6      0.435687  1 C  pz                20     -0.362430  3 H  s          
     7      0.306919  1 C  px                25      0.282520  4 H  s          

 Vector   15  Occ=0.000000D+00  E= 6.094220D-01  Symmetry=t2
              MO Center=  3.3D-01, -4.1D-04, -2.4D-04, r^2= 2.7D+00
   Bfn.  Coefficient  Atom+Function         Bfn.  Coefficient  Atom+Function  
  ----- ------------  ---------------      ----- ------------  ---------------
    16     -1.596278  2 H  s                 31      1.597766  5 H  s          
     9      1.578168  1 C  pz                 8      0.934451  1 C  py         
     6     -0.746480  1 C  pz                 5     -0.441999  1 C  py         
    21     -0.409891  3 H  s                 26      0.408403  4 H  s          
    15      0.326944  2 H  s                 30     -0.327249  5 H  s          

 Vector   16  Occ=0.000000D+00  E= 6.383604D-01  Symmetry=a1
              MO Center=  3.4D-15, -5.9D-16,  9.4D-15, r^2= 2.4D+00
   Bfn.  Coefficient  Atom+Function         Bfn.  Coefficient  Atom+Function  
  ----- ------------  ---------------      ----- ------------  ---------------
     3      0.986572  1 C  s                  2     -0.724908  1 C  s          
    15      0.604108  2 H  s                 20      0.604108  3 H  s          
    25      0.604108  4 H  s                 30      0.604108  5 H  s          
    16     -0.493174  2 H  s                 21     -0.493174  3 H  s          
    26     -0.493174  4 H  s                 31     -0.493174  5 H  s          

 Vector   17  Occ=0.000000D+00  E= 8.599689D-01  Symmetry=e
              MO Center=  3.3D-16, -4.2D-16, -3.6D-16, r^2= 1.2D+00
   Bfn.  Coefficient  Atom+Function         Bfn.  Coefficient  Atom+Function  
  ----- ------------  ---------------      ----- ------------  ---------------
    14     -0.383948  1 C  d  2              12      0.378280  1 C  d  0       
    17     -0.208434  2 H  px                22      0.208434  3 H  px         
    27      0.208434  4 H  px                32     -0.208434  5 H  px         
    19      0.151148  2 H  pz                24      0.151148  3 H  pz         
    29     -0.151148  4 H  pz                34     -0.151148  5 H  pz         

 Vector   18  Occ=0.000000D+00  E= 8.599689D-01  Symmetry=e
              MO Center= -8.2D-17, -1.2D-16, -7.6D-16, r^2= 1.2D+00
   Bfn.  Coefficient  Atom+Function         Bfn.  Coefficient  Atom+Function  
  ----- ------------  ---------------      ----- ------------  ---------------
[...]
          14     0.34233    -0.20223    -0.29970    -0.15847     0.10986    -0.15920
          15    -0.11877     0.48124    -0.04704    -0.07859    -0.22488    -0.07603

                    7           8           9          10          11          12
 
 Frequency       1274.58     1274.58     1274.58     1493.86     1493.86     2954.44
 
           1     0.08147    -0.00003    -0.08144     0.00000     0.00000     0.00000
           2     0.07267    -0.05196     0.07272    -0.00000    -0.00000    -0.00000
           3     0.03675     0.10281     0.03673     0.00000     0.00000    -0.00000
           4    -0.03987     0.09425     0.44507     0.39166     0.10942     0.28755
           5     0.00258     0.34497    -0.29925    -0.29059     0.28448     0.28755
           6     0.17602    -0.40229    -0.12547    -0.10107    -0.39390     0.28755
           7    -0.17598    -0.28649     0.30906    -0.39166    -0.10942    -0.28755
           8    -0.13353    -0.03577    -0.43526     0.29059    -0.28448    -0.28755
           9    -0.39482    -0.20975    -0.09317    -0.10107    -0.39390     0.28755
          10    -0.30901     0.28667     0.17577    -0.39166    -0.10942    -0.28755
          11    -0.43523    -0.03565    -0.13366    -0.29059     0.28448     0.28755
          12    -0.09312    -0.20987    -0.39477     0.10107     0.39390    -0.28755
          13    -0.44512    -0.09407     0.03976     0.39166     0.10942     0.28755
          14    -0.29912     0.34508     0.00235     0.29059    -0.28448    -0.28755
          15    -0.12568    -0.40217     0.17613     0.10107     0.39390    -0.28755

                   13          14          15
 
 Frequency       3068.17     3068.17     3068.17
 
           1     0.05701    -0.01962    -0.06365
           2     0.05080    -0.04139     0.05825
           3     0.04309     0.07476     0.01554
           4    -0.46978    -0.04825    -0.04640
           5    -0.47115    -0.05303    -0.01963
           6    -0.47284    -0.02752    -0.02901
           7    -0.19435     0.42965     0.05297
           8    -0.19571     0.42487     0.07974
           9     0.21633    -0.41754    -0.06353
          10    -0.14505    -0.31284     0.32599
          11     0.16873     0.29944    -0.32718
          12    -0.14811    -0.29211     0.34338
          13     0.13038     0.16507     0.42536
          14    -0.10671    -0.17846    -0.42655
          15    -0.10840    -0.15296    -0.43593



 ----------------------------------------------------------------------------
 Normal Eigenvalue ||         Derivative Dipole Moments (debye/angs)
  Mode   [cm**-1]  ||      [d/dqX]             [d/dqY]           [d/dqZ]
 ------ ---------- || ------------------ ------------------ -----------------
    1      -10.093 ||       0.000               0.000            -0.000
    2      -10.093 ||       0.000              -0.000             0.000
    3      -10.093 ||       0.000               0.000            -0.000
    4        5.059 ||       0.000              -0.000            -0.000
    5        5.075 ||       0.000              -0.000             0.000
    6        5.092 ||       0.000               0.000             0.000
    7     1274.584 ||       0.347               0.309             0.156
    8     1274.584 ||      -0.000              -0.221             0.438
    9     1274.584 ||       0.347              -0.309            -0.156
   10     1493.856 ||      -0.000              -0.000             0.000
   11     1493.856 ||      -0.000              -0.000             0.000
   12     2954.440 ||       0.000              -0.000            -0.000
   13     3068.173 ||       0.483               0.430             0.365
   14     3068.173 ||      -0.166              -0.351             0.633
   15     3068.173 ||       0.539              -0.493            -0.132
 ----------------------------------------------------------------------------



  
  
 ----------------------------------------------------------------------------
 Normal Eigenvalue ||                 Infra Red Intensities
  Mode   [cm**-1]  || [atomic units] [(debye/angs)**2] [(KM/mol)] [arbitrary]
 ------ ---------- || -------------- ----------------- ---------- -----------
    1      -10.093 ||    0.000000           0.000         0.000       0.000
    2      -10.093 ||    0.000000           0.000         0.000       0.000
    3      -10.093 ||    0.000000           0.000         0.000       0.000
    4        5.059 ||    0.000000           0.000         0.000       0.000
    5        5.075 ||    0.000000           0.000         0.000       0.000
    6        5.092 ||    0.000000           0.000         0.000       0.000
    7     1274.584 ||    0.010419           0.240        10.157      15.181
    8     1274.584 ||    0.010419           0.240        10.157      15.181
    9     1274.584 ||    0.010419           0.240        10.157      15.181
   10     1493.856 ||    0.000000           0.000         0.000       0.000
   11     1493.856 ||    0.000000           0.000         0.000       0.000
   12     2954.440 ||    0.000000           0.000         0.000       0.000
   13     3068.173 ||    0.023896           0.551        23.295      34.819
   14     3068.173 ||    0.023896           0.551        23.295      34.819
   15     3068.173 ||    0.023896           0.551        23.295      34.819
 ----------------------------------------------------------------------------





        Vibrational analysis via the FX method 
  --- with translations and rotations projected out ---
  --- via the Eckart algorithm                      ---
 Projected Nuclear Hessian trans-rot subspace norm:4.7847D-33
                         (should be close to zero!) 

          --------------------------------------------------------
          MASS-WEIGHTED PROJECTED HESSIAN (Hartree/Bohr/Bohr/Kamu)
          --------------------------------------------------------


               1            2            3            4            5            6            7            8            9           10
   ----- ----- ----- ----- -----
    1    4.26507D+01
    2    2.70275D-07  4.26507D+01
    3    7.78544D-08  9.57571D-10  4.26507D+01
    4   -3.67930D+01 -2.51862D+01 -2.51862D+01  1.35372D+02
    5   -2.51862D+01 -3.67930D+01 -2.51862D+01  9.49586D+01  1.35372D+02
    6   -2.51862D+01 -2.51862D+01 -3.67930D+01  9.49586D+01  9.49586D+01  1.35372D+02
    7   -3.67930D+01 -2.51862D+01  2.51862D+01 -9.86272D+00 -8.05027D+00  1.05255D+01  1.35372D+02
    8   -2.51862D+01 -3.67930D+01  2.51862D+01 -8.05027D+00 -9.86272D+00  1.05255D+01  9.49586D+01  1.35372D+02
    9    2.51862D+01  2.51862D+01 -3.67930D+01 -1.05255D+01 -1.05255D+01  1.13122D+01 -9.49586D+01 -9.49586D+01  1.35372D+02
   10   -3.67930D+01  2.51862D+01 -2.51862D+01 -9.86271D+00  1.05255D+01 -8.05027D+00  1.13122D+01 -1.05255D+01  1.05255D+01  1.35372D+02
   11    2.51862D+01 -3.67930D+01  2.51862D+01 -1.05255D+01  1.13122D+01 -1.05255D+01  1.05255D+01 -9.86272D+00  8.05027D+00 -9.49586D+01
   12   -2.51862D+01  2.51862D+01 -3.67930D+01 -8.05027D+00  1.05255D+01 -9.86272D+00 -1.05255D+01  8.05027D+00 -9.86272D+00  9.49586D+01
   13   -3.67930D+01  2.51862D+01  2.51862D+01  1.13122D+01 -1.05255D+01 -1.05255D+01 -9.86272D+00  1.05255D+01  8.05027D+00 -9.86272D+00
   14    2.51862D+01 -3.67930D+01 -2.51862D+01  1.05255D+01 -9.86272D+00 -8.05027D+00 -1.05255D+01  1.13122D+01  1.05255D+01  8.05027D+00
   15    2.51862D+01 -2.51862D+01 -3.67930D+01  1.05255D+01 -8.05027D+00 -9.86272D+00  8.05027D+00 -1.05255D+01 -9.86272D+00 -1.05255D+01


              11           12           13           14           15
   ----- ----- ----- ----- -----
   11    1.35372D+02
   12   -9.49586D+01  1.35372D+02
   13    8.05027D+00  1.05255D+01  1.35372D+02
   14   -9.86272D+00 -1.05255D+01 -9.49586D+01  1.35372D+02
   15    1.05255D+01  1.13121D+01 -9.49586D+01  9.49586D+01  1.35372D+02

 center of mass
 --------------
 x =   0.00000000 y =   0.00000000 z =   0.00000000

 moments of inertia (a.u.)
 ------------------
          11.759335844428           0.000000000000           0.000000000000
           0.000000000000          11.759335844428           0.000000000000
           0.000000000000           0.000000000000          11.759335844428

 Rotational Constants
 --------------------
 A=   5.119352 cm-1  (  7.365441 K)
 B=   5.119352 cm-1  (  7.365441 K)
 C=   5.119352 cm-1  (  7.365441 K)


 Temperature                      =   298.15K
 frequency scaling parameter      =   1.0000

 Zero-Point correction to Energy  =   27.107 kcal/mol  (  0.043197 au)
 Thermal correction to Energy     =   28.913 kcal/mol  (  0.046076 au)
 Thermal correction to Enthalpy   =   29.505 kcal/mol  (  0.047020 au)

 Total Entropy                    =   44.568 cal/mol-K
   - Translational                =   34.246 cal/mol-K (mol. weight =  16.0313)
   - Rotational                   =   10.207 cal/mol-K (symmetry #  =       12)
   - Vibrational                  =    0.115 cal/mol-K

 Cv (constant volume heat capacity) =    6.595 cal/mol-K
   - Translational                  =    2.979 cal/mol-K
   - Rotational                     =    2.979 cal/mol-K
   - Vibrational                    =    0.636 cal/mol-K



          -------------------------------------------------
          NORMAL MODE EIGENVECTORS IN CARTESIAN COORDINATES
          -------------------------------------------------
             (Projected Frequencies expressed in cm-1)

                    1           2           3           4           5           6
 
 P.Frequency       -0.00       -0.00        0.00        0.00        0.00        0.00
 
           1     0.00667     0.00012    -0.00026    -0.00534    -0.24961    -0.00050
           2    -0.00516    -0.24855    -0.02132    -0.00889    -0.00003    -0.00644
           3     0.02317    -0.00664    -0.00663     0.00806    -0.00004     0.24837
           4    -0.20983    -0.03667     0.37161     0.24158    -0.26111     0.02064
           5     0.18232    -0.22734    -0.40727     0.24063     0.00012    -0.04178
           6     0.05219     0.00893     0.00744    -0.48837     0.01131     0.26257
           7    -0.29678     0.02587    -0.32412     0.21848    -0.26218     0.01259
           8     0.26927    -0.28987     0.28847     0.26373     0.00119    -0.03372
           9    -0.00584    -0.02221    -0.02071     0.50449    -0.01140     0.23417
          10     0.31012    -0.02563     0.32361    -0.22915    -0.23704    -0.01358
          11    -0.19265    -0.26976     0.36462    -0.25840    -0.00018     0.02889
          12    -0.46776    -0.00210     0.05544    -0.01764    -0.01277     0.29679
          13     0.22317     0.03690    -0.37213    -0.25225    -0.23811    -0.02163
          14    -0.27960    -0.20723    -0.33112    -0.28150    -0.00125     0.02084
          15     0.51411    -0.01118    -0.06871     0.03376     0.01268     0.19995

                    7           8           9          10          11          12
 
 P.Frequency     1274.61     1274.61     1274.61     1493.86     1493.86     2954.44
 
           1     0.08133    -0.00082    -0.08156     0.00000     0.00000     0.00000
           2     0.07222    -0.05281     0.07255    -0.00000    -0.00000    -0.00000
           3     0.03791     0.10236     0.03678     0.00000     0.00000    -0.00000
           4    -0.03817     0.09420     0.44523     0.39164     0.10949     0.28755
           5     0.00584     0.34525    -0.29889    -0.29064     0.28443     0.28755
           6     0.17150    -0.40402    -0.12617    -0.10100    -0.39392     0.28755
           7    -0.17858    -0.28491     0.30903    -0.39164    -0.10949    -0.28755
           8    -0.13457    -0.03386    -0.43509     0.29064    -0.28443    -0.28755
           9    -0.39720    -0.20540    -0.09279    -0.10100    -0.39392     0.28755
          10    -0.30564     0.28979     0.17655    -0.39164    -0.10949    -0.28755
          11    -0.43579    -0.03083    -0.13303    -0.29064     0.28443     0.28755
          12    -0.09597    -0.20843    -0.39485     0.10100     0.39392    -0.28755
          13    -0.44605    -0.08932     0.04034     0.39164     0.10949     0.28755
          14    -0.29539     0.34828     0.00318     0.29064    -0.28443    -0.28755
          15    -0.12973    -0.40099     0.17590     0.10100     0.39392    -0.28755

                   13          14          15
 
 P.Frequency     3068.18     3068.18     3068.18
 
           1     0.06171    -0.00178    -0.06226
           2     0.05494    -0.03971     0.05560
           3     0.02933     0.07815     0.02683
           4    -0.45305    -0.11753    -0.07815
           5    -0.45454    -0.12586    -0.05227
           6    -0.46016    -0.09998    -0.05859
           7    -0.26556     0.38202     0.09338
           8    -0.26704     0.37369     0.11926
           9     0.28555    -0.36525    -0.10116
          10    -0.10182    -0.37140     0.27726
          11     0.12743     0.36229    -0.27872
          12    -0.10893    -0.35385     0.29682
          13     0.08568     0.12815     0.44879
          14    -0.06006    -0.13727    -0.45025
          15    -0.06569    -0.11139    -0.45657



 ----------------------------------------------------------------------------
 Normal Eigenvalue ||    Projected Derivative Dipole Moments (debye/angs)
  Mode   [cm**-1]  ||      [d/dqX]             [d/dqY]           [d/dqZ]
 ------ ---------- || ------------------ ------------------ -----------------
    1       -0.000 ||       0.000              -0.000             0.000
    2       -0.000 ||      -0.000               0.000             0.000
    3        0.000 ||       0.000               0.000             0.000
    4        0.000 ||      -0.000              -0.000             0.000
    5        0.000 ||      -0.000               0.000             0.000
    6        0.000 ||      -0.000              -0.000             0.000
    7     1274.605 ||       0.346               0.307             0.161
    8     1274.605 ||      -0.003              -0.225             0.436
    9     1274.605 ||       0.347              -0.309            -0.157
   10     1493.856 ||      -0.000               0.000            -0.000
   11     1493.856 ||      -0.000               0.000            -0.000
   12     2954.440 ||       0.000              -0.000            -0.000
   13     3068.177 ||       0.523               0.465             0.248
   14     3068.177 ||      -0.015              -0.336             0.662
   15     3068.177 ||       0.527              -0.471            -0.227
 ----------------------------------------------------------------------------



  
  
 ----------------------------------------------------------------------------
 Normal Eigenvalue ||           Projected Infra Red Intensities
  Mode   [cm**-1]  || [atomic units] [(debye/angs)**2] [(KM/mol)] [arbitrary]
 ------ ---------- || -------------- ----------------- ---------- -----------
    1       -0.000 ||    0.000000           0.000         0.000       0.000
    2       -0.000 ||    0.000000           0.000         0.000       0.000
    3        0.000 ||    0.000000           0.000         0.000       0.000
    4        0.000 ||    0.000000           0.000         0.000       0.000
    5        0.000 ||    0.000000           0.000         0.000       0.000
    6        0.000 ||    0.000000           0.000         0.000       0.000
    7     1274.605 ||    0.010419           0.240        10.157      15.181
    8     1274.605 ||    0.010419           0.240        10.157      15.181
    9     1274.605 ||    0.010419           0.240        10.157      15.181
   10     1493.856 ||    0.000000           0.000         0.000       0.000
   11     1493.856 ||    0.000000           0.000         0.000       0.000
   12     2954.440 ||    0.000000           0.000         0.000       0.000
   13     3068.177 ||    0.023896           0.551        23.295      34.819
   14     3068.177 ||    0.023896           0.551        23.295      34.819
   15     3068.177 ||    0.023896           0.551        23.295      34.819
 ----------------------------------------------------------------------------



 vib:animation  F

 Task  times  cpu:        7.4s     wall:        7.4s


                                NWChem Input Module
                                -------------------


 Summary of allocated global arrays
-----------------------------------
  No active global arrays



                         GA Statistics for process    0
                         ------------------------------

       create   destroy   get      put      acc     scatter   gather  read&inc
calls: 3195     3195     1.29e+05 1.88e+04 1.09e+05  603        0     5870     
number of processes/call 1.18e+00 1.55e+00 1.32e+00 0.00e+00 0.00e+00
bytes total:             7.83e+07 1.05e+07 7.25e+07 1.60e+02 0.00e+00 4.70e+04
bytes remote:            3.51e+07 3.02e+06 3.21e+07 -3.20e+02 0.00e+00 0.00e+00
Max memory consumed for GA by this process: 521712 bytes

MA_summarize_allocated_blocks: starting scan ...
heap block 'gridpts', handle 4, address 0x5567f7fa2a78:
	type of elements:		double precision
	number of elements:		34438013
	address of client space:	0x5567f7fa2b00
	index for client space:		11550579
	total number of bytes:		275504248
MA_summarize_allocated_blocks: scan completed: 1 heap block, 0 stack blocks
MA usage statistics:

	allocation statistics:
					      heap	     stack
					      ----	     -----
	current number of blocks	         1	         0
	maximum number of blocks	        26	        57
	current total bytes		 275504248	         0
	maximum total bytes		 277291224	  75914600
	maximum total K-bytes		    277292	     75915
	maximum total M-bytes		       278	        76


                                     CITATION
                                     --------
                Please cite the following reference when publishing
                           results obtained with NWChem:

                 M. Valiev, E.J. Bylaska, N. Govind, K. Kowalski,
              T.P. Straatsma, H.J.J. van Dam, D. Wang, J. Nieplocha,
                        E. Apra, T.L. Windus, W.A. de Jong
                 "NWChem: a comprehensive and scalable open-source
                  solution for large scale molecular simulations"
                      Comput. Phys. Commun. 181, 1477 (2010)
                           doi:10.1016/j.cpc.2010.04.018

                                      AUTHORS
                                      -------
          E. Apra, E. J. Bylaska, W. A. de Jong, N. Govind, K. Kowalski,
       T. P. Straatsma, M. Valiev, H. J. J. van Dam, D. Wang, T. L. Windus,
        J. Hammond, J. Autschbach, K. Bhaskaran-Nair, J. Brabec, K. Lopata,
    S. A. Fischer, S. Krishnamoorthy, M. Jacquelin, W. Ma, M. Klemm, O. Villa,
      Y. Chen, V. Anisimov, F. Aquino, S. Hirata, M. T. Hackler, V. Konjkov,
            D. Mejia-Rodriguez, T. Risthaus, M. Malagoli, A. Marenich,
   A. Otero-de-la-Roza, J. Mullin, P. Nichols, R. Peverati, J. Pittner, Y. Zhao,
        P.-D. Fan, A. Fonari, M. J. Williamson, R. J. Harrison, J. R. Rehr,
      M. Dupuis, D. Silverstein, D. M. A. Smith, J. Nieplocha, V. Tipparaju,
    M. Krishnan, B. E. Van Kuiken, A. Vazquez-Mayagoitia, L. Jensen, M. Swart,
      Q. Wu, T. Van Voorhis, A. A. Auer, M. Nooijen, L. D. Crosby, E. Brown,
      G. Cisneros, G. I. Fann, H. Fruchtl, J. Garza, K. Hirao, R. A. Kendall,
      J. A. Nichols, K. Tsemekhman, K. Wolinski, J. Anchell, D. E. Bernholdt,
      P. Borowski, T. Clark, D. Clerc, H. Dachsel, M. J. O. Deegan, K. Dyall,
    D. Elwood, E. Glendening, M. Gutowski, A. C. Hess, J. Jaffe, B. G. Johnson,
     J. Ju, R. Kobayashi, R. Kutteh, Z. Lin, R. Littlefield, X. Long, B. Meng,
      T. Nakajima, S. Niu, L. Pollack, M. Rosing, K. Glaesemann, G. Sandrone,
      M. Stave, H. Taylor, G. Thomas, J. H. van Lenthe, A. T. Wong, Z. Zhang.

 Total times  cpu:        9.9s     wall:       10.0s
