 argument  1 = /home/list1234/source/nwchem-6.8.1-release/QA/tests/hess_c6h6/hess_c6h6.nw



============================== echo of input deck ==============================
echo
start  c6h6

title "benzene in sto-3g"
geometry autoz units au
   C       1.853049   1.853049    .000000
   C      -2.531312    .678263    .000000
   C        .678263  -2.531312    .000000
   C      -1.853049  -1.853049    .000000
   C       2.531312   -.678263    .000000
   C       -.678263   2.531312    .000000
   H       3.299553   3.299553    .000000
   H      -4.507274   1.207720    .000000
   H       1.207720  -4.507274    .000000
   H      -3.299553  -3.299553    .000000
   H       4.507274  -1.207720    .000000
   H      -1.207720   4.507274    .000000
end
basis
  H library sto-3g
  C library sto-3g
end
task  scf freq
================================================================================


                                         
                                         


              Northwest Computational Chemistry Package (NWChem) 6.8
              ------------------------------------------------------


                    Environmental Molecular Sciences Laboratory
                       Pacific Northwest National Laboratory
                                Richland, WA 99352

                              Copyright (c) 1994-2018
                       Pacific Northwest National Laboratory
                            Battelle Memorial Institute

             NWChem is an open-source computational chemistry package
                        distributed under the terms of the
                      Educational Community License (ECL) 2.0
             A copy of the license is included with this distribution
                              in the LICENSE.TXT file

                                  ACKNOWLEDGMENT
                                  --------------

            This software and its documentation were developed at the
            EMSL at Pacific Northwest National Laboratory, a multiprogram
            national laboratory, operated for the U.S. Department of Energy
            by Battelle under Contract Number DE-AC05-76RL01830. Support
            for this work was provided by the Department of Energy Office
            of Biological and Environmental Research, Office of Basic
            Energy Sciences, and the Office of Advanced Scientific Computing.


           Job information
           ---------------

    hostname        = list1234-B360M-H
    program         = /home/list1234/source/nwchem-6.8.1-release/bin/LINUX64/nwchem
    date            = Sun Jun 30 05:58:38 2019

    compiled        = Sun_Jun_30_05:21:11_2019
    source          = /home/list1234/source/nwchem-6.8.1-release
    nwchem branch   = Development
    nwchem revision = N/A
    ga revision     = 5.6.5
    use scalapack   = T
    input           = /home/list1234/source/nwchem-6.8.1-release/QA/tests/hess_c6h6/hess_c6h6.nw
    prefix          = c6h6.
    data base       = ./c6h6.db
    status          = startup
    nproc           =        4
    time left       =     -1s



           Memory information
           ------------------

    heap     =   86247164 doubles =    658.0 Mbytes
    stack    =   86247169 doubles =    658.0 Mbytes
    global   =  172494336 doubles =   1316.0 Mbytes (distinct from heap & stack)
    total    =  344988669 doubles =   2632.1 Mbytes
    verify   = yes
    hardfail = no 


           Directory information
           ---------------------

  0 permanent = .
  0 scratch   = .




                                NWChem Input Module
                                -------------------


                                 benzene in sto-3g
                                 -----------------
 D6H symmetry detected

          ------
          auto-z
          ------
  no constraints, skipping    0.0000000000000000     
  no constraints, skipping    0.0000000000000000     


                             Geometry "geometry" -> ""
                             -------------------------

 Output coordinates in a.u. (scale by  1.000000000 to convert to a.u.)

  No.       Tag          Charge          X              Y              Z
 ---- ---------------- ---------- -------------- -------------- --------------
    1 C                    6.0000     1.85304900     1.85304900     0.00000000
    2 C                    6.0000    -2.53131200     0.67826301     0.00000000
    3 C                    6.0000     0.67826301    -2.53131200     0.00000000
    4 C                    6.0000    -1.85304900    -1.85304900     0.00000000
    5 C                    6.0000     2.53131200    -0.67826301     0.00000000
    6 C                    6.0000    -0.67826301     2.53131200     0.00000000
    7 H                    1.0000     3.29955333     3.29955333     0.00000000
    8 H                    1.0000    -4.50727367     1.20772034     0.00000000
    9 H                    1.0000     1.20772034    -4.50727367     0.00000000
   10 H                    1.0000    -3.29955333    -3.29955333     0.00000000
   11 H                    1.0000     4.50727367    -1.20772034     0.00000000
   12 H                    1.0000    -1.20772034     4.50727367     0.00000000

      Atomic Mass 
      ----------- 

      C                 12.000000
      H                  1.007825


 Effective nuclear repulsion energy (a.u.)     204.5394281386

            Nuclear Dipole moment (a.u.) 
            ----------------------------
        X                 Y               Z
 ---------------- ---------------- ----------------
     0.0000000000     0.0000000000     0.0000000000

      Symmetry information
      --------------------

 Group name             D6h       
 Group number             30
 Group order              24
 No. of unique centers     2

      Symmetry unique atoms

     1    7



                                Z-matrix (autoz)
                                -------- 

 Units are Angstrom for bonds and degrees for angles

      Type          Name      I     J     K     L     M      Value
      ----------- --------  ----- ----- ----- ----- ----- ----------
    1 Stretch                  1     5                       1.38677
    2 Stretch                  1     6                       1.38677
    3 Stretch                  1     7                       1.08252
    4 Stretch                  2     4                       1.38677
    5 Stretch                  2     6                       1.38677
    6 Stretch                  2     8                       1.08252
    7 Stretch                  3     4                       1.38677
    8 Stretch                  3     5                       1.38677
    9 Stretch                  3     9                       1.08252
   10 Stretch                  4    10                       1.08252
   11 Stretch                  5    11                       1.08252
   12 Stretch                  6    12                       1.08252
   13 Bend                     1     5     3               120.00000
   14 Bend                     1     5    11               120.00000
   15 Bend                     1     6     2               120.00000
   16 Bend                     1     6    12               120.00000
   17 Bend                     2     4     3               120.00000
   18 Bend                     2     4    10               120.00000
   19 Bend                     2     6    12               120.00000
   20 Bend                     3     4    10               120.00000
   21 Bend                     3     5    11               120.00000
   22 Bend                     4     2     6               120.00000
   23 Bend                     4     2     8               120.00000
   24 Bend                     4     3     5               120.00000
   25 Bend                     4     3     9               120.00000
   26 Bend                     5     1     6               120.00000
   27 Bend                     5     1     7               120.00000
   28 Bend                     5     3     9               120.00000
   29 Bend                     6     1     7               120.00000
   30 Bend                     6     2     8               120.00000
   31 Torsion                  1     5     3     4           0.00000
   32 Torsion                  1     5     3     9         180.00000
   33 Torsion                  1     6     2     4           0.00000
   34 Torsion                  1     6     2     8         180.00000
   35 Torsion                  2     4     3     5           0.00000
   36 Torsion                  2     4     3     9         180.00000
   37 Torsion                  2     6     1     5           0.00000
   38 Torsion                  2     6     1     7         180.00000
   39 Torsion                  3     4     2     6           0.00000
   40 Torsion                  3     4     2     8         180.00000
   41 Torsion                  3     5     1     6           0.00000
   42 Torsion                  3     5     1     7         180.00000
   43 Torsion                  4     2     6    12         180.00000
   44 Torsion                  4     3     5    11         180.00000
   45 Torsion                  5     1     6    12         180.00000
   46 Torsion                  5     3     4    10         180.00000
   47 Torsion                  6     1     5    11         180.00000
   48 Torsion                  6     2     4    10         180.00000
   49 Torsion                  7     1     5    11           0.00000
   50 Torsion                  7     1     6    12          -0.00000
   51 Torsion                  8     2     4    10          -0.00000
   52 Torsion                  8     2     6    12           0.00000
   53 Torsion                  9     3     4    10           0.00000
   54 Torsion                  9     3     5    11           0.00000


            XYZ format geometry
            -------------------
    12
 geometry
 C                     0.98059137     0.98059137     0.00000000
 C                    -1.33951272     0.35892135     0.00000000
 C                     0.35892135    -1.33951272     0.00000000
 C                    -0.98059137    -0.98059137     0.00000000
 C                     1.33951272    -0.35892135     0.00000000
 C                    -0.35892135     1.33951272     0.00000000
 H                     1.74604855     1.74604855     0.00000000
 H                    -2.38514668     0.63909813     0.00000000
 H                     0.63909813    -2.38514668     0.00000000
 H                    -1.74604855    -1.74604855     0.00000000
 H                     2.38514668    -0.63909813     0.00000000
 H                    -0.63909813     2.38514668     0.00000000

 ==============================================================================
                                internuclear distances
 ------------------------------------------------------------------------------
       center one      |      center two      | atomic units |       a.u.
 ------------------------------------------------------------------------------
    4 C                |   2 C                |     2.62061  |     2.62061
    4 C                |   3 C                |     2.62061  |     2.62061
    5 C                |   1 C                |     2.62061  |     2.62061
    5 C                |   3 C                |     2.62061  |     2.62061
    6 C                |   1 C                |     2.62061  |     2.62061
    6 C                |   2 C                |     2.62061  |     2.62061
    7 H                |   1 C                |     2.04567  |     2.04567
    8 H                |   2 C                |     2.04567  |     2.04567
    9 H                |   3 C                |     2.04567  |     2.04567
   10 H                |   4 C                |     2.04567  |     2.04567
   11 H                |   5 C                |     2.04567  |     2.04567
   12 H                |   6 C                |     2.04567  |     2.04567
 ------------------------------------------------------------------------------
                         number of included internuclear distances:         12
 ==============================================================================



 ==============================================================================
                                 internuclear angles
 ------------------------------------------------------------------------------
        center 1       |       center 2       |       center 3       |  degrees
 ------------------------------------------------------------------------------
    5 C                |   1 C                |   6 C                |   120.00
    5 C                |   1 C                |   7 H                |   120.00
    6 C                |   1 C                |   7 H                |   120.00
    4 C                |   2 C                |   6 C                |   120.00
    4 C                |   2 C                |   8 H                |   120.00
    6 C                |   2 C                |   8 H                |   120.00
    4 C                |   3 C                |   5 C                |   120.00
    4 C                |   3 C                |   9 H                |   120.00
    5 C                |   3 C                |   9 H                |   120.00
    2 C                |   4 C                |   3 C                |   120.00
    2 C                |   4 C                |  10 H                |   120.00
    3 C                |   4 C                |  10 H                |   120.00
    1 C                |   5 C                |   3 C                |   120.00
    1 C                |   5 C                |  11 H                |   120.00
    3 C                |   5 C                |  11 H                |   120.00
    1 C                |   6 C                |   2 C                |   120.00
    1 C                |   6 C                |  12 H                |   120.00
    2 C                |   6 C                |  12 H                |   120.00
 ------------------------------------------------------------------------------
                            number of included internuclear angles:         18
 ==============================================================================



                      Basis "ao basis" -> "" (cartesian)
                      -----
  H (Hydrogen)
  ------------
            Exponent  Coefficients 
       -------------- ---------------------------------------------------------
  1 S  3.42525091E+00  0.154329
  1 S  6.23913730E-01  0.535328
  1 S  1.68855400E-01  0.444635

  C (Carbon)
  ----------
            Exponent  Coefficients 
       -------------- ---------------------------------------------------------
  1 S  7.16168370E+01  0.154329
  1 S  1.30450960E+01  0.535328
  1 S  3.53051220E+00  0.444635

  2 S  2.94124940E+00 -0.099967
  2 S  6.83483100E-01  0.399513
  2 S  2.22289900E-01  0.700115

  3 P  2.94124940E+00  0.155916
  3 P  6.83483100E-01  0.607684
  3 P  2.22289900E-01  0.391957



 Summary of "ao basis" -> "" (cartesian)
 ------------------------------------------------------------------------------
       Tag                 Description            Shells   Functions and Types
 ---------------- ------------------------------  ------  ---------------------
 H                           sto-3g                  1        1   1s
 C                           sto-3g                  3        5   2s1p




                   NWChem Nuclear Hessian and Frequency Analysis
                   ---------------------------------------------



                              NWChem Analytic Hessian
                              -----------------------

                                 NWChem SCF Module
                                 -----------------


                                 benzene in sto-3g



  ao basis        = "ao basis"
  functions       =    36
  atoms           =    12
  closed shells   =    21
  open shells     =     0
  charge          =   0.00
  wavefunction    = RHF 
  input vectors   = atomic
  output vectors  = ./c6h6.movecs
  use symmetry    = F
  symmetry adapt  = F


 Summary of "ao basis" -> "ao basis" (cartesian)
 ------------------------------------------------------------------------------
       Tag                 Description            Shells   Functions and Types
 ---------------- ------------------------------  ------  ---------------------
 H                           sto-3g                  1        1   1s
 C                           sto-3g                  3        5   2s1p



 Forming initial guess at       0.1s


      Superposition of Atomic Density Guess
      -------------------------------------

 Sum of atomic energies:        -225.86895105

      Non-variational initial energy
      ------------------------------

 Total energy =    -228.045367
 1-e energy   =    -714.663818
 2-e energy   =     282.079023
 HOMO         =      -0.101843
 LUMO         =       0.232560


 Starting SCF solution at       0.1s



 ----------------------------------------------
         Quadratically convergent ROHF

 Convergence threshold     :          1.000E-06
 Maximum no. of iterations :           30
 Final Fock-matrix accuracy:          1.000E-08
 ----------------------------------------------


              iter       energy          gnorm     gmax       time
             ----- ------------------- --------- --------- --------
                 1     -227.8564643833  5.70D-01  2.22D-01      0.3
                 2     -227.8912747190  3.08D-02  1.33D-02      0.4
                 3     -227.8913603747  3.35D-04  1.24D-04      0.7
                 4     -227.8913603813  7.72D-08  3.24D-08      1.0


       Final RHF  results 
       ------------------ 

         Total SCF energy =   -227.891360381281
      One-electron energy =   -713.847676244231
      Two-electron energy =    281.416887724309
 Nuclear repulsion energy =    204.539428138641

        Time for solution =      0.9s


             Final eigenvalues
             -----------------

              1      
    1  -11.0293
    2  -11.0293
    3  -11.0292
    4  -11.0288
    5  -11.0288
    6  -11.0287
    7   -1.0957
    8   -0.9582
    9   -0.9582
   10   -0.7690
   11   -0.7690
   12   -0.6658
   13   -0.5937
   14   -0.5573
   15   -0.5361
   16   -0.5361
   17   -0.4609
   18   -0.4338
   19   -0.4338
   20   -0.2827
   21   -0.2827
   22    0.2708
   23    0.2708
   24    0.5091
   25    0.5793
   26    0.6500
   27    0.6500
   28    0.7292
   29    0.7437
   30    0.7437
   31    0.8902

                       ROHF Final Molecular Orbital Analysis
                       -------------------------------------

 Vector    7  Occ=2.000000D+00  E=-1.095688D+00
              MO Center=  4.8D-14,  5.2D-14, -1.3D-16, r^2= 2.1D+00
   Bfn.  Coefficient  Atom+Function         Bfn.  Coefficient  Atom+Function  
  ----- ------------  ---------------      ----- ------------  ---------------
     2      0.263506   1 C  s                 7      0.263506   2 C  s         
    12      0.263506   3 C  s                17      0.263506   4 C  s         
    22      0.263506   5 C  s                27      0.263506   6 C  s         

 Vector    8  Occ=2.000000D+00  E=-9.581599D-01
              MO Center=  4.6D-14,  1.7D-13,  2.6D-16, r^2= 2.9D+00
   Bfn.  Coefficient  Atom+Function         Bfn.  Coefficient  Atom+Function  
  ----- ------------  ---------------      ----- ------------  ---------------
     2      0.394126   1 C  s                17     -0.394126   4 C  s         
     7     -0.197298   2 C  s                12     -0.196828   3 C  s         
    22      0.197298   5 C  s                27      0.196828   6 C  s         

 Vector    9  Occ=2.000000D+00  E=-9.581599D-01
              MO Center= -1.7D-13,  1.7D-13, -2.4D-16, r^2= 2.9D+00
   Bfn.  Coefficient  Atom+Function         Bfn.  Coefficient  Atom+Function  
  ----- ------------  ---------------      ----- ------------  ---------------
     7      0.341187   2 C  s                12     -0.341459   3 C  s         
    22     -0.341187   5 C  s                27      0.341459   6 C  s         

 Vector   10  Occ=2.000000D+00  E=-7.690193D-01
              MO Center=  4.1D-15,  1.4D-13,  1.6D-16, r^2= 3.8D+00
   Bfn.  Coefficient  Atom+Function         Bfn.  Coefficient  Atom+Function  
  ----- ------------  ---------------      ----- ------------  ---------------
     2      0.334988   1 C  s                17      0.334988   4 C  s         
     9     -0.205916   2 C  py               13     -0.205838   3 C  px        
    24      0.205916   5 C  py               28      0.205838   6 C  px        
    31      0.177033   7 H  s                34      0.177033  10 H  s         
     7     -0.167374   2 C  s                12     -0.167614   3 C  s         

 Vector   11  Occ=2.000000D+00  E=-7.690193D-01
              MO Center= -1.4D-13,  2.6D-13,  7.2D-16, r^2= 3.8D+00
   Bfn.  Coefficient  Atom+Function         Bfn.  Coefficient  Atom+Function  
  ----- ------------  ---------------      ----- ------------  ---------------
     7      0.290178   2 C  s                12     -0.290039   3 C  s         
    22      0.290178   5 C  s                27     -0.290039   6 C  s         
     3      0.164875   1 C  px                4     -0.164923   1 C  py        
    18     -0.164875   4 C  px               19      0.164923   4 C  py        
    32      0.153352   8 H  s                33     -0.153279   9 H  s         

 Vector   12  Occ=2.000000D+00  E=-6.657572D-01
              MO Center= -8.9D-14,  4.8D-13,  4.0D-17, r^2= 4.2D+00
   Bfn.  Coefficient  Atom+Function         Bfn.  Coefficient  Atom+Function  
  ----- ------------  ---------------      ----- ------------  ---------------
     8      0.226061   2 C  px               14      0.226061   3 C  py        
    23     -0.226061   5 C  px               29     -0.226061   6 C  py        
    31     -0.174805   7 H  s                32     -0.174805   8 H  s         
    33     -0.174805   9 H  s                34     -0.174805  10 H  s         
    35     -0.174805  11 H  s                36     -0.174805  12 H  s         

 Vector   13  Occ=2.000000D+00  E=-5.936949D-01
              MO Center= -6.7D-14,  2.2D-13,  1.5D-18, r^2= 5.3D+00
   Bfn.  Coefficient  Atom+Function         Bfn.  Coefficient  Atom+Function  
  ----- ------------  ---------------      ----- ------------  ---------------
    31      0.232364   7 H  s                32      0.232364   8 H  s         
    33      0.232364   9 H  s                34     -0.232364  10 H  s         
    35     -0.232364  11 H  s                36     -0.232364  12 H  s         
     2      0.218439   1 C  s                 7      0.218439   2 C  s         
    12      0.218439   3 C  s                17     -0.218439   4 C  s         

 Vector   14  Occ=2.000000D+00  E=-5.572842D-01
              MO Center=  6.9D-14, -2.2D-13,  4.4D-26, r^2= 2.7D+00
   Bfn.  Coefficient  Atom+Function         Bfn.  Coefficient  Atom+Function  
  ----- ------------  ---------------      ----- ------------  ---------------
     9      0.320837   2 C  py               13     -0.320837   3 C  px        
    24      0.320837   5 C  py               28     -0.320837   6 C  px        
     3      0.234869   1 C  px                4     -0.234869   1 C  py        
    18      0.234869   4 C  px               19     -0.234869   4 C  py        

 Vector   15  Occ=2.000000D+00  E=-5.361056D-01
              MO Center= -2.2D-13, -1.8D-13, -4.0D-17, r^2= 3.9D+00
   Bfn.  Coefficient  Atom+Function         Bfn.  Coefficient  Atom+Function  
  ----- ------------  ---------------      ----- ------------  ---------------
    31      0.282557   7 H  s                34     -0.282557  10 H  s         
     3      0.261490   1 C  px                4      0.261510   1 C  py        
    18      0.261490   4 C  px               19      0.261510   4 C  py        
     8      0.155901   2 C  px               14      0.155811   3 C  py        
    23      0.155901   5 C  px               29      0.155811   6 C  py        

 Vector   16  Occ=2.000000D+00  E=-5.361056D-01
              MO Center=  4.4D-13, -6.7D-13,  2.0D-17, r^2= 3.9D+00
   Bfn.  Coefficient  Atom+Function         Bfn.  Coefficient  Atom+Function  
  ----- ------------  ---------------      ----- ------------  ---------------
     8      0.322472   2 C  px               14     -0.322515   3 C  py        
    23      0.322472   5 C  px               29     -0.322515   6 C  py        
    32     -0.244682   8 H  s                33      0.244721   9 H  s         
    35      0.244682  11 H  s                36     -0.244721  12 H  s         

 Vector   17  Occ=2.000000D+00  E=-4.609188D-01
              MO Center= -2.0D-14,  5.5D-14,  6.9D-17, r^2= 2.6D+00
   Bfn.  Coefficient  Atom+Function         Bfn.  Coefficient  Atom+Function  
  ----- ------------  ---------------      ----- ------------  ---------------
     5      0.333324   1 C  pz               10      0.333324   2 C  pz        
    15      0.333324   3 C  pz               20      0.333324   4 C  pz        
    25      0.333324   5 C  pz               30      0.333324   6 C  pz        

 Vector   18  Occ=2.000000D+00  E=-4.337944D-01
              MO Center=  7.8D-13, -9.0D-13,  5.5D-18, r^2= 4.0D+00
   Bfn.  Coefficient  Atom+Function         Bfn.  Coefficient  Atom+Function  
  ----- ------------  ---------------      ----- ------------  ---------------
    32     -0.259249   8 H  s                33      0.258894   9 H  s         
    35     -0.259249  11 H  s                36      0.258894  12 H  s         
     3      0.235926   1 C  px                4     -0.235453   1 C  py        
    18     -0.235926   4 C  px               19      0.235453   4 C  py        
     9     -0.224115   2 C  py               13      0.224688   3 C  px        

 Vector   19  Occ=2.000000D+00  E=-4.337944D-01
              MO Center= -3.9D-13, -6.2D-13,  8.1D-19, r^2= 4.0D+00
   Bfn.  Coefficient  Atom+Function         Bfn.  Coefficient  Atom+Function  
  ----- ------------  ---------------      ----- ------------  ---------------
    31      0.299150   7 H  s                34      0.299150  10 H  s         
     9      0.242472   2 C  py               13      0.241941   3 C  px        
    24     -0.242472   5 C  py               28     -0.241941   6 C  px        
     8      0.211138   2 C  px               14      0.211596   3 C  py        
    23     -0.211138   5 C  px               29     -0.211596   6 C  py        

 Vector   20  Occ=2.000000D+00  E=-2.826632D-01
              MO Center= -2.4D-14, -1.7D-14, -1.4D-16, r^2= 2.6D+00
   Bfn.  Coefficient  Atom+Function         Bfn.  Coefficient  Atom+Function  
  ----- ------------  ---------------      ----- ------------  ---------------
     5      0.531263   1 C  pz               20     -0.531263   4 C  pz        
    10     -0.266037   2 C  pz               15     -0.265226   3 C  pz        
    25      0.266037   5 C  pz               30      0.265226   6 C  pz        

 Vector   21  Occ=2.000000D+00  E=-2.826632D-01
              MO Center=  2.6D-14, -5.3D-14,  2.2D-16, r^2= 2.6D+00
   Bfn.  Coefficient  Atom+Function         Bfn.  Coefficient  Atom+Function  
  ----- ------------  ---------------      ----- ------------  ---------------
    10      0.459853   2 C  pz               15     -0.460322   3 C  pz        
    25     -0.459853   5 C  pz               30      0.460322   6 C  pz        

 Vector   22  Occ=0.000000D+00  E= 2.707617D-01
              MO Center=  5.8D-15,  1.1D-14, -1.6D-16, r^2= 2.7D+00
   Bfn.  Coefficient  Atom+Function         Bfn.  Coefficient  Atom+Function  
  ----- ------------  ---------------      ----- ------------  ---------------
     5      0.659712   1 C  pz               20      0.659712   4 C  pz        
    10     -0.330024   2 C  pz               15     -0.329687   3 C  pz        
    25     -0.330024   5 C  pz               30     -0.329687   6 C  pz        

 Vector   23  Occ=0.000000D+00  E= 2.707617D-01
              MO Center= -4.8D-14,  7.5D-14, -8.6D-16, r^2= 2.7D+00
   Bfn.  Coefficient  Atom+Function         Bfn.  Coefficient  Atom+Function  
  ----- ------------  ---------------      ----- ------------  ---------------
    10      0.571230   2 C  pz               15     -0.571424   3 C  pz        
    25      0.571230   5 C  pz               30     -0.571424   6 C  pz        

 Vector   24  Occ=0.000000D+00  E= 5.091219D-01
              MO Center=  6.0D-14, -7.0D-14, -7.5D-17, r^2= 2.7D+00
   Bfn.  Coefficient  Atom+Function         Bfn.  Coefficient  Atom+Function  
  ----- ------------  ---------------      ----- ------------  ---------------
     5      0.524401   1 C  pz               10      0.524401   2 C  pz        
    15      0.524401   3 C  pz               20     -0.524401   4 C  pz        
    25     -0.524401   5 C  pz               30     -0.524401   6 C  pz        

 Vector   25  Occ=0.000000D+00  E= 5.792548D-01
              MO Center=  1.4D-12, -4.6D-12,  2.9D-18, r^2= 5.6D+00
   Bfn.  Coefficient  Atom+Function         Bfn.  Coefficient  Atom+Function  
  ----- ------------  ---------------      ----- ------------  ---------------
    31      0.512477   7 H  s                32      0.512477   8 H  s         
    33      0.512477   9 H  s                34      0.512477  10 H  s         
    35      0.512477  11 H  s                36      0.512477  12 H  s         
     2     -0.335058   1 C  s                 7     -0.335058   2 C  s         
    12     -0.335058   3 C  s                17     -0.335058   4 C  s         

 Vector   26  Occ=0.000000D+00  E= 6.499592D-01
              MO Center= -3.8D-12,  1.4D-12,  1.6D-18, r^2= 4.8D+00
   Bfn.  Coefficient  Atom+Function         Bfn.  Coefficient  Atom+Function  
  ----- ------------  ---------------      ----- ------------  ---------------
    32      0.569518   8 H  s                33     -0.569308   9 H  s         
    35     -0.569518  11 H  s                36      0.569308  12 H  s         
     8      0.424191   2 C  px               14     -0.423974   3 C  py        
    23      0.424191   5 C  px               29     -0.423974   6 C  py        
     9     -0.279135   2 C  py               13      0.279259   3 C  px        

 Vector   27  Occ=0.000000D+00  E= 6.499592D-01
              MO Center=  2.8D-12,  1.8D-12, -3.3D-18, r^2= 4.8D+00
   Bfn.  Coefficient  Atom+Function         Bfn.  Coefficient  Atom+Function  
  ----- ------------  ---------------      ----- ------------  ---------------
    31      0.657502   7 H  s                34     -0.657502  10 H  s         
     3     -0.393393   1 C  px                4     -0.393537   1 C  py        
    18     -0.393393   4 C  px               19     -0.393537   4 C  py        
     8     -0.340298   2 C  px               14     -0.340568   3 C  py        
    23     -0.340298   5 C  px               29     -0.340568   6 C  py        

 Vector   28  Occ=0.000000D+00  E= 7.291948D-01
              MO Center=  5.4D-12, -1.3D-11,  7.9D-17, r^2= 4.7D+00
   Bfn.  Coefficient  Atom+Function         Bfn.  Coefficient  Atom+Function  
  ----- ------------  ---------------      ----- ------------  ---------------
     2      0.754850   1 C  s                 7      0.754850   2 C  s         
    12      0.754850   3 C  s                17     -0.754850   4 C  s         
    22     -0.754850   5 C  s                27     -0.754850   6 C  s         
    31     -0.454155   7 H  s                32     -0.454155   8 H  s         
    33     -0.454155   9 H  s                34      0.454155  10 H  s         

 Vector   29  Occ=0.000000D+00  E= 7.436501D-01
              MO Center=  3.5D-12,  3.9D-12, -5.4D-18, r^2= 3.7D+00
   Bfn.  Coefficient  Atom+Function         Bfn.  Coefficient  Atom+Function  
  ----- ------------  ---------------      ----- ------------  ---------------
     2      1.058145   1 C  s                17      1.058145   4 C  s         
     7     -0.529250   2 C  s                12     -0.528895   3 C  s         
    22     -0.529250   5 C  s                27     -0.528895   6 C  s         
    31     -0.485853   7 H  s                34     -0.485853  10 H  s         
     9      0.359014   2 C  py               13      0.359092   3 C  px        

 Vector   30  Occ=0.000000D+00  E= 7.436501D-01
              MO Center= -9.0D-12,  9.9D-12,  1.5D-16, r^2= 3.7D+00
   Bfn.  Coefficient  Atom+Function         Bfn.  Coefficient  Atom+Function  
  ----- ------------  ---------------      ----- ------------  ---------------
     7      0.916278   2 C  s                12     -0.916483   3 C  s         
    22      0.916278   5 C  s                27     -0.916483   6 C  s         
    32     -0.420714   8 H  s                33      0.420808   9 H  s         
    35     -0.420714  11 H  s                36      0.420808  12 H  s         
     3     -0.301532   1 C  px                4      0.301527   1 C  py        

 Vector   31  Occ=0.000000D+00  E= 8.902107D-01
              MO Center=  9.2D-14,  1.2D-13,  1.1D-17, r^2= 3.4D+00
   Bfn.  Coefficient  Atom+Function         Bfn.  Coefficient  Atom+Function  
  ----- ------------  ---------------      ----- ------------  ---------------
     3      0.575626   1 C  px                4      0.575662   1 C  py        
    18     -0.575626   4 C  px               19     -0.575662   4 C  py        
    31     -0.543010   7 H  s                34     -0.543010  10 H  s         
     8      0.339249   2 C  px               14      0.339100   3 C  py        
    23     -0.339249   5 C  px               29     -0.339100   6 C  py        


 center of mass
 --------------
 x =   0.00000000 y =   0.00000000 z =   0.00000000

 moments of inertia (a.u.)
 ------------------
         313.066381755876          -0.000000000000           0.000000000000
          -0.000000000000         313.066381755876           0.000000000000
           0.000000000000           0.000000000000         626.132763511752

  Mulliken analysis of the total density
  --------------------------------------

    Atom       Charge   Shell Charges
 -----------   ------   -------------------------------------------------------
    1 C    6     6.06   1.99  1.13  2.94
    2 C    6     6.06   1.99  1.13  2.94
    3 C    6     6.06   1.99  1.13  2.94
    4 C    6     6.06   1.99  1.13  2.94
    5 C    6     6.06   1.99  1.13  2.94
    6 C    6     6.06   1.99  1.13  2.94
    7 H    1     0.94   0.94
    8 H    1     0.94   0.94
    9 H    1     0.94   0.94
   10 H    1     0.94   0.94
   11 H    1     0.94   0.94
   12 H    1     0.94   0.94

       Multipole analysis of the density wrt the origin
       ------------------------------------------------

     L   x y z        total         open         nuclear
     -   - - -        -----         ----         -------
     0   0 0 0     -0.000000      0.000000     42.000000

     1   1 0 0     -0.000000      0.000000      0.000000
     1   0 1 0      0.000000      0.000000      0.000000
     1   0 0 1     -0.000000      0.000000      0.000000

     2   2 0 0    -23.218693      0.000000    188.938774
     2   1 1 0      0.000000      0.000000      0.000000
     2   1 0 1     -0.000000      0.000000      0.000000
     2   0 2 0    -23.218693      0.000000    188.938774
     2   0 1 1     -0.000000      0.000000      0.000000
     2   0 0 2    -26.074513      0.000000      0.000000


 HESSIAN: the one electron contributions are done in       0.0s


 HESSIAN: 2-el 1st deriv. term done in                     0.2s


 HESSIAN: 2-el 2nd deriv. term done in                     0.7s

  stpr_wrt_fd_from_sq: overwrite of existing file:./c6h6.hess
 stpr_wrt_fd_dipole: overwrite of existing file./c6h6.fd_ddipole

 HESSIAN: the two electron contributions are done in       1.0s

                                NWChem CPHF Module
                                ------------------


  scftype          =     RHF 
  nclosed          =       21
  nopen            =        0
  variables        =      315
  # of vectors     =       36
  tolerance        = 0.10D-03
  level shift      = 0.00D+00
  max iterations   =       50
  max subspace     =      360

 SCF residual:    7.7169819571168942E-008


Iterative solution of linear equations
  No. of variables      315
  No. of equations       36
  Maximum subspace      360
        Iterations       50
       Convergence  1.0D-04
        Start time      2.6


   iter   nsub   residual    time
   ----  ------  --------  ---------
     1     36    1.64D-01       2.8
     2     72    2.25D-02       3.0
     3    108    1.57D-03       3.2
     4    144    9.62D-05       3.4
 HESSIAN: the CPHF contributions are done
  stpr_wrt_fd_from_sq: overwrite of existing file:./c6h6.hess
 stpr_wrt_fd_dipole: overwrite of existing file./c6h6.fd_ddipole

 Derivative Dipole

  
  
 X vector of derivative dipole (au) [debye/angstrom]
 d_dipole_x/<atom=   1,x> =    -0.0522     [   -0.2506]
 d_dipole_x/<atom=   1,y> =     0.1121     [    0.5385]
 d_dipole_x/<atom=   1,z> =     0.0000     [    0.0000]
 d_dipole_x/<atom=   2,x> =     0.0449     [    0.2158]
 d_dipole_x/<atom=   2,y> =    -0.0561     [   -0.2693]
 d_dipole_x/<atom=   2,z> =    -0.0000     [   -0.0000]
 d_dipole_x/<atom=   3,x> =    -0.1493     [   -0.7170]
 d_dipole_x/<atom=   3,y> =    -0.0561     [   -0.2693]
 d_dipole_x/<atom=   3,z> =    -0.0000     [   -0.0000]
 d_dipole_x/<atom=   4,x> =    -0.0522     [   -0.2506]
 d_dipole_x/<atom=   4,y> =     0.1121     [    0.5385]
 d_dipole_x/<atom=   4,z> =    -0.0000     [   -0.0000]
 d_dipole_x/<atom=   5,x> =     0.0449     [    0.2158]
 d_dipole_x/<atom=   5,y> =    -0.0561     [   -0.2693]
 d_dipole_x/<atom=   5,z> =     0.0000     [    0.0000]
 d_dipole_x/<atom=   6,x> =    -0.1493     [   -0.7170]
 d_dipole_x/<atom=   6,y> =    -0.0561     [   -0.2693]
 d_dipole_x/<atom=   6,z> =     0.0000     [    0.0000]
 d_dipole_x/<atom=   7,x> =     0.0522     [    0.2506]
 d_dipole_x/<atom=   7,y> =     0.0129     [    0.0622]
 d_dipole_x/<atom=   7,z> =     0.0000     [    0.0000]
 d_dipole_x/<atom=   8,x> =     0.0634     [    0.3044]
 d_dipole_x/<atom=   8,y> =    -0.0065     [   -0.0311]
 d_dipole_x/<atom=   8,z> =    -0.0000     [   -0.0000]
 d_dipole_x/<atom=   9,x> =     0.0410     [    0.1968]
 d_dipole_x/<atom=   9,y> =    -0.0065     [   -0.0311]
 d_dipole_x/<atom=   9,z> =    -0.0000     [   -0.0000]
 d_dipole_x/<atom=  10,x> =     0.0522     [    0.2506]
 d_dipole_x/<atom=  10,y> =     0.0129     [    0.0622]
 d_dipole_x/<atom=  10,z> =     0.0000     [    0.0000]
 d_dipole_x/<atom=  11,x> =     0.0634     [    0.3044]
 d_dipole_x/<atom=  11,y> =    -0.0065     [   -0.0311]
 d_dipole_x/<atom=  11,z> =    -0.0000     [   -0.0000]
 d_dipole_x/<atom=  12,x> =     0.0410     [    0.1968]
 d_dipole_x/<atom=  12,y> =    -0.0065     [   -0.0311]
 d_dipole_x/<atom=  12,z> =     0.0000     [    0.0000]
  
 Y vector of derivative dipole (au) [debye/angstrom]
 d_dipole_y/<atom=   1,x> =     0.1121     [    0.5385]
 d_dipole_y/<atom=   1,y> =    -0.0522     [   -0.2506]
 d_dipole_y/<atom=   1,z> =    -0.0000     [   -0.0000]
 d_dipole_y/<atom=   2,x> =    -0.0561     [   -0.2693]
 d_dipole_y/<atom=   2,y> =    -0.1493     [   -0.7170]
 d_dipole_y/<atom=   2,z> =     0.0000     [    0.0000]
 d_dipole_y/<atom=   3,x> =    -0.0561     [   -0.2693]
 d_dipole_y/<atom=   3,y> =     0.0449     [    0.2158]
 d_dipole_y/<atom=   3,z> =     0.0000     [    0.0000]
 d_dipole_y/<atom=   4,x> =     0.1121     [    0.5385]
 d_dipole_y/<atom=   4,y> =    -0.0522     [   -0.2506]
 d_dipole_y/<atom=   4,z> =    -0.0000     [   -0.0000]
 d_dipole_y/<atom=   5,x> =    -0.0561     [   -0.2693]
 d_dipole_y/<atom=   5,y> =    -0.1493     [   -0.7170]
 d_dipole_y/<atom=   5,z> =    -0.0000     [   -0.0000]
 d_dipole_y/<atom=   6,x> =    -0.0561     [   -0.2693]
 d_dipole_y/<atom=   6,y> =     0.0449     [    0.2158]
 d_dipole_y/<atom=   6,z> =    -0.0000     [   -0.0000]
 d_dipole_y/<atom=   7,x> =     0.0129     [    0.0622]
 d_dipole_y/<atom=   7,y> =     0.0522     [    0.2506]
 d_dipole_y/<atom=   7,z> =     0.0000     [    0.0000]
 d_dipole_y/<atom=   8,x> =    -0.0065     [   -0.0311]
 d_dipole_y/<atom=   8,y> =     0.0410     [    0.1968]
 d_dipole_y/<atom=   8,z> =    -0.0000     [   -0.0000]
 d_dipole_y/<atom=   9,x> =    -0.0065     [   -0.0311]
 d_dipole_y/<atom=   9,y> =     0.0634     [    0.3044]
 d_dipole_y/<atom=   9,z> =    -0.0000     [   -0.0000]
 d_dipole_y/<atom=  10,x> =     0.0129     [    0.0622]
 d_dipole_y/<atom=  10,y> =     0.0522     [    0.2506]
 d_dipole_y/<atom=  10,z> =    -0.0000     [   -0.0000]
 d_dipole_y/<atom=  11,x> =    -0.0065     [   -0.0311]
 d_dipole_y/<atom=  11,y> =     0.0410     [    0.1968]
 d_dipole_y/<atom=  11,z> =    -0.0000     [   -0.0000]
 d_dipole_y/<atom=  12,x> =    -0.0065     [   -0.0311]
 d_dipole_y/<atom=  12,y> =     0.0634     [    0.3044]
 d_dipole_y/<atom=  12,z> =     0.0000     [    0.0000]
  
 Z vector of derivative dipole (au) [debye/angstrom]
 d_dipole_z/<atom=   1,x> =    -0.0000     [   -0.0000]
 d_dipole_z/<atom=   1,y> =     0.0000     [    0.0000]
 d_dipole_z/<atom=   1,z> =    -0.0625     [   -0.3004]
 d_dipole_z/<atom=   2,x> =    -0.0000     [   -0.0000]
 d_dipole_z/<atom=   2,y> =     0.0000     [    0.0000]
 d_dipole_z/<atom=   2,z> =    -0.0625     [   -0.3004]
 d_dipole_z/<atom=   3,x> =     0.0000     [    0.0000]
 d_dipole_z/<atom=   3,y> =     0.0000     [    0.0000]
 d_dipole_z/<atom=   3,z> =    -0.0625     [   -0.3004]
 d_dipole_z/<atom=   4,x> =    -0.0000     [   -0.0000]
 d_dipole_z/<atom=   4,y> =     0.0000     [    0.0000]
 d_dipole_z/<atom=   4,z> =    -0.0625     [   -0.3004]
 d_dipole_z/<atom=   5,x> =    -0.0000     [   -0.0000]
 d_dipole_z/<atom=   5,y> =    -0.0000     [   -0.0000]
 d_dipole_z/<atom=   5,z> =    -0.0625     [   -0.3004]
 d_dipole_z/<atom=   6,x> =     0.0000     [    0.0000]
 d_dipole_z/<atom=   6,y> =    -0.0000     [   -0.0000]
 d_dipole_z/<atom=   6,z> =    -0.0625     [   -0.3004]
 d_dipole_z/<atom=   7,x> =     0.0000     [    0.0000]
 d_dipole_z/<atom=   7,y> =     0.0000     [    0.0000]
 d_dipole_z/<atom=   7,z> =     0.0625     [    0.3004]
 d_dipole_z/<atom=   8,x> =     0.0000     [    0.0000]
 d_dipole_z/<atom=   8,y> =    -0.0000     [   -0.0000]
 d_dipole_z/<atom=   8,z> =     0.0625     [    0.3004]
 d_dipole_z/<atom=   9,x> =    -0.0000     [   -0.0000]
 d_dipole_z/<atom=   9,y> =     0.0000     [    0.0000]
 d_dipole_z/<atom=   9,z> =     0.0625     [    0.3004]
 d_dipole_z/<atom=  10,x> =    -0.0000     [   -0.0000]
 d_dipole_z/<atom=  10,y> =    -0.0000     [   -0.0000]
 d_dipole_z/<atom=  10,z> =     0.0625     [    0.3004]
 d_dipole_z/<atom=  11,x> =     0.0000     [    0.0000]
 d_dipole_z/<atom=  11,y> =     0.0000     [    0.0000]
 d_dipole_z/<atom=  11,z> =     0.0625     [    0.3004]
 d_dipole_z/<atom=  12,x> =     0.0000     [    0.0000]
 d_dipole_z/<atom=  12,y> =    -0.0000     [   -0.0000]
 d_dipole_z/<atom=  12,z> =     0.0625     [    0.3004]
  
  
 HESSIAN: the Hessian is done


  Vibrational analysis via the FX method 

  See chapter 2 in "Molecular Vibrations" by Wilson, Decius and Cross

  Vib: Default input used 

  Nuclear Hessian passed symmetry test 



 ---------------------------- Atom information ----------------------------
     atom    #        X              Y              Z            mass
 --------------------------------------------------------------------------
    C        1  1.8530490D+00  1.8530490D+00  0.0000000D+00  1.2000000D+01
    C        2 -2.5313120D+00  6.7826301D-01  0.0000000D+00  1.2000000D+01
    C        3  6.7826301D-01 -2.5313120D+00  0.0000000D+00  1.2000000D+01
    C        4 -1.8530490D+00 -1.8530490D+00  0.0000000D+00  1.2000000D+01
    C        5  2.5313120D+00 -6.7826301D-01  0.0000000D+00  1.2000000D+01
    C        6 -6.7826301D-01  2.5313120D+00  0.0000000D+00  1.2000000D+01
    H        7  3.2995533D+00  3.2995533D+00  0.0000000D+00  1.0078250D+00
    H        8 -4.5072737D+00  1.2077203D+00  0.0000000D+00  1.0078250D+00
    H        9  1.2077203D+00 -4.5072737D+00  0.0000000D+00  1.0078250D+00
    H       10 -3.2995533D+00 -3.2995533D+00  0.0000000D+00  1.0078250D+00
    H       11  4.5072737D+00 -1.2077203D+00  0.0000000D+00  1.0078250D+00
    H       12 -1.2077203D+00  4.5072737D+00  0.0000000D+00  1.0078250D+00
 --------------------------------------------------------------------------




          ----------------------------------------------------
          MASS-WEIGHTED NUCLEAR HESSIAN (Hartree/Bohr/Bohr/Kamu)
          ----------------------------------------------------


               1            2            3            4            5            6            7            8            9           10
   ----- ----- ----- ----- -----
    1    7.77186D+01
    2    7.95592D+00  7.77186D+01
    3    2.25650D-14 -1.05301D-14  1.56975D+01
    4   -6.56884D+00  8.37903D-01 -2.75543D-14  8.46087D+01
    5   -1.12311D+01  1.14327D+01 -4.16758D-14 -3.97796D+00  7.08286D+01
    6   -1.53241D-14  2.53320D-16  8.74296D-01  1.72408D-14 -3.23801D-14  1.56975D+01
    7    1.14327D+01 -1.12311D+01  7.73389D-15  2.43193D+00  1.64277D+01  7.20987D-15  7.08286D+01
    8    8.37903D-01 -6.56884D+00 -6.13954D-15  4.35869D+00  2.43193D+00 -2.30509D-16 -3.97796D+00  8.46087D+01
    9   -4.16177D-15 -6.85040D-15  8.74296D-01  5.77362D-15  3.37101D-16  8.74296D-01  3.63242D-14  1.67610D-14  1.56975D+01
   10   -7.43521D+00  7.55464D+00 -1.30587D-15 -1.78086D+01 -2.95108D+00 -3.67843D-15 -3.35121D+01  1.20175D+01 -5.34565D-15  7.77186D+01
   11    7.55464D+00 -7.43521D+00  2.89228D-14  1.20175D+01 -3.35121D+01  5.32226D-14 -2.95108D+00 -1.78086D+01  2.94176D-14  7.95592D+00
   12   -5.94136D-15  8.10785D-15 -1.00361D+00 -1.17223D-15  1.21032D-14 -7.25838D+00 -1.82893D-14 -5.06964D-16 -7.25838D+00  1.20536D-14
   13   -1.78086D+01  1.20175D+01 -9.50857D-15 -8.92705D-01 -3.77732D+00 -2.20244D-14 -2.56604D+01 -1.65507D+01 -2.79866D-14 -6.56884D+00
   14   -2.95106D+00 -3.35121D+01  4.08136D-14 -3.77732D+00 -1.39777D+01  1.85707D-14 -1.58215D+00 -2.56604D+01  1.53612D-14 -1.12311D+01
   15    1.89741D-14 -7.89129D-15 -7.25838D+00  1.36174D-15  9.77337D-16 -1.00361D+00 -3.06489D-14 -1.73111D-14 -7.25838D+00  4.75795D-15
   16   -3.35121D+01 -2.95106D+00 -4.06149D-14 -2.56604D+01 -1.58215D+00 -6.13244D-14 -1.39777D+01 -3.77732D+00 -3.12937D-14  1.14327D+01
   17    1.20175D+01 -1.78086D+01  9.56756D-15 -1.65507D+01 -2.56604D+01 -4.33321D-15 -3.77732D+00 -8.92705D-01 -3.47704D-15  8.37903D-01
   18   -2.98482D-14  2.82493D-14 -7.25838D+00  1.87397D-15  3.44511D-14 -7.25838D+00 -4.21000D-15 -7.69569D-15 -1.00361D+00 -7.65408D-16
   19   -8.00230D+01 -5.65969D+01 -6.21038D-14 -1.62834D+00  1.18038D+00 -2.56760D-14 -2.21062D-01  6.26996D-01 -2.50364D-14  1.98204D-01
   20   -5.65969D+01 -8.00230D+01 -6.10415D-16  6.26996D-01 -2.21062D-01  1.71639D-14  1.18038D+00 -1.62834D+00  1.12452D-14  4.40169D-01
   21   -4.82697D-14  3.33082D-14 -1.53275D+01 -1.17228D-14 -3.27871D-14  3.03024D+00  2.56680D-14  5.56523D-15  3.03024D+00 -2.34194D-14
   22   -4.93901D-01 -1.33790D+00  5.15685D-14 -1.29037D+02  2.82985D+01  8.89242D-14  2.09735D-01  4.34215D-01  5.74640D-14 -1.64529D-03
   23   -7.84520D-01 -1.35550D+00  7.11037D-15  2.82985D+01 -3.10086D+01 -8.60027D-15 -1.19168D-01 -2.05913D+00  1.73130D-15  1.14473D+01
   24    9.07458D-15 -2.57128D-14  3.03024D+00 -3.81524D-14  2.66384D-14 -1.53275D+01  2.07729D-14  1.00398D-14  3.03024D+00  1.29967D-14
   25   -1.35550D+00 -7.84520D-01  1.22973D-14 -2.05913D+00 -1.19168D-01  8.24521D-15 -3.10086D+01  2.82985D+01 -1.71955D-14 -5.40640D-01
   26   -1.33790D+00 -4.93901D-01 -4.79428D-15  4.34215D-01  2.09735D-01 -2.07804D-14  2.82985D+01 -1.29037D+02 -2.28414D-14 -2.11122D+00
   27    5.12637D-14 -3.85468D-14  3.03024D+00 -4.73312D-15  3.55159D-14  3.03024D+00 -4.03504D-14 -9.89959D-15 -1.53275D+01  6.12879D-14
   28    1.98204D-01  4.40169D-01  4.81127D-15  3.90627D+00  4.67864D+00 -4.41379D-16 -4.44855D+00 -8.87992D+00  8.75114D-15 -8.00230D+01
   29    4.40169D-01  1.98204D-01  9.18253D-15 -8.87992D+00 -4.44855D+00 -9.53456D-16  4.67864D+00  3.90627D+00 -1.88815D-16 -5.65969D+01
   30    4.27301D-14 -3.03730D-14 -2.96949D-01 -7.24947D-15  2.54444D-14  1.45946D+00 -2.47590D-14 -5.99768D-15  1.45946D+00  4.24048D-14
   31   -1.64529D-03 -2.11122D+00 -2.71605D-14  5.79401D-01 -2.20084D-01 -3.30719D-14 -4.17906D+00  4.21186D+00 -2.73497D-14 -4.93901D-01
   32    1.14473D+01 -5.40640D-01 -8.77428D-15 -2.20084D-01 -1.82994D-01  2.18283D-14 -9.34671D+00  3.63677D+00  3.98750D-14 -7.84520D-01
   33    3.15509D-14  1.92935D-14  1.45946D+00 -5.23550D-15 -1.27117D-14 -2.96949D-01  2.86225D-14 -4.20660D-15  1.45946D+00 -2.90953D-14
   34   -5.40640D-01  1.14473D+01 -1.71091D-14  3.63677D+00 -9.34671D+00  2.34678D-14 -1.82994D-01 -2.20084D-01 -1.34301D-14 -1.35550D+00
   35   -2.11122D+00 -1.64529D-03  5.38679D-14  4.21186D+00 -4.17906D+00  7.57239D-14 -2.20084D-01  5.79401D-01  5.04373D-14 -1.33790D+00
   36   -4.99343D-14 -1.10510D-14  1.45946D+00  4.78981D-14 -1.92623D-15  1.45946D+00 -4.75996D-15  4.88921D-14 -2.96949D-01  2.70423D-14


              11           12           13           14           15           16           17           18           19           20
   ----- ----- ----- ----- -----
   11    7.77186D+01
   12   -1.02138D-14  1.56975D+01
   13    8.37903D-01  2.30513D-14  8.46087D+01
   14    1.14327D+01 -5.60259D-14 -3.97796D+00  7.08286D+01
   15   -7.66909D-16  8.74296D-01 -1.36225D-14  2.01541D-14  1.56975D+01
   16   -1.12311D+01  5.24450D-14  2.43193D+00  1.64277D+01  1.62432D-14  7.08286D+01
   17   -6.56884D+00  9.53935D-15  4.35869D+00  2.43193D+00 -1.90635D-15 -3.97796D+00  8.46087D+01
   18   -2.34686D-14  8.74296D-01  6.29664D-15 -1.13883D-14  8.74296D-01  2.78501D-14 -2.62022D-14  1.56975D+01
   19    4.40169D-01  3.17576D-14  3.90627D+00  4.67864D+00  4.09299D-14 -4.44855D+00 -8.87992D+00  4.68190D-14  2.79997D+02
   20    1.98204D-01 -5.57782D-15 -8.87992D+00 -4.44855D+00 -8.38512D-15  4.67864D+00  3.90627D+00  8.21425D-15  2.03653D+02  2.79997D+02
   21    2.27373D-14 -2.96949D-01 -9.04452D-15 -2.94349D-14  1.45946D+00  4.54597D-14 -6.31529D-15  1.45946D+00  3.02714D-14  3.24346D-14
   22   -2.11122D+00 -7.22866D-14  5.79401D-01 -2.20084D-01 -3.38545D-14 -4.17906D+00  4.21186D+00 -8.36828D-14 -6.12622D-01  6.30268D-01
   23   -5.40640D-01 -9.60586D-17 -2.20084D-01 -1.82994D-01  5.02212D-16 -9.34671D+00  3.63677D+00  6.01433D-15 -1.36206D+00  6.54703D-01
   24   -3.93734D-14  1.45946D+00 -5.66905D-15 -4.05590D-15 -2.96949D-01  6.49482D-15  3.00354D-14  1.45946D+00  1.97735D-15  1.64383D-14
   25    1.14473D+01  5.69272D-16  3.63677D+00 -9.34671D+00  8.66851D-15 -1.82994D-01 -2.20084D-01 -1.41877D-14  6.54703D-01 -1.36206D+00
   26   -1.64529D-03  3.01639D-14  4.21186D+00 -4.17906D+00  1.45145D-15 -2.20084D-01  5.79401D-01  1.14270D-15  6.30268D-01 -6.12622D-01
   27   -5.20230D-14  1.45946D+00 -3.38892D-15  5.35008D-14  1.45946D+00 -5.05429D-14  8.12418D-15 -2.96949D-01  2.70835D-14  5.81513D-14
   28   -5.65969D+01  8.27907D-15 -1.62834D+00  1.18038D+00 -9.90550D-15 -2.21062D-01  6.26996D-01 -1.98357D-14 -1.01628D-01 -3.46723D-01
   29   -8.00230D+01 -5.68217D-15  6.26996D-01 -2.21062D-01 -1.49817D-14  1.18038D+00 -1.62834D+00 -2.18204D-14 -3.46723D-01 -1.01628D-01
   30   -2.18382D-14 -1.53275D+01  2.97016D-15  2.28131D-14  3.03024D+00 -4.31968D-14 -1.71845D-15  3.03024D+00  1.91290D-14  3.15299D-14
   31   -1.33790D+00  3.44378D-14 -1.29037D+02  2.82985D+01  8.96461D-14  2.09735D-01  4.34215D-01  4.34995D-14  1.41468D+00 -1.61885D-01
   32   -1.35550D+00 -1.47416D-14  2.82985D+01 -3.10086D+01 -1.97138D-14 -1.19168D-01 -2.05913D+00 -2.44788D-14 -3.76251D-01  2.34666D+00
   33    4.00063D-16  3.03024D+00  3.61919D-14 -1.65726D-14 -1.53275D+01  1.25117D-14  4.67901D-15  3.03024D+00 -3.54174D-15  2.42291D-14
   34   -7.84520D-01  3.91990D-15 -2.05913D+00 -1.19168D-01 -4.49907D-15 -3.10086D+01  2.82985D+01 -1.23147D-14  2.34666D+00 -3.76251D-01
   35   -4.93901D-01 -5.95470D-14  4.34215D-01  2.09735D-01 -3.50808D-14  2.82985D+01 -1.29037D+02 -3.38074D-14 -1.61885D-01  1.41468D+00
   36    6.22055D-14  3.03024D+00 -5.89087D-14  1.33504D-14  3.03024D+00  1.29373D-14 -5.33393D-14 -1.53275D+01 -7.87614D-14 -1.15808D-13


              21           22           23           24           25           26           27           28           29           30
   ----- ----- ----- ----- -----
   21    3.65383D+01
   22   -5.96517D-14  4.56365D+02
   23    1.00075D-14 -1.01826D+02  1.03628D+02
   24   -1.31839D-01 -1.59058D-14 -1.36272D-14  3.65383D+01
   25    3.39092D-15  2.09962D-02  1.72788D+00  3.08208D-14  1.03628D+02
   26    3.62384D-14 -2.64449D-01  2.10852D-02 -2.14226D-15 -1.01826D+02  4.56365D+02
   27   -1.31839D-01 -4.53341D-15  1.13068D-14 -1.31839D-01 -2.89601D-14  3.86137D-14  3.65383D+01
   28    1.74265D-14  1.41466D+00 -3.76209D-01  1.18756D-14  2.34669D+00 -1.61843D-01 -5.28850D-15  2.79997D+02
   29    2.23269D-14 -1.61843D-01  2.34669D+00  2.41998D-14 -3.76209D-01  1.41466D+00  1.80872D-15  2.03653D+02  2.79997D+02
   30   -1.43760D+00 -3.00277D-15  7.62069D-15 -5.95377D+00  8.52704D-15  1.09443D-14 -5.95377D+00 -6.17620D-14 -4.78800D-15  3.65383D+01
   31    3.39667D-14 -4.01899D-01  1.73361D-01 -1.91206D-15  1.88070D+00  4.30911D-01  2.15579D-14 -6.12622D-01  6.30268D-01 -2.51803D-15
   32   -2.95839D-14  1.73361D-01  1.98643D-01  8.77502D-16  6.45277D-01  1.88065D+00 -1.54125D-14 -1.36206D+00  6.54703D-01 -5.89021D-15
   33   -5.95377D+00 -2.19246D-14  9.57096D-15 -1.43760D+00 -4.63843D-15  8.91586D-15 -5.95377D+00 -4.74953D-15 -1.42829D-14 -1.31839D-01
   34    2.00444D-14  1.88065D+00  6.45277D-01  3.65347D-15  1.98643D-01  1.73361D-01  4.25605D-15  6.54703D-01 -1.36206D+00 -1.27080D-14
   35   -3.19226D-14  4.30911D-01  1.88070D+00 -1.13204D-14  1.73361D-01 -4.01899D-01 -2.39556D-14  6.30268D-01 -6.12622D-01  1.70758D-14
   36   -5.95377D+00  1.57202D-13 -5.80692D-14 -5.95377D+00 -2.70599D-14  1.13684D-13 -1.43760D+00  9.27458D-14  1.09728D-13 -1.31839D-01


              31           32           33           34           35           36
   ----- ----- ----- ----- -----
   31    4.56365D+02
   32   -1.01826D+02  1.03628D+02
   33   -2.37406D-13  2.96681D-14  3.65383D+01
   34    2.09962D-02  1.72788D+00 -1.03176D-15  1.03628D+02
   35   -2.64449D-01  2.10852D-02  2.17019D-14 -1.01826D+02  4.56365D+02
   36   -1.44210D-13  4.70489D-14 -1.31839D-01  8.88512D-14 -2.97174D-13  3.65383D+01



          -------------------------------------------------
          NORMAL MODE EIGENVECTORS IN CARTESIAN COORDINATES
          -------------------------------------------------
                 (Frequencies expressed in cm-1)

                    1           2           3           4           5           6
 
 Frequency         -8.13       -7.78       -7.78       -0.49       -0.00        0.49
 
           1     0.07405     0.00000     0.00000     0.09803     0.00000     0.05660
           2    -0.07405     0.00000     0.00000     0.05660     0.00000    -0.09803
           3     0.00000     0.00009     0.14809     0.00000     0.11319     0.00000
           4     0.02710     0.00000     0.00000     0.09803     0.00000     0.05660
           5     0.10116     0.00000     0.00000     0.05660     0.00000    -0.09803
           6     0.00000     0.12821    -0.07413     0.00000     0.11319     0.00000
           7    -0.10116     0.00000     0.00000     0.09803     0.00000     0.05660
           8    -0.02710     0.00000     0.00000     0.05660     0.00000    -0.09803
           9     0.00000    -0.12830    -0.07397     0.00000     0.11319     0.00000
          10    -0.07405     0.00000     0.00000     0.09803     0.00000     0.05660
          11     0.07405     0.00000     0.00000     0.05660     0.00000    -0.09803
          12     0.00000    -0.00009    -0.14809     0.00000     0.11319     0.00000
          13    -0.02710     0.00000     0.00000     0.09803     0.00000     0.05660
          14    -0.10116     0.00000     0.00000     0.05660     0.00000    -0.09803
          15     0.00000    -0.12821     0.07413     0.00000     0.11319     0.00000
          16     0.10116     0.00000     0.00000     0.09803     0.00000     0.05660
          17     0.02710     0.00000     0.00000     0.05660     0.00000    -0.09803
          18     0.00000     0.12830     0.07397     0.00000     0.11319     0.00000
          19     0.13188     0.00000     0.00000     0.09803     0.00000     0.05660
          20    -0.13188     0.00000     0.00000     0.05660     0.00000    -0.09803
          21     0.00000     0.00016     0.26382     0.00000     0.11319     0.00000
          22     0.04827     0.00000     0.00000     0.09803     0.00000     0.05660
          23     0.18016     0.00000     0.00000     0.05660     0.00000    -0.09803
          24     0.00000     0.22840    -0.13205     0.00000     0.11319     0.00000
          25    -0.18016     0.00000     0.00000     0.09803     0.00000     0.05660
          26    -0.04827     0.00000     0.00000     0.05660     0.00000    -0.09803
          27     0.00000    -0.22856    -0.13177     0.00000     0.11319     0.00000
          28    -0.13188     0.00000     0.00000     0.09803     0.00000     0.05660
          29     0.13188     0.00000     0.00000     0.05660     0.00000    -0.09803
          30     0.00000    -0.00016    -0.26382     0.00000     0.11319     0.00000
          31    -0.04827     0.00000     0.00000     0.09803     0.00000     0.05660
          32    -0.18016     0.00000     0.00000     0.05660     0.00000    -0.09803
          33     0.00000    -0.22840     0.13205     0.00000     0.11319     0.00000
          34     0.18016     0.00000     0.00000     0.09803     0.00000     0.05660
          35     0.04827     0.00000     0.00000     0.05660     0.00000    -0.09803
          36     0.00000     0.22856     0.13177     0.00000     0.11319     0.00000

                    7           8           9          10          11          12
 
 Frequency        477.96      477.96      700.13      700.13      810.43      841.19
 
           1     0.00000     0.00000     0.08903     0.06868     0.00000     0.00000
           2     0.00000     0.00000     0.11136    -0.01555     0.00000     0.00000
           3     0.14177    -0.00006     0.00000     0.00000    -0.03280    -0.10454
           4     0.00000     0.00000     0.08856    -0.11163     0.00000     0.00000
           5     0.00000     0.00000    -0.06895    -0.01507     0.00000     0.00000
           6    -0.07094    -0.12275     0.00000     0.00000    -0.03280    -0.10454
           7     0.00000     0.00000    -0.06736    -0.02107     0.00000     0.00000
           8     0.00000     0.00000     0.02162     0.14084     0.00000     0.00000
           9    -0.07083     0.12281     0.00000     0.00000    -0.03280    -0.10454
          10     0.00000     0.00000    -0.08903    -0.06868     0.00000     0.00000
          11     0.00000     0.00000    -0.11136     0.01555     0.00000     0.00000
          12     0.14177    -0.00006     0.00000     0.00000    -0.03280     0.10454
          13     0.00000     0.00000    -0.08856     0.11163     0.00000     0.00000
          14     0.00000     0.00000     0.06895     0.01507     0.00000     0.00000
          15    -0.07094    -0.12275     0.00000     0.00000    -0.03280     0.10454
          16     0.00000     0.00000     0.06736     0.02107     0.00000     0.00000
          17     0.00000     0.00000    -0.02162    -0.14084     0.00000     0.00000
          18    -0.07083     0.12281     0.00000     0.00000    -0.03280     0.10454
          19     0.00000     0.00000     0.11717    -0.03331     0.00000     0.00000
          20     0.00000     0.00000     0.08527     0.08699     0.00000     0.00000
          21     0.30238    -0.00013     0.00000     0.00000     0.39059    -0.18776
          22     0.00000     0.00000     0.11703    -0.08535     0.00000     0.00000
          23     0.00000     0.00000     0.03324     0.08712     0.00000     0.00000
          24    -0.15131    -0.26180     0.00000     0.00000     0.39059    -0.18776
          25     0.00000     0.00000     0.07203    -0.05921     0.00000     0.00000
          26     0.00000     0.00000     0.05937     0.13212     0.00000     0.00000
          27    -0.15107     0.26193     0.00000     0.00000     0.39059    -0.18776
          28     0.00000     0.00000    -0.11717     0.03331     0.00000     0.00000
          29     0.00000     0.00000    -0.08527    -0.08699     0.00000     0.00000
          30     0.30238    -0.00013     0.00000     0.00000     0.39059     0.18776
          31     0.00000     0.00000    -0.11703     0.08535     0.00000     0.00000
          32     0.00000     0.00000    -0.03324    -0.08712     0.00000     0.00000
          33    -0.15131    -0.26180     0.00000     0.00000     0.39059     0.18776
          34     0.00000     0.00000    -0.07203     0.05921     0.00000     0.00000
          35     0.00000     0.00000    -0.05937    -0.13212     0.00000     0.00000
          36    -0.15107     0.26193     0.00000     0.00000     0.39059     0.18776

                   13          14          15          16          17          18
 
 Frequency       1037.37     1037.37     1154.52     1156.75     1172.51     1190.32
 
           1     0.00000     0.00000    -0.08037     0.07992     0.07916     0.00000
           2     0.00000     0.00000     0.08036     0.07992     0.07916     0.00000
           3     0.07646    -0.00000     0.00000     0.00000     0.00000     0.08763
           4     0.00000     0.00000    -0.02941    -0.10917    -0.10813     0.00000
           5     0.00000     0.00000    -0.10978     0.02925     0.02897     0.00000
           6    -0.03823    -0.06621     0.00000     0.00000     0.00000    -0.04381
           7     0.00000     0.00000     0.10978     0.02926     0.02897     0.00000
           8     0.00000     0.00000     0.02942    -0.10917    -0.10813     0.00000
           9    -0.03823     0.06621     0.00000     0.00000     0.00000    -0.04382
          10     0.00000     0.00000    -0.08037     0.07992    -0.07916     0.00000
          11     0.00000     0.00000     0.08036     0.07992    -0.07916     0.00000
          12    -0.07646     0.00000     0.00000     0.00000     0.00000     0.08763
          13     0.00000     0.00000    -0.02941    -0.10917     0.10813     0.00000
          14     0.00000     0.00000    -0.10978     0.02925    -0.02897     0.00000
          15     0.03823     0.06621     0.00000     0.00000     0.00000    -0.04381
          16     0.00000     0.00000     0.10978     0.02926    -0.02897     0.00000
          17     0.00000     0.00000     0.02942    -0.10917     0.10813     0.00000
          18     0.03823    -0.06621     0.00000     0.00000     0.00000    -0.04382
          19     0.00000     0.00000    -0.07609     0.08145     0.08989     0.00000
          20     0.00000     0.00000     0.07608     0.08145     0.08989     0.00000
          21    -0.51102     0.00000     0.00000     0.00000     0.00000    -0.48920
          22     0.00000     0.00000    -0.02785    -0.11127    -0.12279     0.00000
          23     0.00000     0.00000    -0.10394     0.02981     0.03290     0.00000
          24     0.25551     0.44256     0.00000     0.00000     0.00000     0.24459
          25     0.00000     0.00000     0.10394     0.02982     0.03290     0.00000
          26     0.00000     0.00000     0.02785    -0.11126    -0.12279     0.00000
          27     0.25551    -0.44256     0.00000     0.00000     0.00000     0.24460
          28     0.00000     0.00000    -0.07609     0.08145    -0.08989     0.00000
          29     0.00000     0.00000     0.07608     0.08145    -0.08989     0.00000
          30     0.51102    -0.00000     0.00000     0.00000     0.00000    -0.48920
          31     0.00000     0.00000    -0.02785    -0.11127     0.12279     0.00000
          32     0.00000     0.00000    -0.10394     0.02981    -0.03290     0.00000
          33    -0.25551    -0.44256     0.00000     0.00000     0.00000     0.24459
          34     0.00000     0.00000     0.10394     0.02982    -0.03290     0.00000
          35     0.00000     0.00000     0.02785    -0.11126     0.12279     0.00000
          36    -0.25551     0.44256     0.00000     0.00000     0.00000     0.24460

                   19          20          21          22          23          24
 
 Frequency       1190.32     1214.37     1225.78     1225.78     1371.19     1371.19
 
           1     0.00000     0.00000    -0.05751    -0.04916     0.03883    -0.00678
           2     0.00000     0.00000     0.02535    -0.07128    -0.03751     0.01213
           3     0.00000     0.05441     0.00000     0.00000     0.00000     0.00000
           4     0.00000     0.00000     0.07135    -0.04904    -0.01269    -0.00776
           5     0.00000     0.00000     0.02524     0.05757    -0.03653    -0.03940
           6    -0.07589     0.05441     0.00000     0.00000     0.00000     0.00000
           7     0.00000     0.00000     0.00682     0.06249     0.01392    -0.05189
           8     0.00000     0.00000    -0.08630    -0.00695     0.00760    -0.01279
           9     0.07589     0.05441     0.00000     0.00000     0.00000     0.00000
          10     0.00000     0.00000    -0.05751    -0.04916    -0.03883     0.00678
          11     0.00000     0.00000     0.02535    -0.07128     0.03751    -0.01213
          12     0.00000    -0.05441     0.00000     0.00000     0.00000     0.00000
          13     0.00000     0.00000     0.07135    -0.04904     0.01269     0.00776
          14     0.00000     0.00000     0.02524     0.05757     0.03653     0.03940
          15    -0.07589    -0.05441     0.00000     0.00000     0.00000     0.00000
          16     0.00000     0.00000     0.00682     0.06249    -0.01392     0.05189
          17     0.00000     0.00000    -0.08630    -0.00695    -0.00760     0.01279
          18     0.07589    -0.05441     0.00000     0.00000     0.00000     0.00000
          19     0.00000     0.00000    -0.31168     0.00886     0.37212    -0.09166
          20     0.00000     0.00000     0.27461    -0.14768    -0.37188     0.09262
          21    -0.00001    -0.36072     0.00000     0.00000     0.00000     0.00000
          22     0.00000     0.00000     0.14791     0.00927    -0.09777    -0.10059
          23     0.00000     0.00000     0.27420     0.31191    -0.36295    -0.37727
          24     0.42366    -0.36072     0.00000     0.00000     0.00000     0.00000
          25     0.00000     0.00000    -0.08224     0.40708     0.14491    -0.50306
          26     0.00000     0.00000    -0.12361     0.08176     0.03952    -0.13459
          27    -0.42365    -0.36072     0.00000     0.00000     0.00000     0.00000
          28     0.00000     0.00000    -0.31168     0.00886    -0.37212     0.09166
          29     0.00000     0.00000     0.27461    -0.14768     0.37188    -0.09262
          30    -0.00001     0.36072     0.00000     0.00000     0.00000     0.00000
          31     0.00000     0.00000     0.14791     0.00927     0.09777     0.10059
          32     0.00000     0.00000     0.27420     0.31191     0.36295     0.37727
          33     0.42366     0.36072     0.00000     0.00000     0.00000     0.00000
          34     0.00000     0.00000    -0.08224     0.40708    -0.14491     0.50306
          35     0.00000     0.00000    -0.12361     0.08176    -0.03952     0.13459
          36    -0.42365     0.36072     0.00000     0.00000     0.00000     0.00000

                   25          26          27          28          29          30
 
 Frequency       1376.72     1595.09     1772.52     1772.52     1932.52     1932.52
 
           1     0.02205     0.03822    -0.02684    -0.08500     0.08668    -0.06984
           2    -0.02205    -0.03822    -0.06604     0.05988    -0.11024    -0.01542
           3     0.00000     0.00000     0.00000     0.00000     0.00000     0.00000
           4     0.00807     0.01399    -0.02720     0.06582     0.01574    -0.06929
           5     0.03012     0.05221     0.08479     0.06024    -0.11080    -0.08636
           6     0.00000     0.00000     0.00000     0.00000     0.00000     0.00000
           7    -0.03012    -0.05221     0.10360    -0.00927     0.05073    -0.13100
           8    -0.00807    -0.01399     0.00970    -0.07056    -0.04909    -0.05137
           9     0.00000     0.00000     0.00000     0.00000     0.00000     0.00000
          10     0.02205    -0.03822    -0.02684    -0.08500    -0.08668     0.06984
          11    -0.02205     0.03822    -0.06604     0.05988     0.11024     0.01542
          12     0.00000     0.00000     0.00000     0.00000     0.00000     0.00000
          13     0.00807    -0.01399    -0.02720     0.06582    -0.01574     0.06929
          14     0.03012    -0.05221     0.08479     0.06025     0.11080     0.08636
          15     0.00000     0.00000     0.00000     0.00000     0.00000     0.00000
          16    -0.03012     0.05221     0.10360    -0.00927    -0.05073     0.13100
          17    -0.00807     0.01399     0.00970    -0.07056     0.04909     0.05137
          18     0.00000     0.00000     0.00000     0.00000     0.00000     0.00000
          19    -0.27730    -0.25552    -0.12752     0.23346    -0.13165    -0.02233
          20     0.27730     0.25552     0.00759    -0.26590     0.10150    -0.08676
          21     0.00000     0.00000     0.00000     0.00000     0.00000     0.00000
          22    -0.10150    -0.09353    -0.12693    -0.00725     0.08578    -0.02403
          23    -0.37880    -0.34905    -0.23312    -0.26649     0.10320     0.13066
          24     0.00000     0.00000     0.00000     0.00000     0.00000     0.00000
          25     0.37880     0.34905    -0.33568     0.11259    -0.02146     0.16511
          26     0.10150     0.09353    -0.11327    -0.05773    -0.08594     0.02343
          27     0.00000     0.00000     0.00000     0.00000     0.00000     0.00000
          28    -0.27730     0.25552    -0.12752     0.23346     0.13164     0.02233
          29     0.27730    -0.25552     0.00759    -0.26590    -0.10150     0.08676
          30     0.00000     0.00000     0.00000     0.00000     0.00000     0.00000
          31    -0.10150     0.09353    -0.12693    -0.00725    -0.08578     0.02403
          32    -0.37880     0.34905    -0.23312    -0.26649    -0.10320    -0.13066
          33     0.00000     0.00000     0.00000     0.00000     0.00000     0.00000
          34     0.37880    -0.34905    -0.33568     0.11259     0.02146    -0.16511
          35     0.10150    -0.09353    -0.11327    -0.05773     0.08594    -0.02343
          36     0.00000     0.00000     0.00000     0.00000     0.00000     0.00000

                   31          32          33          34          35          36
 
 Frequency       3705.26     3723.68     3723.68     3737.37     3737.37     3748.23
 
           1    -0.02360    -0.03386    -0.00657    -0.01309    -0.03353    -0.02605
           2    -0.02360    -0.03215    -0.01250    -0.00645    -0.03541    -0.02605
           3     0.00000     0.00000     0.00000     0.00000     0.00000     0.00000
           4     0.03224    -0.03461     0.03172     0.03501    -0.03422     0.03558
           5    -0.00864     0.00614    -0.01175    -0.00576     0.01269    -0.00953
           6     0.00000     0.00000     0.00000     0.00000     0.00000     0.00000
           7    -0.00864    -0.00107     0.01322     0.01156     0.00778    -0.00953
           8     0.03224    -0.01236    -0.04529    -0.04776    -0.01076     0.03558
           9     0.00000     0.00000     0.00000     0.00000     0.00000     0.00000
          10    -0.02360     0.03386     0.00657    -0.01309    -0.03353     0.02605
          11    -0.02360     0.03215     0.01250    -0.00645    -0.03541     0.02605
          12     0.00000     0.00000     0.00000     0.00000     0.00000     0.00000
          13     0.03224     0.03461    -0.03172     0.03501    -0.03422    -0.03558
          14    -0.00864    -0.00614     0.01175    -0.00576     0.01269     0.00953
          15     0.00000     0.00000     0.00000     0.00000     0.00000     0.00000
          16    -0.00864     0.00107    -0.01322     0.01156     0.00778     0.00953
          17     0.03224     0.01236     0.04529    -0.04776    -0.01076    -0.03558
          18     0.00000     0.00000     0.00000     0.00000     0.00000     0.00000
          19     0.27578     0.37394     0.10666     0.10730     0.37207     0.27314
          20     0.27578     0.37320     0.10921     0.10395     0.37302     0.27314
          21     0.00000     0.00000     0.00000     0.00000     0.00000     0.00000
          22    -0.37672     0.38318    -0.36787    -0.36904     0.37896    -0.37312
          23     0.10094    -0.10132     0.09997     0.09705    -0.10332     0.09998
          24     0.00000     0.00000     0.00000     0.00000     0.00000     0.00000
          25     0.10094    -0.03239    -0.13861    -0.13684    -0.03701     0.09998
          26    -0.37672     0.12794     0.51554     0.51303     0.12888    -0.37312
          27     0.00000     0.00000     0.00000     0.00000     0.00000     0.00000
          28     0.27578    -0.37394    -0.10666     0.10730     0.37207    -0.27314
          29     0.27578    -0.37320    -0.10921     0.10395     0.37302    -0.27314
          30     0.00000     0.00000     0.00000     0.00000     0.00000     0.00000
          31    -0.37672    -0.38318     0.36787    -0.36904     0.37896     0.37312
          32     0.10094     0.10132    -0.09997     0.09705    -0.10332    -0.09998
          33     0.00000     0.00000     0.00000     0.00000     0.00000     0.00000
          34     0.10094     0.03239     0.13861    -0.13684    -0.03701    -0.09998
          35    -0.37672    -0.12794    -0.51554     0.51303     0.12888     0.37312
          36     0.00000     0.00000     0.00000     0.00000     0.00000     0.00000



 ----------------------------------------------------------------------------
 Normal Eigenvalue ||         Derivative Dipole Moments (debye/angs)
  Mode   [cm**-1]  ||      [d/dqX]             [d/dqY]           [d/dqZ]
 ------ ---------- || ------------------ ------------------ -----------------
    1       -8.132 ||       0.000              -0.000             0.000
    2       -7.784 ||       0.000               0.000             0.000
    3       -7.784 ||       0.000               0.000             0.000
    4       -0.488 ||       0.000               0.000             0.000
    5       -0.002 ||       0.000              -0.000             0.000
    6        0.488 ||      -0.000               0.000             0.000
    7      477.960 ||       0.000              -0.000            -0.000
    8      477.960 ||       0.000               0.000             0.000
    9      700.126 ||       0.000               0.000             0.000
   10      700.126 ||      -0.000               0.000             0.000
   11      810.426 ||       0.000               0.000             0.763
   12      841.193 ||      -0.000              -0.000             0.000
   13     1037.369 ||       0.000              -0.000             0.000
   14     1037.369 ||       0.000               0.000             0.000
   15     1154.521 ||       0.000              -0.000             0.000
   16     1156.747 ||      -0.000              -0.000             0.000
   17     1172.512 ||       0.000               0.000            -0.000
   18     1190.321 ||      -0.000              -0.000            -0.000
   19     1190.321 ||      -0.000              -0.000            -0.000
   20     1214.374 ||      -0.000               0.000             0.000
   21     1225.783 ||       0.036              -0.063            -0.000
   22     1225.784 ||      -0.063              -0.036             0.000
   23     1371.190 ||      -0.000               0.000            -0.000
   24     1371.190 ||       0.000               0.000             0.000
   25     1376.715 ||       0.000              -0.000            -0.000
   26     1595.090 ||       0.000              -0.000            -0.000
   27     1772.521 ||      -0.520              -0.298            -0.000
   28     1772.521 ||       0.298              -0.520             0.000
   29     1932.521 ||      -0.000               0.000            -0.000
   30     1932.521 ||       0.000               0.000            -0.000
   31     3705.259 ||      -0.000              -0.000            -0.000
   32     3723.684 ||      -0.000              -0.000             0.000
   33     3723.684 ||       0.000              -0.000             0.000
   34     3737.373 ||      -0.223               0.399            -0.000
   35     3737.373 ||       0.399               0.223             0.000
   36     3748.227 ||      -0.000              -0.000            -0.000
 ----------------------------------------------------------------------------



  
  
 ----------------------------------------------------------------------------
 Normal Eigenvalue ||                 Infra Red Intensities
  Mode   [cm**-1]  || [atomic units] [(debye/angs)**2] [(KM/mol)] [arbitrary]
 ------ ---------- || -------------- ----------------- ---------- -----------
    1       -8.132 ||    0.000000           0.000         0.000       0.000
    2       -7.784 ||    0.000000           0.000         0.000       0.000
    3       -7.784 ||    0.000000           0.000         0.000       0.000
    4       -0.488 ||    0.000000           0.000         0.000       0.000
    5       -0.002 ||    0.000000           0.000         0.000       0.000
    6        0.488 ||    0.000000           0.000         0.000       0.000
    7      477.960 ||    0.000000           0.000         0.000       0.000
    8      477.960 ||    0.000000           0.000         0.000       0.000
    9      700.126 ||    0.000000           0.000         0.000       0.000
   10      700.126 ||    0.000000           0.000         0.000       0.000
   11      810.426 ||    0.025238           0.582        24.603     121.239
   12      841.193 ||    0.000000           0.000         0.000       0.000
   13     1037.369 ||    0.000000           0.000         0.000       0.000
   14     1037.369 ||    0.000000           0.000         0.000       0.000
   15     1154.521 ||    0.000000           0.000         0.000       0.000
   16     1156.747 ||    0.000000           0.000         0.000       0.000
   17     1172.512 ||    0.000000           0.000         0.000       0.000
   18     1190.321 ||    0.000000           0.000         0.000       0.000
   19     1190.321 ||    0.000000           0.000         0.000       0.000
   20     1214.374 ||    0.000000           0.000         0.000       0.000
   21     1225.783 ||    0.000228           0.005         0.222       1.093
   22     1225.784 ||    0.000228           0.005         0.222       1.093
   23     1371.190 ||    0.000000           0.000         0.000       0.000
   24     1371.190 ||    0.000000           0.000         0.000       0.000
   25     1376.715 ||    0.000000           0.000         0.000       0.000
   26     1595.090 ||    0.000000           0.000         0.000       0.000
   27     1772.521 ||    0.015565           0.359        15.174      74.773
   28     1772.521 ||    0.015565           0.359        15.174      74.773
   29     1932.521 ||    0.000000           0.000         0.000       0.000
   30     1932.521 ||    0.000000           0.000         0.000       0.000
[...]
          30     0.51107     0.00007     0.00000     0.00000     0.00000    -0.48920
          31     0.00000     0.00000    -0.02785    -0.11127     0.12279     0.00000
          32     0.00000     0.00000    -0.10394     0.02981    -0.03290     0.00000
          33    -0.25548    -0.44263     0.00000     0.00000     0.00000     0.24459
          34     0.00000     0.00000     0.10394     0.02982    -0.03290     0.00000
          35     0.00000     0.00000     0.02785    -0.11126     0.12279     0.00000
          36    -0.25559     0.44257     0.00000     0.00000     0.00000     0.24460

                   19          20          21          22          23          24
 
 P.Frequency     1190.32     1214.37     1225.78     1225.78     1371.19     1371.19
 
           1     0.00000     0.00000    -0.05752    -0.04915     0.03883    -0.00678
           2     0.00000     0.00000     0.02534    -0.07129    -0.03751     0.01213
           3     0.00000     0.05441     0.00000     0.00000     0.00000     0.00000
           4     0.00000     0.00000     0.07134    -0.04906    -0.01269    -0.00776
           5     0.00000     0.00000     0.02525     0.05757    -0.03653    -0.03940
           6    -0.07589     0.05441     0.00000     0.00000     0.00000     0.00000
           7     0.00000     0.00000     0.00683     0.06249     0.01392    -0.05189
           8     0.00000     0.00000    -0.08630    -0.00694     0.00760    -0.01279
           9     0.07589     0.05441     0.00000     0.00000     0.00000     0.00000
          10     0.00000     0.00000    -0.05752    -0.04915    -0.03883     0.00678
          11     0.00000     0.00000     0.02534    -0.07129     0.03751    -0.01213
          12     0.00000    -0.05441     0.00000     0.00000     0.00000     0.00000
          13     0.00000     0.00000     0.07134    -0.04906     0.01269     0.00776
          14     0.00000     0.00000     0.02525     0.05757     0.03653     0.03940
          15    -0.07589    -0.05441     0.00000     0.00000     0.00000     0.00000
          16     0.00000     0.00000     0.00683     0.06249    -0.01392     0.05189
          17     0.00000     0.00000    -0.08630    -0.00694    -0.00760     0.01279
          18     0.07589    -0.05441     0.00000     0.00000     0.00000     0.00000
          19     0.00000     0.00000    -0.31168     0.00891     0.37212    -0.09166
          20     0.00000     0.00000     0.27459    -0.14772    -0.37188     0.09262
          21    -0.00001    -0.36072     0.00000     0.00000     0.00000     0.00000
          22     0.00000     0.00000     0.14792     0.00924    -0.09777    -0.10059
          23     0.00000     0.00000     0.27425     0.31187    -0.36295    -0.37727
          24     0.42366    -0.36072     0.00000     0.00000     0.00000     0.00000
          25     0.00000     0.00000    -0.08217     0.40709     0.14491    -0.50306
          26     0.00000     0.00000    -0.12360     0.08178     0.03952    -0.13459
          27    -0.42365    -0.36072     0.00000     0.00000     0.00000     0.00000
          28     0.00000     0.00000    -0.31168     0.00891    -0.37212     0.09166
          29     0.00000     0.00000     0.27459    -0.14772     0.37188    -0.09262
          30    -0.00001     0.36072     0.00000     0.00000     0.00000     0.00000
          31     0.00000     0.00000     0.14792     0.00924     0.09777     0.10059
          32     0.00000     0.00000     0.27425     0.31187     0.36295     0.37727
          33     0.42366     0.36072     0.00000     0.00000     0.00000     0.00000
          34     0.00000     0.00000    -0.08217     0.40709    -0.14491     0.50306
          35     0.00000     0.00000    -0.12360     0.08178    -0.03952     0.13459
          36    -0.42365     0.36072     0.00000     0.00000     0.00000     0.00000

                   25          26          27          28          29          30
 
 P.Frequency     1376.72     1595.23     1772.52     1772.52     1932.52     1932.52
 
           1     0.02205    -0.03821    -0.02519    -0.08551     0.08668    -0.06984
           2    -0.02205     0.03821    -0.06718     0.05859    -0.11024    -0.01542
           3     0.00000     0.00000     0.00000     0.00000     0.00000     0.00000
           4     0.00807    -0.01399    -0.02847     0.06528     0.01574    -0.06929
           5     0.03012    -0.05220     0.08361     0.06187    -0.11080    -0.08636
           6     0.00000     0.00000     0.00000     0.00000     0.00000     0.00000
           7    -0.03012     0.05220     0.10376    -0.00727     0.05073    -0.13100
           8    -0.00807     0.01399     0.01106    -0.07036    -0.04909    -0.05137
           9     0.00000     0.00000     0.00000     0.00000     0.00000     0.00000
          10     0.02205     0.03821    -0.02519    -0.08551    -0.08668     0.06984
          11    -0.02205    -0.03821    -0.06718     0.05859     0.11024     0.01542
          12     0.00000     0.00000     0.00000     0.00000     0.00000     0.00000
          13     0.00807     0.01399    -0.02847     0.06528    -0.01574     0.06929
          14     0.03012     0.05220     0.08361     0.06187     0.11080     0.08636
          15     0.00000     0.00000     0.00000     0.00000     0.00000     0.00000
          16    -0.03012    -0.05220     0.10376    -0.00727    -0.05073     0.13100
          17    -0.00807    -0.01399     0.01106    -0.07036     0.04909     0.05137
          18     0.00000     0.00000     0.00000     0.00000     0.00000     0.00000
          19    -0.27730     0.25554    -0.13201     0.23094    -0.13164    -0.02233
          20     0.27730    -0.25554     0.01274    -0.26571     0.10150    -0.08676
          21     0.00000     0.00000     0.00000     0.00000     0.00000     0.00000
          22    -0.10150     0.09353    -0.12676    -0.00971     0.08578    -0.02403
          23    -0.37880     0.34907    -0.22792    -0.27095     0.10320     0.13066
          24     0.00000     0.00000     0.00000     0.00000     0.00000     0.00000
          25     0.37880    -0.34907    -0.33780     0.10608    -0.02146     0.16511
          26     0.10150    -0.09353    -0.11213    -0.05992    -0.08594     0.02343
          27     0.00000     0.00000     0.00000     0.00000     0.00000     0.00000
          28    -0.27730    -0.25554    -0.13201     0.23094     0.13164     0.02233
          29     0.27730     0.25554     0.01274    -0.26571    -0.10150     0.08676
          30     0.00000     0.00000     0.00000     0.00000     0.00000     0.00000
          31    -0.10150    -0.09353    -0.12676    -0.00971    -0.08578     0.02403
          32    -0.37880    -0.34907    -0.22792    -0.27095    -0.10320    -0.13066
          33     0.00000     0.00000     0.00000     0.00000     0.00000     0.00000
          34     0.37880     0.34907    -0.33780     0.10608     0.02146    -0.16511
          35     0.10150     0.09353    -0.11213    -0.05992     0.08594    -0.02343
          36     0.00000     0.00000     0.00000     0.00000     0.00000     0.00000

                   31          32          33          34          35          36
 
 P.Frequency     3705.26     3723.68     3723.68     3737.37     3737.37     3748.23
 
           1    -0.02360    -0.03386    -0.00657    -0.01263    -0.03370    -0.02605
           2    -0.02360    -0.03215    -0.01250    -0.00596    -0.03549    -0.02605
           3     0.00000     0.00000     0.00000     0.00000     0.00000     0.00000
           4     0.03224    -0.03461     0.03172     0.03548    -0.03373     0.03558
           5    -0.00864     0.00614    -0.01175    -0.00593     0.01261    -0.00953
           6     0.00000     0.00000     0.00000     0.00000     0.00000     0.00000
           7    -0.00864    -0.00107     0.01322     0.01145     0.00794    -0.00953
           8     0.03224    -0.01236    -0.04529    -0.04760    -0.01142     0.03558
           9     0.00000     0.00000     0.00000     0.00000     0.00000     0.00000
          10    -0.02360     0.03386     0.00657    -0.01263    -0.03370     0.02605
          11    -0.02360     0.03215     0.01250    -0.00596    -0.03549     0.02605
          12     0.00000     0.00000     0.00000     0.00000     0.00000     0.00000
          13     0.03224     0.03461    -0.03172     0.03547    -0.03373    -0.03558
          14    -0.00864    -0.00614     0.01175    -0.00593     0.01261     0.00953
          15     0.00000     0.00000     0.00000     0.00000     0.00000     0.00000
          16    -0.00864     0.00107    -0.01322     0.01145     0.00794     0.00953
          17     0.03224     0.01236     0.04529    -0.04760    -0.01142    -0.03558
          18     0.00000     0.00000     0.00000     0.00000     0.00000     0.00000
          19     0.27577     0.37394     0.10666     0.10215     0.37352     0.27314
          20     0.27577     0.37320     0.10921     0.09878     0.37442     0.27314
          21     0.00000     0.00000     0.00000     0.00000     0.00000     0.00000
          22    -0.37672     0.38318    -0.36787    -0.37425     0.37383    -0.37312
          23     0.10094    -0.10132     0.09997     0.09847    -0.10197     0.09998
          24     0.00000     0.00000     0.00000     0.00000     0.00000     0.00000
          25     0.10094    -0.03239    -0.13861    -0.13631    -0.03890     0.09998
          26    -0.37672     0.12794     0.51554     0.51120     0.13596    -0.37312
          27     0.00000     0.00000     0.00000     0.00000     0.00000     0.00000
          28     0.27577    -0.37394    -0.10666     0.10215     0.37352    -0.27314
          29     0.27577    -0.37320    -0.10921     0.09878     0.37442    -0.27314
          30     0.00000     0.00000     0.00000     0.00000     0.00000     0.00000
          31    -0.37672    -0.38318     0.36787    -0.37424     0.37382     0.37312
          32     0.10094     0.10132    -0.09997     0.09847    -0.10197    -0.09998
          33     0.00000     0.00000     0.00000     0.00000     0.00000     0.00000
          34     0.10094     0.03239     0.13861    -0.13631    -0.03890    -0.09998
          35    -0.37672    -0.12794    -0.51554     0.51119     0.13596     0.37312
          36     0.00000     0.00000     0.00000     0.00000     0.00000     0.00000



 ----------------------------------------------------------------------------
 Normal Eigenvalue ||    Projected Derivative Dipole Moments (debye/angs)
  Mode   [cm**-1]  ||      [d/dqX]             [d/dqY]           [d/dqZ]
 ------ ---------- || ------------------ ------------------ -----------------
    1       -0.000 ||       0.000              -0.000            -0.000
    2       -0.000 ||       0.000              -0.000            -0.000
    3       -0.000 ||       0.000               0.000             0.000
    4       -0.000 ||       0.000               0.000            -0.000
    5       -0.000 ||      -0.000               0.000            -0.000
    6        0.000 ||      -0.000              -0.000            -0.000
    7      477.960 ||      -0.000               0.000             0.000
    8      477.960 ||       0.000               0.000             0.000
    9      700.126 ||       0.000               0.000             0.000
   10      700.126 ||      -0.000               0.000             0.000
   11      810.426 ||       0.000               0.000             0.763
   12      841.193 ||      -0.000              -0.000             0.000
   13     1037.587 ||       0.000              -0.000            -0.000
   14     1037.587 ||       0.000               0.000             0.000
   15     1154.521 ||       0.000              -0.000             0.000
   16     1156.747 ||      -0.000              -0.000             0.000
   17     1172.512 ||       0.000               0.000            -0.000
   18     1190.321 ||      -0.000              -0.000            -0.000
   19     1190.321 ||      -0.000              -0.000            -0.000
   20     1214.374 ||      -0.000               0.000             0.000
   21     1225.783 ||       0.036              -0.063            -0.000
   22     1225.783 ||      -0.063              -0.036             0.000
   23     1371.190 ||      -0.000               0.000            -0.000
   24     1371.190 ||       0.000               0.000             0.000
   25     1376.715 ||      -0.000               0.000            -0.000
   26     1595.232 ||      -0.000               0.000             0.000
   27     1772.521 ||      -0.525              -0.288            -0.000
   28     1772.521 ||       0.288              -0.525             0.000
   29     1932.521 ||      -0.000               0.000            -0.000
   30     1932.521 ||       0.000               0.000            -0.000
   31     3705.259 ||      -0.000              -0.000            -0.000
   32     3723.684 ||      -0.000              -0.000             0.000
   33     3723.684 ||       0.000              -0.000             0.000
   34     3737.373 ||      -0.228               0.396            -0.000
   35     3737.373 ||       0.396               0.228             0.000
   36     3748.227 ||      -0.000              -0.000            -0.000
 ----------------------------------------------------------------------------



  
  
 ----------------------------------------------------------------------------
 Normal Eigenvalue ||           Projected Infra Red Intensities
  Mode   [cm**-1]  || [atomic units] [(debye/angs)**2] [(KM/mol)] [arbitrary]
 ------ ---------- || -------------- ----------------- ---------- -----------
    1       -0.000 ||    0.000000           0.000         0.000       0.000
    2       -0.000 ||    0.000000           0.000         0.000       0.000
    3       -0.000 ||    0.000000           0.000         0.000       0.000
    4       -0.000 ||    0.000000           0.000         0.000       0.000
    5       -0.000 ||    0.000000           0.000         0.000       0.000
    6        0.000 ||    0.000000           0.000         0.000       0.000
    7      477.960 ||    0.000000           0.000         0.000       0.000
    8      477.960 ||    0.000000           0.000         0.000       0.000
    9      700.126 ||    0.000000           0.000         0.000       0.000
   10      700.126 ||    0.000000           0.000         0.000       0.000
   11      810.426 ||    0.025238           0.582        24.603     121.239
   12      841.193 ||    0.000000           0.000         0.000       0.000
   13     1037.587 ||    0.000000           0.000         0.000       0.000
   14     1037.587 ||    0.000000           0.000         0.000       0.000
   15     1154.521 ||    0.000000           0.000         0.000       0.000
   16     1156.747 ||    0.000000           0.000         0.000       0.000
   17     1172.512 ||    0.000000           0.000         0.000       0.000
   18     1190.321 ||    0.000000           0.000         0.000       0.000
   19     1190.321 ||    0.000000           0.000         0.000       0.000
   20     1214.374 ||    0.000000           0.000         0.000       0.000
   21     1225.783 ||    0.000228           0.005         0.222       1.093
   22     1225.783 ||    0.000228           0.005         0.222       1.093
   23     1371.190 ||    0.000000           0.000         0.000       0.000
   24     1371.190 ||    0.000000           0.000         0.000       0.000
   25     1376.715 ||    0.000000           0.000         0.000       0.000
   26     1595.232 ||    0.000000           0.000         0.000       0.000
   27     1772.521 ||    0.015565           0.359        15.174      74.773
   28     1772.521 ||    0.015565           0.359        15.174      74.773
   29     1932.521 ||    0.000000           0.000         0.000       0.000
   30     1932.521 ||    0.000000           0.000         0.000       0.000
   31     3705.259 ||    0.000000           0.000         0.000       0.000
   32     3723.684 ||    0.000000           0.000         0.000       0.000
   33     3723.684 ||    0.000000           0.000         0.000       0.000
   34     3737.373 ||    0.009058           0.209         8.831      43.515
   35     3737.373 ||    0.009058           0.209         8.831      43.515
   36     3748.227 ||    0.000000           0.000         0.000       0.000
 ----------------------------------------------------------------------------



 vib:animation  F

 Task  times  cpu:        3.4s     wall:        3.4s


                                NWChem Input Module
                                -------------------


 Summary of allocated global arrays
-----------------------------------
  No active global arrays



                         GA Statistics for process    0
                         ------------------------------

       create   destroy   get      put      acc     scatter   gather  read&inc
calls: 2510     2510     2.29e+04 2.10e+04 9189      577        0     1076     
number of processes/call 2.33e+00 2.16e+00 1.32e+00 0.00e+00 0.00e+00
bytes total:             3.24e+07 1.03e+07 2.24e+07 0.00e+00 0.00e+00 8.61e+03
bytes remote:            1.25e+07 3.25e+06 5.71e+06 -1.08e+03 0.00e+00 0.00e+00
Max memory consumed for GA by this process: 1607784 bytes

MA_summarize_allocated_blocks: starting scan ...
MA_summarize_allocated_blocks: scan completed: 0 heap blocks, 0 stack blocks
MA usage statistics:

	allocation statistics:
					      heap	     stack
					      ----	     -----
	current number of blocks	         0	         0
	maximum number of blocks	        25	        36
	current total bytes		         0	         0
	maximum total bytes		     80136	  66771496
	maximum total K-bytes		        81	     66772
	maximum total M-bytes		         1	        67


                                     CITATION
                                     --------
                Please cite the following reference when publishing
                           results obtained with NWChem:

                 M. Valiev, E.J. Bylaska, N. Govind, K. Kowalski,
              T.P. Straatsma, H.J.J. van Dam, D. Wang, J. Nieplocha,
                        E. Apra, T.L. Windus, W.A. de Jong
                 "NWChem: a comprehensive and scalable open-source
                  solution for large scale molecular simulations"
                      Comput. Phys. Commun. 181, 1477 (2010)
                           doi:10.1016/j.cpc.2010.04.018

                                      AUTHORS
                                      -------
          E. Apra, E. J. Bylaska, W. A. de Jong, N. Govind, K. Kowalski,
       T. P. Straatsma, M. Valiev, H. J. J. van Dam, D. Wang, T. L. Windus,
        J. Hammond, J. Autschbach, K. Bhaskaran-Nair, J. Brabec, K. Lopata,
    S. A. Fischer, S. Krishnamoorthy, M. Jacquelin, W. Ma, M. Klemm, O. Villa,
      Y. Chen, V. Anisimov, F. Aquino, S. Hirata, M. T. Hackler, V. Konjkov,
            D. Mejia-Rodriguez, T. Risthaus, M. Malagoli, A. Marenich,
   A. Otero-de-la-Roza, J. Mullin, P. Nichols, R. Peverati, J. Pittner, Y. Zhao,
        P.-D. Fan, A. Fonari, M. J. Williamson, R. J. Harrison, J. R. Rehr,
      M. Dupuis, D. Silverstein, D. M. A. Smith, J. Nieplocha, V. Tipparaju,
    M. Krishnan, B. E. Van Kuiken, A. Vazquez-Mayagoitia, L. Jensen, M. Swart,
      Q. Wu, T. Van Voorhis, A. A. Auer, M. Nooijen, L. D. Crosby, E. Brown,
      G. Cisneros, G. I. Fann, H. Fruchtl, J. Garza, K. Hirao, R. A. Kendall,
      J. A. Nichols, K. Tsemekhman, K. Wolinski, J. Anchell, D. E. Bernholdt,
      P. Borowski, T. Clark, D. Clerc, H. Dachsel, M. J. O. Deegan, K. Dyall,
    D. Elwood, E. Glendening, M. Gutowski, A. C. Hess, J. Jaffe, B. G. Johnson,
     J. Ju, R. Kobayashi, R. Kutteh, Z. Lin, R. Littlefield, X. Long, B. Meng,
      T. Nakajima, S. Niu, L. Pollack, M. Rosing, K. Glaesemann, G. Sandrone,
      M. Stave, H. Taylor, G. Thomas, J. H. van Lenthe, A. T. Wong, Z. Zhang.

 Total times  cpu:        3.4s     wall:        3.4s
