 argument  1 = /home/list1234/source/nwchem-6.8.1-release/QA/tests/m08so_h2o/m08so_h2o.nw



============================== echo of input deck ==============================
echo
start m08so_h2o
title m08so_h2o

geometry units angstroms
 O     0.000000     0.000000     0.000000
 H     0.000000     0.000000     0.956914
 H     0.926363     0.000000    -0.239868
end

basis
 H library 6-31+G*
 O library 6-31+G*
end

dft
 iterations 50
 print intermediate energy info
 xc m08-so
 decomp
 grid lebedev 99 14
 direct
end
task dft
================================================================================


                                         
                                         


              Northwest Computational Chemistry Package (NWChem) 6.8
              ------------------------------------------------------


                    Environmental Molecular Sciences Laboratory
                       Pacific Northwest National Laboratory
                                Richland, WA 99352

                              Copyright (c) 1994-2018
                       Pacific Northwest National Laboratory
                            Battelle Memorial Institute

             NWChem is an open-source computational chemistry package
                        distributed under the terms of the
                      Educational Community License (ECL) 2.0
             A copy of the license is included with this distribution
                              in the LICENSE.TXT file

                                  ACKNOWLEDGMENT
                                  --------------

            This software and its documentation were developed at the
            EMSL at Pacific Northwest National Laboratory, a multiprogram
            national laboratory, operated for the U.S. Department of Energy
            by Battelle under Contract Number DE-AC05-76RL01830. Support
            for this work was provided by the Department of Energy Office
            of Biological and Environmental Research, Office of Basic
            Energy Sciences, and the Office of Advanced Scientific Computing.


           Job information
           ---------------

    hostname        = list1234-B360M-H
    program         = /home/list1234/source/nwchem-6.8.1-release/bin/LINUX64/nwchem
    date            = Sun Jun 30 07:40:10 2019

    compiled        = Sun_Jun_30_05:21:11_2019
    source          = /home/list1234/source/nwchem-6.8.1-release
    nwchem branch   = Development
    nwchem revision = N/A
    ga revision     = 5.6.5
    use scalapack   = T
    input           = /home/list1234/source/nwchem-6.8.1-release/QA/tests/m08so_h2o/m08so_h2o.nw
    prefix          = m08so_h2o.
    data base       = ./m08so_h2o.db
    status          = startup
    nproc           =        4
    time left       =     -1s



           Memory information
           ------------------

    heap     =   86247164 doubles =    658.0 Mbytes
    stack    =   86247169 doubles =    658.0 Mbytes
    global   =  172494336 doubles =   1316.0 Mbytes (distinct from heap & stack)
    total    =  344988669 doubles =   2632.1 Mbytes
    verify   = yes
    hardfail = no 


           Directory information
           ---------------------

  0 permanent = .
  0 scratch   = .




                                NWChem Input Module
                                -------------------


                                     m08so_h2o
                                     ---------

 Scaling coordinates for geometry "geometry" by  1.889725989
 (inverse scale =  0.529177249)

 C2V symmetry detected

          ------
          auto-z
          ------
  no constraints, skipping    0.0000000000000000     
  no constraints, skipping    0.0000000000000000     


                             Geometry "geometry" -> ""
                             -------------------------

 Output coordinates in angstroms (scale by  1.889725989 to convert to a.u.)

  No.       Tag          Charge          X              Y              Z
 ---- ---------------- ---------- -------------- -------------- --------------
    1 O                    8.0000     0.00000000     0.00000000    -0.11714535
    2 H                    1.0000    -0.75670925     0.00000000     0.46858141
    3 H                    1.0000     0.75670925     0.00000000     0.46858141

      Atomic Mass 
      ----------- 

      O                 15.994910
      H                  1.007825


 Effective nuclear repulsion energy (a.u.)       9.1977189738

            Nuclear Dipole moment (a.u.) 
            ----------------------------
        X                 Y               Z
 ---------------- ---------------- ----------------
     0.0000000000     0.0000000000     0.0000000000

      Symmetry information
      --------------------

 Group name             C2v       
 Group number             16
 Group order               4
 No. of unique centers     2

      Symmetry unique atoms

     1    2



                                Z-matrix (autoz)
                                -------- 

 Units are Angstrom for bonds and degrees for angles

      Type          Name      I     J     K     L     M      Value
      ----------- --------  ----- ----- ----- ----- ----- ----------
    1 Stretch                  1     2                       0.95691
    2 Stretch                  1     3                       0.95691
    3 Bend                     2     1     3               104.51706


            XYZ format geometry
            -------------------
     3
 geometry
 O                     0.00000000     0.00000000    -0.11714535
 H                    -0.75670925     0.00000000     0.46858141
 H                     0.75670925     0.00000000     0.46858141

 ==============================================================================
                                internuclear distances
 ------------------------------------------------------------------------------
       center one      |      center two      | atomic units |  angstroms
 ------------------------------------------------------------------------------
    2 H                |   1 O                |     1.80831  |     0.95691
    3 H                |   1 O                |     1.80831  |     0.95691
 ------------------------------------------------------------------------------
                         number of included internuclear distances:          2
 ==============================================================================



 ==============================================================================
                                 internuclear angles
 ------------------------------------------------------------------------------
        center 1       |       center 2       |       center 3       |  degrees
 ------------------------------------------------------------------------------
    2 H                |   1 O                |   3 H                |   104.52
 ------------------------------------------------------------------------------
                            number of included internuclear angles:          1
 ==============================================================================



                      Basis "ao basis" -> "" (cartesian)
                      -----
  H (Hydrogen)
  ------------
            Exponent  Coefficients 
       -------------- ---------------------------------------------------------
  1 S  1.87311370E+01  0.033495
  1 S  2.82539370E+00  0.234727
  1 S  6.40121700E-01  0.813757

  2 S  1.61277800E-01  1.000000

  O (Oxygen)
  ----------
            Exponent  Coefficients 
       -------------- ---------------------------------------------------------
  1 S  5.48467170E+03  0.001831
  1 S  8.25234950E+02  0.013950
  1 S  1.88046960E+02  0.068445
  1 S  5.29645000E+01  0.232714
  1 S  1.68975700E+01  0.470193
  1 S  5.79963530E+00  0.358521

  2 S  1.55396160E+01 -0.110778
  2 S  3.59993360E+00 -0.148026
  2 S  1.01376180E+00  1.130767

  3 P  1.55396160E+01  0.070874
  3 P  3.59993360E+00  0.339753
  3 P  1.01376180E+00  0.727159

  4 S  2.70005800E-01  1.000000

  5 P  2.70005800E-01  1.000000

  6 S  8.45000000E-02  1.000000

  7 P  8.45000000E-02  1.000000

  8 D  8.00000000E-01  1.000000



 Summary of "ao basis" -> "" (cartesian)
 ------------------------------------------------------------------------------
       Tag                 Description            Shells   Functions and Types
 ---------------- ------------------------------  ------  ---------------------
 H                          6-31+G*                  2        2   2s
 O                          6-31+G*                  8       19   4s3p1d



                                 NWChem DFT Module
                                 -----------------


                                     m08so_h2o




 Summary of "ao basis" -> "ao basis" (cartesian)
 ------------------------------------------------------------------------------
       Tag                 Description            Shells   Functions and Types
 ---------------- ------------------------------  ------  ---------------------
 H                          6-31+G*                  2        2   2s
 O                          6-31+G*                  8       19   4s3p1d


      Symmetry analysis of basis
      --------------------------

        a1         12
        a2          1
        b1          6
        b2          4

  Caching 1-el integrals 

            General Information
            -------------------
          SCF calculation type: DFT
          Wavefunction type:  closed shell.
          No. of atoms     :     3
          No. of electrons :    10
           Alpha electrons :     5
            Beta electrons :     5
          Charge           :     0
          Spin multiplicity:     1
          Use of symmetry is: on ; symmetry adaption is: on 
          Maximum number of iterations:  50
          This is a Direct SCF calculation.
          AO basis - number of functions:    23
                     number of shells:    12
          Convergence on energy requested:  1.00D-06
          Convergence on density requested:  1.00D-05
          Convergence on gradient requested:  5.00D-04

              XC Information
              --------------
                       M08-SO Method XC Functional
                     Hartree-Fock (Exact) Exchange  0.568          
                        M08-SO gradient correction  1.000          
                      M08-SO Correlation Potential  1.000          

             Grid Information
             ----------------
          Grid used for XC integration:  lebedev   
          Radial quadrature: Mura-Knowles        
          Angular quadrature: Lebedev. 
          Tag              B.-S. Rad. Rad. Pts. Rad. Cut. Ang. Pts.
          ---              ---------- --------- --------- ---------
          O                   0.60       99           5.0       590
          H                   0.35       99           6.0       590
          Grid pruning is: on 
          Number of quadrature shells:   198
          Spatial weights used:  Erf1

          Convergence Information
          -----------------------
          Convergence aids based upon iterative change in 
          total energy or number of iterations. 
          Levelshifting, if invoked, occurs when the 
          HOMO/LUMO gap drops below (HL_TOL):  1.00D-02
          DIIS, if invoked, will attempt to extrapolate 
          using up to (NFOCK): 10 stored Fock matrices.

                    Damping( 0%)  Levelshifting(0.5)       DIIS
                  --------------- ------------------- ---------------
          dE  on:    start            ASAP                start   
          dE off:    2 iters         50 iters            50 iters 


      Screening Tolerance Information
      -------------------------------
          Density screening/tol_rho:  1.00D-10
          AO Gaussian exp screening on grid/accAOfunc:  14
          CD Gaussian exp screening on grid/accCDfunc:  20
          XC Gaussian exp screening on grid/accXCfunc:  20
          Schwarz screening/accCoul:  1.00D-08


      Superposition of Atomic Density Guess
      -------------------------------------

 Sum of atomic energies:         -75.75320674

      Non-variational initial energy
      ------------------------------

 Total energy =     -75.922816
 1-e energy   =    -121.661700
 2-e energy   =      36.541164
 HOMO         =      -0.479041
 LUMO         =       0.081060


      Symmetry analysis of molecular orbitals - initial
      -------------------------------------------------

  Numbering of irreducible representations: 

     1 a1          2 a2          3 b1          4 b2      

  Orbital symmetries:

     1 a1          2 a1          3 b1          4 a1          5 b2      
     6 a1          7 b1          8 a1          9 b2         10 b1      
    11 a1         12 b1         13 a1         14 b1         15 b2      

   Time after variat. SCF:      0.1
   Time prior to 1st pass:      0.1

 Grid_pts file          = ./m08so_h2o.gridpts.0
 Record size in doubles =  12289        No. of grid_pts per rec  =   3070
 Max. records in memory =     12        Max. recs in file   = 253312716


           Memory utilization after 1st SCF pass: 
           Heap Space remaining (MW):       51.66            51661924
          Stack Space remaining (MW):       86.25            86246900

   convergence    iter        energy       DeltaE   RMS-Dens  Diis-err    time
 ---------------- ----- ----------------- --------- --------- ---------  ------
 d= 0,ls=0.0,diis     1    -76.3322051967 -8.55D+01  2.56D-02  4.36D-01     0.1
 d= 0,ls=0.0,diis     2    -76.3373613154 -5.16D-03  1.11D-02  3.85D-01     0.1
 d= 0,ls=0.0,diis     3    -76.3701500730 -3.28D-02  1.95D-03  1.05D-02     0.1
 d= 0,ls=0.0,diis     4    -76.3710584918 -9.08D-04  2.81D-04  3.48D-05     0.2
 d= 0,ls=0.0,diis     5    -76.3710639094 -5.42D-06  7.06D-05  5.80D-07     0.2
 d= 0,ls=0.0,diis     6    -76.3710641400 -2.31D-07  1.16D-05  1.15D-08     0.2
 d= 0,ls=0.0,diis     7    -76.3710641453 -5.29D-09  1.12D-06  3.56D-10     0.2


         Total DFT energy =      -76.371064145273
      One electron energy =     -122.854358830220
           Coulomb energy =       46.537685177109
          Exchange energy =       -9.006888459960
       Correlation energy =       -0.245221006001
 Nuclear repulsion energy =        9.197718973800

 Numeric. integr. density =       10.000000301797

     Total iterative time =      0.2s



                  Occupations of the irreducible representations
                  ----------------------------------------------

                     irrep           alpha         beta
                     --------     --------     --------
                     a1                3.0          3.0
                     a2                0.0          0.0
                     b1                1.0          1.0
                     b2                1.0          1.0


                       DFT Final Molecular Orbital Analysis
                       ------------------------------------

 Vector    1  Occ=2.000000D+00  E=-1.960943D+01  Symmetry=a1
              MO Center= -1.3D-18, -4.2D-29, -1.2D-01, r^2= 1.5D-02
   Bfn.  Coefficient  Atom+Function         Bfn.  Coefficient  Atom+Function  
  ----- ------------  ---------------      ----- ------------  ---------------
     1      0.992276  1 O  s                  2      0.026921  1 O  s          

 Vector    2  Occ=2.000000D+00  E=-1.135032D+00  Symmetry=a1
              MO Center=  7.3D-17, -7.2D-18,  8.2D-02, r^2= 5.1D-01
   Bfn.  Coefficient  Atom+Function         Bfn.  Coefficient  Atom+Function  
  ----- ------------  ---------------      ----- ------------  ---------------
     6      0.464862  1 O  s                  2      0.461916  1 O  s          
     1     -0.211245  1 O  s                 20      0.140086  2 H  s          
    22      0.140086  3 H  s                  5      0.119487  1 O  pz         
     9      0.065356  1 O  pz                10      0.054956  1 O  s          
    21     -0.032747  2 H  s                 23     -0.032747  3 H  s          

 Vector    3  Occ=2.000000D+00  E=-6.253133D-01  Symmetry=b1
              MO Center= -1.5D-16, -7.9D-21,  9.8D-02, r^2= 7.7D-01
   Bfn.  Coefficient  Atom+Function         Bfn.  Coefficient  Atom+Function  
  ----- ------------  ---------------      ----- ------------  ---------------
     3      0.524967  1 O  px                 7      0.278065  1 O  px         
    20     -0.234824  2 H  s                 22      0.234824  3 H  s          
    21     -0.109680  2 H  s                 23      0.109680  3 H  s          
    16      0.074508  1 O  dxz        

 Vector    4  Occ=2.000000D+00  E=-4.837917D-01  Symmetry=a1
              MO Center=  2.1D-17, -1.6D-16, -2.1D-01, r^2= 7.3D-01
   Bfn.  Coefficient  Atom+Function         Bfn.  Coefficient  Atom+Function  
  ----- ------------  ---------------      ----- ------------  ---------------
     5      0.562901  1 O  pz                 9      0.350352  1 O  pz         
     6     -0.315087  1 O  s                  2     -0.174751  1 O  s          
    20      0.139484  2 H  s                 22      0.139484  3 H  s          
    21      0.080028  2 H  s                 23      0.080028  3 H  s          
     1      0.078932  1 O  s                 13      0.073072  1 O  pz         

 Vector    5  Occ=2.000000D+00  E=-4.102314D-01  Symmetry=b2
              MO Center= -6.9D-17,  1.2D-16, -9.6D-02, r^2= 7.0D-01
   Bfn.  Coefficient  Atom+Function         Bfn.  Coefficient  Atom+Function  
  ----- ------------  ---------------      ----- ------------  ---------------
     4      0.641201  1 O  py                 8      0.443918  1 O  py         
    12      0.113568  1 O  py                18      0.063088  1 O  dyz        

 Vector    6  Occ=0.000000D+00  E= 5.049299D-02  Symmetry=a1
              MO Center=  5.3D-15, -1.6D-16,  7.8D-01, r^2= 3.5D+00
   Bfn.  Coefficient  Atom+Function         Bfn.  Coefficient  Atom+Function  
  ----- ------------  ---------------      ----- ------------  ---------------
    10      1.724184  1 O  s                  6     -0.975295  1 O  s          
    13      0.683185  1 O  pz                21     -0.269637  2 H  s          
    23     -0.269637  3 H  s                  9     -0.209511  1 O  pz         
     5     -0.189490  1 O  pz                 1      0.086483  1 O  s          
     2     -0.070154  1 O  s                 20      0.066383  2 H  s          

 Vector    7  Occ=0.000000D+00  E= 1.171382D-01  Symmetry=b1
              MO Center= -6.0D-15, -8.0D-31, -2.3D-01, r^2= 5.1D+00
   Bfn.  Coefficient  Atom+Function         Bfn.  Coefficient  Atom+Function  
  ----- ------------  ---------------      ----- ------------  ---------------
    11      1.354489  1 O  px                 7     -0.469114  1 O  px         
     3     -0.226165  1 O  px                21      0.206672  2 H  s          
    23     -0.206672  3 H  s                 16     -0.050809  1 O  dxz        
    20     -0.029816  2 H  s                 22      0.029816  3 H  s          

 Vector    8  Occ=0.000000D+00  E= 1.541782D-01  Symmetry=a1
              MO Center=  7.4D-17, -1.1D-17, -9.4D-01, r^2= 4.3D+00
   Bfn.  Coefficient  Atom+Function         Bfn.  Coefficient  Atom+Function  
  ----- ------------  ---------------      ----- ------------  ---------------
    13      1.346355  1 O  pz                 6      0.909040  1 O  s          
    21     -0.561796  2 H  s                 23     -0.561796  3 H  s          
     9     -0.307208  1 O  pz                 5     -0.135094  1 O  pz         
    10     -0.085613  1 O  s                  1     -0.069911  1 O  s          
    19     -0.065646  1 O  dzz               14     -0.060691  1 O  dxx        

 Vector    9  Occ=0.000000D+00  E= 1.590567D-01  Symmetry=b2
              MO Center=  4.6D-19, -1.9D-15, -1.2D-01, r^2= 4.9D+00
   Bfn.  Coefficient  Atom+Function         Bfn.  Coefficient  Atom+Function  
  ----- ------------  ---------------      ----- ------------  ---------------
    12      1.223740  1 O  py                 8     -0.508323  1 O  py         
     4     -0.234266  1 O  py         

 Vector   10  Occ=0.000000D+00  E= 2.312491D-01  Symmetry=b1
              MO Center=  1.0D-15, -1.8D-30,  1.5D-01, r^2= 3.2D+00
   Bfn.  Coefficient  Atom+Function         Bfn.  Coefficient  Atom+Function  
  ----- ------------  ---------------      ----- ------------  ---------------
    21      1.987976  2 H  s                 23     -1.987976  3 H  s          
    11      1.249115  1 O  px                 7      0.694611  1 O  px         
     3      0.299609  1 O  px                20      0.141035  2 H  s          
    22     -0.141035  3 H  s          

 Vector   11  Occ=0.000000D+00  E= 2.659397D-01  Symmetry=a1
              MO Center= -5.3D-16,  2.1D-15,  4.8D-01, r^2= 3.5D+00
   Bfn.  Coefficient  Atom+Function         Bfn.  Coefficient  Atom+Function  
  ----- ------------  ---------------      ----- ------------  ---------------
    10      3.236720  1 O  s                 21     -2.506706  2 H  s          
    23     -2.506706  3 H  s                 13      1.045259  1 O  pz         
     6      0.968706  1 O  s                  9      0.687115  1 O  pz         
     5      0.248553  1 O  pz                20     -0.140048  2 H  s          
    22     -0.140048  3 H  s                  2      0.063860  1 O  s          

 Vector   12  Occ=0.000000D+00  E= 1.010931D+00  Symmetry=b1
              MO Center=  3.9D-15, -7.6D-20,  3.1D-01, r^2= 1.8D+00
   Bfn.  Coefficient  Atom+Function         Bfn.  Coefficient  Atom+Function  
  ----- ------------  ---------------      ----- ------------  ---------------
    21      1.718569  2 H  s                 23     -1.718569  3 H  s          
    11      0.862425  1 O  px                20     -0.821556  2 H  s          
    22      0.821556  3 H  s                  3     -0.534925  1 O  px         
    16      0.390464  1 O  dxz                7      0.231730  1 O  px         

 Vector   13  Occ=0.000000D+00  E= 1.103960D+00  Symmetry=a1
              MO Center= -3.6D-15,  2.7D-17,  4.3D-01, r^2= 1.6D+00
   Bfn.  Coefficient  Atom+Function         Bfn.  Coefficient  Atom+Function  
  ----- ------------  ---------------      ----- ------------  ---------------
     6      2.145917  1 O  s                 21     -1.963332  2 H  s          
    23     -1.963332  3 H  s                 10      1.591112  1 O  s          
     9      0.971178  1 O  pz                 2     -0.892352  1 O  s          
     5     -0.724736  1 O  pz                20      0.575398  2 H  s          
    22      0.575398  3 H  s                 13      0.510345  1 O  pz         

 Vector   14  Occ=0.000000D+00  E= 1.138925D+00  Symmetry=b1
              MO Center=  1.1D-16,  9.5D-18, -2.8D-01, r^2= 1.6D+00
   Bfn.  Coefficient  Atom+Function         Bfn.  Coefficient  Atom+Function  
  ----- ------------  ---------------      ----- ------------  ---------------
     7      1.664083  1 O  px                 3     -0.868910  1 O  px         
    11     -0.650486  1 O  px                20      0.342279  2 H  s          
    22     -0.342279  3 H  s                 16     -0.238156  1 O  dxz        

 Vector   15  Occ=0.000000D+00  E= 1.151100D+00  Symmetry=b2
              MO Center= -5.2D-18, -1.9D-21, -1.1D-01, r^2= 1.6D+00
   Bfn.  Coefficient  Atom+Function         Bfn.  Coefficient  Atom+Function  
  ----- ------------  ---------------      ----- ------------  ---------------
     8      1.439185  1 O  py                 4     -0.984058  1 O  py         
    12     -0.662217  1 O  py                18      0.058139  1 O  dyz        

 Vector   16  Occ=0.000000D+00  E= 1.175700D+00  Symmetry=a1
              MO Center= -4.6D-16,  1.2D-17, -1.6D-01, r^2= 1.8D+00
   Bfn.  Coefficient  Atom+Function         Bfn.  Coefficient  Atom+Function  
  ----- ------------  ---------------      ----- ------------  ---------------
     9      1.343081  1 O  pz                13     -0.865825  1 O  pz         
    21      0.727049  2 H  s                 23      0.727049  3 H  s          
     6     -0.710588  1 O  s                  5     -0.672907  1 O  pz         
    20     -0.601705  2 H  s                 22     -0.601705  3 H  s          
    10     -0.477725  1 O  s                  2      0.435717  1 O  s          

 Vector   17  Occ=0.000000D+00  E= 1.264500D+00  Symmetry=a1
              MO Center= -4.0D-16, -3.2D-17, -1.1D-01, r^2= 1.8D+00
   Bfn.  Coefficient  Atom+Function         Bfn.  Coefficient  Atom+Function  
  ----- ------------  ---------------      ----- ------------  ---------------
     6      3.514100  1 O  s                  2     -1.485815  1 O  s          
    10     -1.274381  1 O  s                 14     -0.688798  1 O  dxx        
    20     -0.517315  2 H  s                 22     -0.517315  3 H  s          
    19     -0.435243  1 O  dzz               17     -0.258981  1 O  dyy        
    21      0.212976  2 H  s                 23      0.212976  3 H  s          

 Vector   18  Occ=0.000000D+00  E= 1.769803D+00  Symmetry=a1
              MO Center=  2.1D-17,  3.3D-17, -1.8D-01, r^2= 6.2D-01
   Bfn.  Coefficient  Atom+Function         Bfn.  Coefficient  Atom+Function  
  ----- ------------  ---------------      ----- ------------  ---------------
    19      1.004181  1 O  dzz               14     -0.582156  1 O  dxx        
    17     -0.367871  1 O  dyy                6     -0.190505  1 O  s          
     9     -0.168775  1 O  pz                20      0.106606  2 H  s          
    22      0.106606  3 H  s                 10      0.067925  1 O  s          
    13      0.066216  1 O  pz                 2      0.061869  1 O  s          

 Vector   19  Occ=0.000000D+00  E= 1.782838D+00  Symmetry=a2
              MO Center=  7.6D-17, -9.5D-18, -1.2D-01, r^2= 6.1D-01
   Bfn.  Coefficient  Atom+Function         Bfn.  Coefficient  Atom+Function  
  ----- ------------  ---------------      ----- ------------  ---------------
    15      1.732051  1 O  dxy        

 Vector   20  Occ=0.000000D+00  E= 1.821276D+00  Symmetry=b2
              MO Center= -1.6D-18,  8.1D-23, -1.5D-01, r^2= 6.1D-01
   Bfn.  Coefficient  Atom+Function         Bfn.  Coefficient  Atom+Function  
  ----- ------------  ---------------      ----- ------------  ---------------
    18      1.729843  1 O  dyz                8     -0.069497  1 O  py         
    12      0.029998  1 O  py         

 Vector   21  Occ=0.000000D+00  E= 2.334886D+00  Symmetry=a1
              MO Center=  6.8D-16, -5.2D-18,  7.1D-03, r^2= 8.5D-01
   Bfn.  Coefficient  Atom+Function         Bfn.  Coefficient  Atom+Function  
  ----- ------------  ---------------      ----- ------------  ---------------
     6      1.466359  1 O  s                 17     -1.123188  1 O  dyy        
    20     -0.875681  2 H  s                 22     -0.875681  3 H  s          
    14      0.751463  1 O  dxx                9      0.746615  1 O  pz         
     2     -0.470878  1 O  s                 10     -0.260067  1 O  s          
    13     -0.151336  1 O  pz                21      0.079108  2 H  s          

 Vector   22  Occ=0.000000D+00  E= 2.704395D+00  Symmetry=b1
              MO Center=  4.6D-16,  3.0D-20, -4.0D-02, r^2= 9.5D-01
   Bfn.  Coefficient  Atom+Function         Bfn.  Coefficient  Atom+Function  
  ----- ------------  ---------------      ----- ------------  ---------------
    16      2.216357  1 O  dxz               20      1.063793  2 H  s          
    22     -1.063793  3 H  s                  7      0.985161  1 O  px         
    21     -0.425869  2 H  s                 23      0.425869  3 H  s          
    11     -0.405398  1 O  px                 3     -0.051860  1 O  px         

 Vector   23  Occ=0.000000D+00  E= 3.721175D+00  Symmetry=a1
              MO Center=  1.2D-16,  8.0D-19, -1.4D-01, r^2= 1.1D+00
   Bfn.  Coefficient  Atom+Function         Bfn.  Coefficient  Atom+Function  
  ----- ------------  ---------------      ----- ------------  ---------------
     6      4.176926  1 O  s                 17     -1.652022  1 O  dyy        
    19     -1.639150  1 O  dzz               14     -1.629055  1 O  dxx        
    21     -0.620964  2 H  s                 23     -0.620964  3 H  s          
     1     -0.492354  1 O  s                 13      0.277902  1 O  pz         
    10     -0.171786  1 O  s                  2      0.160303  1 O  s          


 center of mass
 --------------
 x =   0.00000000 y =   0.00000000 z =  -0.09749815

 moments of inertia (a.u.)
 ------------------
           2.193095372038           0.000000000000           0.000000000000
           0.000000000000           6.314743204129           0.000000000000
           0.000000000000           0.000000000000           4.121647832091

     Multipole analysis of the density
     ---------------------------------

     L   x y z        total         alpha         beta         nuclear
     -   - - -        -----         -----         ----         -------
     0   0 0 0     -0.000000     -5.000000     -5.000000     10.000000

     1   1 0 0      0.000000      0.000000      0.000000      0.000000
     1   0 1 0      0.000000      0.000000      0.000000      0.000000
     1   0 0 1      0.918928      0.459464      0.459464      0.000000

     2   2 0 0     -3.262748     -3.676197     -3.676197      4.089646
     2   1 1 0      0.000000      0.000000      0.000000      0.000000
     2   1 0 1      0.000000      0.000000      0.000000      0.000000
     2   0 2 0     -5.876426     -2.938213     -2.938213      0.000000
     2   0 1 1      0.000000      0.000000      0.000000      0.000000
     2   0 0 2     -4.818929     -3.389581     -3.389581      1.960233


 Task  times  cpu:        0.2s     wall:        0.2s


                                NWChem Input Module
                                -------------------


 Summary of allocated global arrays
-----------------------------------
  No active global arrays



                         GA Statistics for process    0
                         ------------------------------

       create   destroy   get      put      acc     scatter   gather  read&inc
calls:  227      227     1920      591     1053        0        0      563     
number of processes/call 1.42e+00 1.24e+00 1.28e+00 0.00e+00 0.00e+00
bytes total:             1.95e+06 5.15e+05 1.17e+06 0.00e+00 0.00e+00 4.50e+03
bytes remote:            4.77e+05 8.62e+04 2.39e+05 0.00e+00 0.00e+00 0.00e+00
Max memory consumed for GA by this process: 109768 bytes

MA_summarize_allocated_blocks: starting scan ...
heap block 'gridpts', handle 79, address 0x55da05022368:
	type of elements:		double precision
	number of elements:		34436069
	address of client space:	0x55da050223c0
	index for client space:		13892747
	total number of bytes:		275488648
MA_summarize_allocated_blocks: scan completed: 1 heap block, 0 stack blocks
MA usage statistics:

	allocation statistics:
					      heap	     stack
					      ----	     -----
	current number of blocks	         1	         0
	maximum number of blocks	        22	        57
	current total bytes		 275488648	         0
	maximum total bytes		 276681960	  22510824
	maximum total K-bytes		    276682	     22511
	maximum total M-bytes		       277	        23


                                     CITATION
                                     --------
                Please cite the following reference when publishing
                           results obtained with NWChem:

                 M. Valiev, E.J. Bylaska, N. Govind, K. Kowalski,
              T.P. Straatsma, H.J.J. van Dam, D. Wang, J. Nieplocha,
                        E. Apra, T.L. Windus, W.A. de Jong
                 "NWChem: a comprehensive and scalable open-source
                  solution for large scale molecular simulations"
                      Comput. Phys. Commun. 181, 1477 (2010)
                           doi:10.1016/j.cpc.2010.04.018

                                      AUTHORS
                                      -------
          E. Apra, E. J. Bylaska, W. A. de Jong, N. Govind, K. Kowalski,
       T. P. Straatsma, M. Valiev, H. J. J. van Dam, D. Wang, T. L. Windus,
        J. Hammond, J. Autschbach, K. Bhaskaran-Nair, J. Brabec, K. Lopata,
    S. A. Fischer, S. Krishnamoorthy, M. Jacquelin, W. Ma, M. Klemm, O. Villa,
      Y. Chen, V. Anisimov, F. Aquino, S. Hirata, M. T. Hackler, V. Konjkov,
            D. Mejia-Rodriguez, T. Risthaus, M. Malagoli, A. Marenich,
   A. Otero-de-la-Roza, J. Mullin, P. Nichols, R. Peverati, J. Pittner, Y. Zhao,
        P.-D. Fan, A. Fonari, M. J. Williamson, R. J. Harrison, J. R. Rehr,
      M. Dupuis, D. Silverstein, D. M. A. Smith, J. Nieplocha, V. Tipparaju,
    M. Krishnan, B. E. Van Kuiken, A. Vazquez-Mayagoitia, L. Jensen, M. Swart,
      Q. Wu, T. Van Voorhis, A. A. Auer, M. Nooijen, L. D. Crosby, E. Brown,
      G. Cisneros, G. I. Fann, H. Fruchtl, J. Garza, K. Hirao, R. A. Kendall,
      J. A. Nichols, K. Tsemekhman, K. Wolinski, J. Anchell, D. E. Bernholdt,
      P. Borowski, T. Clark, D. Clerc, H. Dachsel, M. J. O. Deegan, K. Dyall,
    D. Elwood, E. Glendening, M. Gutowski, A. C. Hess, J. Jaffe, B. G. Johnson,
     J. Ju, R. Kobayashi, R. Kutteh, Z. Lin, R. Littlefield, X. Long, B. Meng,
      T. Nakajima, S. Niu, L. Pollack, M. Rosing, K. Glaesemann, G. Sandrone,
      M. Stave, H. Taylor, G. Thomas, J. H. van Lenthe, A. T. Wong, Z. Zhang.

 Total times  cpu:        0.2s     wall:        0.3s
