 argument  1 = /home/list1234/source/nwchem-6.8.1-release/QA/tests/m08so_ch3/m08so_ch3.nw



============================== echo of input deck ==============================
echo

title m08so_ch3
start m08so_ch3

geometry units angstroms
C 0.000000 0.000000 0.000000
H 0.000000 1.078000 0.000000
H 0.933000 -0.539000 0.000000
H -0.933000 -0.539000 0.000000
end

basis
 H library 6-31+G*
 C library 6-31+G*
end

dft
 mult 2
 iterations 50
 print intermediate energy info
 xc m08-so
 decomp
 grid lebedev 99 14
 direct
end
task dft
================================================================================


                                         
                                         


              Northwest Computational Chemistry Package (NWChem) 6.8
              ------------------------------------------------------


                    Environmental Molecular Sciences Laboratory
                       Pacific Northwest National Laboratory
                                Richland, WA 99352

                              Copyright (c) 1994-2018
                       Pacific Northwest National Laboratory
                            Battelle Memorial Institute

             NWChem is an open-source computational chemistry package
                        distributed under the terms of the
                      Educational Community License (ECL) 2.0
             A copy of the license is included with this distribution
                              in the LICENSE.TXT file

                                  ACKNOWLEDGMENT
                                  --------------

            This software and its documentation were developed at the
            EMSL at Pacific Northwest National Laboratory, a multiprogram
            national laboratory, operated for the U.S. Department of Energy
            by Battelle under Contract Number DE-AC05-76RL01830. Support
            for this work was provided by the Department of Energy Office
            of Biological and Environmental Research, Office of Basic
            Energy Sciences, and the Office of Advanced Scientific Computing.


           Job information
           ---------------

    hostname        = list1234-B360M-H
    program         = /home/list1234/source/nwchem-6.8.1-release/bin/LINUX64/nwchem
    date            = Sun Jun 30 07:40:08 2019

    compiled        = Sun_Jun_30_05:21:11_2019
    source          = /home/list1234/source/nwchem-6.8.1-release
    nwchem branch   = Development
    nwchem revision = N/A
    ga revision     = 5.6.5
    use scalapack   = T
    input           = /home/list1234/source/nwchem-6.8.1-release/QA/tests/m08so_ch3/m08so_ch3.nw
    prefix          = m08so_ch3.
    data base       = ./m08so_ch3.db
    status          = startup
    nproc           =        4
    time left       =     -1s



           Memory information
           ------------------

    heap     =   86247164 doubles =    658.0 Mbytes
    stack    =   86247169 doubles =    658.0 Mbytes
    global   =  172494336 doubles =   1316.0 Mbytes (distinct from heap & stack)
    total    =  344988669 doubles =   2632.1 Mbytes
    verify   = yes
    hardfail = no 


           Directory information
           ---------------------

  0 permanent = .
  0 scratch   = .




                                NWChem Input Module
                                -------------------


                                     m08so_ch3
                                     ---------

 Scaling coordinates for geometry "geometry" by  1.889725989
 (inverse scale =  0.529177249)

 D3H symmetry detected

          ------
          auto-z
          ------
  Looking for out-of-plane bends
  no constraints, skipping    0.0000000000000000     
  no constraints, skipping    0.0000000000000000     


                             Geometry "geometry" -> ""
                             -------------------------

 Output coordinates in angstroms (scale by  1.889725989 to convert to a.u.)

  No.       Tag          Charge          X              Y              Z
 ---- ---------------- ---------- -------------- -------------- --------------
    1 C                    6.0000     0.00000000     0.00000000     0.00000000
    2 H                    1.0000     0.76202621     0.76202621     0.00000000
    3 H                    1.0000     0.27892095    -1.04094716     0.00000000
    4 H                    1.0000    -1.04094716     0.27892095     0.00000000

      Atomic Mass 
      ----------- 

      C                 12.000000
      H                  1.007825


 Effective nuclear repulsion energy (a.u.)       9.6892125313

            Nuclear Dipole moment (a.u.) 
            ----------------------------
        X                 Y               Z
 ---------------- ---------------- ----------------
     0.0000000000     0.0000000000     0.0000000000

      Symmetry information
      --------------------

 Group name             D3h       
 Group number             27
 Group order              12
 No. of unique centers     2

      Symmetry unique atoms

     1    2



                                Z-matrix (autoz)
                                -------- 

 Units are Angstrom for bonds and degrees for angles

      Type          Name      I     J     K     L     M      Value
      ----------- --------  ----- ----- ----- ----- ----- ----------
    1 Stretch                  1     2                       1.07767
    2 Stretch                  1     3                       1.07767
    3 Stretch                  1     4                       1.07767
    4 Bend                     2     1     3               120.00000
    5 Bend                     2     1     4               120.00000
    6 Bend                     3     1     4               120.00000
    7 Torsion                  2     1     3     4         180.00000
    8 Torsion                  2     1     4     3         180.00000
    9 Torsion                  3     1     2     4         180.00000
   10 Torsion                  2     4     1     3         180.00000
   11 Torsion                  3     2     1     4         180.00000
   12 Torsion                  2     3     1     4         180.00000


            XYZ format geometry
            -------------------
     4
 geometry
 C                     0.00000000     0.00000000     0.00000000
 H                     0.76202621     0.76202621     0.00000000
 H                     0.27892095    -1.04094716     0.00000000
 H                    -1.04094716     0.27892095     0.00000000

 ==============================================================================
                                internuclear distances
 ------------------------------------------------------------------------------
       center one      |      center two      | atomic units |  angstroms
 ------------------------------------------------------------------------------
    2 H                |   1 C                |     2.03650  |     1.07767
    3 H                |   1 C                |     2.03650  |     1.07767
    4 H                |   1 C                |     2.03650  |     1.07767
 ------------------------------------------------------------------------------
                         number of included internuclear distances:          3
 ==============================================================================



 ==============================================================================
                                 internuclear angles
 ------------------------------------------------------------------------------
        center 1       |       center 2       |       center 3       |  degrees
 ------------------------------------------------------------------------------
    2 H                |   1 C                |   3 H                |   120.00
    2 H                |   1 C                |   4 H                |   120.00
    3 H                |   1 C                |   4 H                |   120.00
 ------------------------------------------------------------------------------
                            number of included internuclear angles:          3
 ==============================================================================



                      Basis "ao basis" -> "" (cartesian)
                      -----
  H (Hydrogen)
  ------------
            Exponent  Coefficients 
       -------------- ---------------------------------------------------------
  1 S  1.87311370E+01  0.033495
  1 S  2.82539370E+00  0.234727
  1 S  6.40121700E-01  0.813757

  2 S  1.61277800E-01  1.000000

  C (Carbon)
  ----------
            Exponent  Coefficients 
       -------------- ---------------------------------------------------------
  1 S  3.04752490E+03  0.001835
  1 S  4.57369510E+02  0.014037
  1 S  1.03948690E+02  0.068843
  1 S  2.92101550E+01  0.232184
  1 S  9.28666300E+00  0.467941
  1 S  3.16392700E+00  0.362312

  2 S  7.86827240E+00 -0.119332
  2 S  1.88128850E+00 -0.160854
  2 S  5.44249300E-01  1.143456

  3 P  7.86827240E+00  0.068999
  3 P  1.88128850E+00  0.316424
  3 P  5.44249300E-01  0.744308

  4 S  1.68714400E-01  1.000000

  5 P  1.68714400E-01  1.000000

  6 S  4.38000000E-02  1.000000

  7 P  4.38000000E-02  1.000000

  8 D  8.00000000E-01  1.000000



 Summary of "ao basis" -> "" (cartesian)
 ------------------------------------------------------------------------------
       Tag                 Description            Shells   Functions and Types
 ---------------- ------------------------------  ------  ---------------------
 H                          6-31+G*                  2        2   2s
 C                          6-31+G*                  8       19   4s3p1d



                                 NWChem DFT Module
                                 -----------------


                                     m08so_ch3




 Summary of "ao basis" -> "ao basis" (cartesian)
 ------------------------------------------------------------------------------
       Tag                 Description            Shells   Functions and Types
 ---------------- ------------------------------  ------  ---------------------
 H                          6-31+G*                  2        2   2s
 C                          6-31+G*                  8       19   4s3p1d


      Symmetry analysis of basis
      --------------------------

        a1'         8
        a1"         0
        a2'         0
        a2"         3
        e'         12
        e"          2

  Caching 1-el integrals 
  Rotation of axis 

            General Information
            -------------------
          SCF calculation type: DFT
          Wavefunction type:  spin polarized.
          No. of atoms     :     4
          No. of electrons :     9
           Alpha electrons :     5
            Beta electrons :     4
          Charge           :     0
          Spin multiplicity:     2
          Use of symmetry is: on ; symmetry adaption is: on 
          Maximum number of iterations:  50
          This is a Direct SCF calculation.
          AO basis - number of functions:    25
                     number of shells:    14
          Convergence on energy requested:  1.00D-06
          Convergence on density requested:  1.00D-05
          Convergence on gradient requested:  5.00D-04

              XC Information
              --------------
                       M08-SO Method XC Functional
                     Hartree-Fock (Exact) Exchange  0.568          
                        M08-SO gradient correction  1.000          
                      M08-SO Correlation Potential  1.000          

             Grid Information
             ----------------
          Grid used for XC integration:  lebedev   
          Radial quadrature: Mura-Knowles        
          Angular quadrature: Lebedev. 
          Tag              B.-S. Rad. Rad. Pts. Rad. Cut. Ang. Pts.
          ---              ---------- --------- --------- ---------
          C                   0.70       99           7.0       590
          H                   0.35       99           6.0       590
          Grid pruning is: on 
          Number of quadrature shells:   198
          Spatial weights used:  Erf1

          Convergence Information
          -----------------------
          Convergence aids based upon iterative change in 
          total energy or number of iterations. 
          Levelshifting, if invoked, occurs when the 
          HOMO/LUMO gap drops below (HL_TOL):  1.00D-02
          DIIS, if invoked, will attempt to extrapolate 
          using up to (NFOCK): 10 stored Fock matrices.

                    Damping( 0%)  Levelshifting(0.5)       DIIS
                  --------------- ------------------- ---------------
          dE  on:    start            ASAP                start   
          dE off:    2 iters         50 iters            50 iters 


      Screening Tolerance Information
      -------------------------------
          Density screening/tol_rho:  1.00D-10
          AO Gaussian exp screening on grid/accAOfunc:  14
          CD Gaussian exp screening on grid/accCDfunc:  20
          XC Gaussian exp screening on grid/accXCfunc:  20
          Schwarz screening/accCoul:  1.00D-08


      Superposition of Atomic Density Guess
      -------------------------------------

 Sum of atomic energies:         -39.15818925

      Non-variational initial energy
      ------------------------------

 Total energy =     -39.482930
 1-e energy   =     -70.490914
 2-e energy   =      21.318771
 HOMO         =      -0.169567
 LUMO         =       0.073149


   Symmetry analysis of molecular orbitals - initial alpha
   -------------------------------------------------------

  Numbering of irreducible representations: 

     1 a1'         2 a1"         3 a2'         4 a2"         5 e'      
     6 e"      

  Orbital symmetries:

     1 a1'         2 a1'         3 e'          4 e'          5 a2"     
     6 a1'         7 e'          8 e'          9 a2"        10 a1'     
    11 e'         12 e'         13 e'         14 e'         15 a2"     


   Symmetry analysis of molecular orbitals - initial beta
   ------------------------------------------------------

  Numbering of irreducible representations: 

     1 a1'         2 a1"         3 a2'         4 a2"         5 e'      
     6 e"      

  Orbital symmetries:

     1 a1'         2 a1'         3 e'          4 e'          5 a2"     
     6 a1'         7 e'          8 e'          9 a2"        10 a1'     
    11 e'         12 e'         13 e'         14 e'         15 a2"     

   Time after variat. SCF:      0.1
   Time prior to 1st pass:      0.1

 Grid_pts file          = ./m08so_ch3.gridpts.0
 Record size in doubles =  12289        No. of grid_pts per rec  =   3070
 Max. records in memory =     12        Max. recs in file   = 253312716


           Memory utilization after 1st SCF pass: 
           Heap Space remaining (MW):       51.67            51670500
          Stack Space remaining (MW):       86.25            86246796

   convergence    iter        energy       DeltaE   RMS-Dens  Diis-err    time
 ---------------- ----- ----------------- --------- --------- ---------  ------
 d= 0,ls=0.0,diis     1    -39.7916850303 -4.95D+01  4.09D-03  3.40D-02     0.2
                                                     3.96D-03  3.51D-02
 d= 0,ls=0.0,diis     2    -39.8028161982 -1.11D-02  5.81D-04  2.85D-04     0.2
                                                     1.25D-03  9.72D-04
 d= 0,ls=0.0,diis     3    -39.8032227265 -4.07D-04  5.03D-04  2.95D-04     0.3
                                                     1.79D-04  5.75D-05
 d= 0,ls=0.0,diis     4    -39.8033360533 -1.13D-04  1.52D-04  5.63D-06     0.4
                                                     2.66D-04  3.77D-05
 d= 0,ls=0.0,diis     5    -39.8033589692 -2.29D-05  6.27D-05  6.83D-07     0.5
                                                     5.71D-05  6.05D-07
  Resetting Diis
 d= 0,ls=0.0,diis     6    -39.8033600056 -1.04D-06  3.19D-06  3.14D-09     0.5
                                                     4.75D-06  3.06D-09
 d= 0,ls=0.0,diis     7    -39.8033600097 -4.17D-09  3.57D-07  5.65D-11     0.6
                                                     2.93D-07  2.42D-11


         Total DFT energy =      -39.803360009724
      One electron energy =      -71.563564020184
           Coulomb energy =       28.503434412531
          Exchange energy =       -6.215209864366
       Correlation energy =       -0.217233068961
 Nuclear repulsion energy =        9.689212531256

 Numeric. integr. density =        8.999999918799

     Total iterative time =      0.5s



                  Occupations of the irreducible representations
                  ----------------------------------------------

                     irrep           alpha         beta
                     --------     --------     --------
                     a1'               2.0          2.0
                     a1"               0.0          0.0
                     a2'               0.0          0.0
                     a2"               1.0          0.0
                     e'                2.0          2.0
                     e"                0.0          0.0


                    DFT Final Alpha Molecular Orbital Analysis
                    ------------------------------------------

 Vector    1  Occ=1.000000D+00  E=-1.053116D+01  Symmetry=a1'
              MO Center= -3.2D-18, -1.1D-18,  1.6D-21, r^2= 2.8D-02
   Bfn.  Coefficient  Atom+Function         Bfn.  Coefficient  Atom+Function  
  ----- ------------  ---------------      ----- ------------  ---------------
     1      0.991640  1 C  s                  2      0.056257  1 C  s          

 Vector    2  Occ=1.000000D+00  E=-7.774674D-01  Symmetry=a1'
              MO Center= -1.2D-15,  2.7D-16, -5.9D-17, r^2= 9.8D-01
   Bfn.  Coefficient  Atom+Function         Bfn.  Coefficient  Atom+Function  
  ----- ------------  ---------------      ----- ------------  ---------------
     6      0.398356  1 C  s                  2      0.388749  1 C  s          
     1     -0.203196  1 C  s                 20      0.144446  2 H  s          
    22      0.144446  3 H  s                 24      0.144446  4 H  s          
    21      0.036639  2 H  s                 23      0.036639  3 H  s          
    25      0.036639  4 H  s          

 Vector    3  Occ=1.000000D+00  E=-4.941234D-01  Symmetry=e'
              MO Center=  1.6D-01, -1.9D-01,  2.0D-16, r^2= 1.2D+00
   Bfn.  Coefficient  Atom+Function         Bfn.  Coefficient  Atom+Function  
  ----- ------------  ---------------      ----- ------------  ---------------
     4      0.464441  1 C  py                22     -0.268984  3 H  s          
     8      0.210037  1 C  py                20      0.188347  2 H  s          
    23     -0.183723  3 H  s                 21      0.128646  2 H  s          
    24      0.080637  4 H  s                 25      0.055077  4 H  s          

 Vector    4  Occ=1.000000D+00  E=-4.941234D-01  Symmetry=e'
              MO Center= -1.6D-01,  1.9D-01, -5.8D-17, r^2= 1.2D+00
   Bfn.  Coefficient  Atom+Function         Bfn.  Coefficient  Atom+Function  
  ----- ------------  ---------------      ----- ------------  ---------------
     3      0.464441  1 C  px                24     -0.264040  4 H  s          
     7      0.210037  1 C  px                20      0.201854  2 H  s          
    25     -0.180346  4 H  s                 21      0.137871  2 H  s          
    22      0.062186  3 H  s                 23      0.042475  3 H  s          

 Vector    5  Occ=1.000000D+00  E=-2.947087D-01  Symmetry=a2"
              MO Center=  2.0D-16,  6.0D-17,  4.4D-16, r^2= 1.3D+00
   Bfn.  Coefficient  Atom+Function         Bfn.  Coefficient  Atom+Function  
  ----- ------------  ---------------      ----- ------------  ---------------
     5      0.592939  1 C  pz                 9      0.468721  1 C  pz         
    13      0.128009  1 C  pz         

 Vector    6  Occ=0.000000D+00  E= 2.581004D-02  Symmetry=a1'
              MO Center= -5.2D-15, -1.0D-14, -2.9D-16, r^2= 7.5D+00
   Bfn.  Coefficient  Atom+Function         Bfn.  Coefficient  Atom+Function  
  ----- ------------  ---------------      ----- ------------  ---------------
    10      1.555533  1 C  s                  6     -0.613741  1 C  s          
    21     -0.174998  2 H  s                 23     -0.174998  3 H  s          
    25     -0.174998  4 H  s                  2     -0.112187  1 C  s          
     1      0.079654  1 C  s          

 Vector    7  Occ=0.000000D+00  E= 4.377306D-02  Symmetry=e'
              MO Center=  1.2D-02, -1.3D-01,  8.0D-30, r^2= 9.6D+00
   Bfn.  Coefficient  Atom+Function         Bfn.  Coefficient  Atom+Function  
  ----- ------------  ---------------      ----- ------------  ---------------
    11      1.149076  1 C  px                12      0.415721  1 C  py         
    21     -0.281985  2 H  s                 25      0.255441  4 H  s          
     7     -0.157799  1 C  px                 3     -0.127788  1 C  px         
     8     -0.057090  1 C  py                 4     -0.046232  1 C  py         
    23      0.026543  3 H  s          

 Vector    8  Occ=0.000000D+00  E= 4.377306D-02  Symmetry=e'
              MO Center= -1.2D-02,  1.3D-01, -2.2D-30, r^2= 9.6D+00
   Bfn.  Coefficient  Atom+Function         Bfn.  Coefficient  Atom+Function  
  ----- ------------  ---------------      ----- ------------  ---------------
    12      1.149076  1 C  py                11     -0.415721  1 C  px         
    23      0.310283  3 H  s                 25     -0.178129  4 H  s          
     8     -0.157799  1 C  py                21     -0.132154  2 H  s          
     4     -0.127788  1 C  py                 7      0.057090  1 C  px         
     3      0.046232  1 C  px         

 Vector    9  Occ=0.000000D+00  E= 6.974701D-02  Symmetry=a2"
              MO Center=  1.9D-18, -4.5D-19, -1.7D-18, r^2= 9.1D+00
   Bfn.  Coefficient  Atom+Function         Bfn.  Coefficient  Atom+Function  
  ----- ------------  ---------------      ----- ------------  ---------------
    13      1.154696  1 C  pz                 9     -0.442628  1 C  pz         
     5     -0.214308  1 C  pz         

 Vector   10  Occ=0.000000D+00  E= 2.250033D-01  Symmetry=a1'
              MO Center=  8.6D-16, -5.1D-16, -1.7D-16, r^2= 4.0D+00
   Bfn.  Coefficient  Atom+Function         Bfn.  Coefficient  Atom+Function  
  ----- ------------  ---------------      ----- ------------  ---------------
     6      2.461500  1 C  s                 21     -1.482397  2 H  s          
    23     -1.482397  3 H  s                 25     -1.482397  4 H  s          
    10      1.103391  1 C  s                  1     -0.135969  1 C  s          
     2      0.133504  1 C  s                 20     -0.124436  2 H  s          
    22     -0.124436  3 H  s                 24     -0.124436  4 H  s          

 Vector   11  Occ=0.000000D+00  E= 2.286327D-01  Symmetry=e'
              MO Center= -1.5D-01,  3.0D-01,  1.5D-31, r^2= 3.2D+00
   Bfn.  Coefficient  Atom+Function         Bfn.  Coefficient  Atom+Function  
  ----- ------------  ---------------      ----- ------------  ---------------
    25      1.923957  4 H  s                 21     -1.719791  2 H  s          
     7      1.579651  1 C  px                11      0.352287  1 C  px         
     3      0.306064  1 C  px                 8      0.263118  1 C  py         
    23     -0.204167  3 H  s                 24      0.121881  4 H  s          
    20     -0.108947  2 H  s                 12      0.058679  1 C  py         

 Vector   12  Occ=0.000000D+00  E= 2.286327D-01  Symmetry=e'
              MO Center=  1.5D-01, -3.0D-01,  7.3D-32, r^2= 3.2D+00
   Bfn.  Coefficient  Atom+Function         Bfn.  Coefficient  Atom+Function  
  ----- ------------  ---------------      ----- ------------  ---------------
    23      2.103719  3 H  s                  8      1.579651  1 C  py         
    21     -1.228673  2 H  s                 25     -0.875046  4 H  s          
    12      0.352287  1 C  py                 4      0.306064  1 C  py         
     7     -0.263118  1 C  px                22      0.133268  3 H  s          
    20     -0.077835  2 H  s                 11     -0.058679  1 C  px         

 Vector   13  Occ=0.000000D+00  E= 6.686900D-01  Symmetry=e'
              MO Center= -1.3D-01, -9.1D-02,  2.0D-32, r^2= 2.7D+00
   Bfn.  Coefficient  Atom+Function         Bfn.  Coefficient  Atom+Function  
  ----- ------------  ---------------      ----- ------------  ---------------
     8      1.353750  1 C  py                 7      1.147386  1 C  px         
     4     -0.727135  1 C  py                 3     -0.616291  1 C  px         
    12     -0.390492  1 C  py                11     -0.330966  1 C  px         
    20     -0.316610  2 H  s                 21     -0.259878  2 H  s          
    22      0.180928  3 H  s                 23      0.148508  3 H  s          

 Vector   14  Occ=0.000000D+00  E= 6.686900D-01  Symmetry=e'
              MO Center=  1.3D-01,  9.1D-02,  3.1D-33, r^2= 2.7D+00
   Bfn.  Coefficient  Atom+Function         Bfn.  Coefficient  Atom+Function  
  ----- ------------  ---------------      ----- ------------  ---------------
     7      1.353750  1 C  px                 8     -1.147386  1 C  py         
     3     -0.727135  1 C  px                 4      0.616291  1 C  py         
    11     -0.390492  1 C  px                12      0.330966  1 C  py         
    24      0.287253  4 H  s                 22     -0.261131  3 H  s          
    25      0.235782  4 H  s                 23     -0.214340  3 H  s          

 Vector   15  Occ=0.000000D+00  E= 6.821986D-01  Symmetry=a2"
              MO Center= -4.4D-33,  6.0D-35,  8.3D-19, r^2= 2.6D+00
   Bfn.  Coefficient  Atom+Function         Bfn.  Coefficient  Atom+Function  
  ----- ------------  ---------------      ----- ------------  ---------------
     9      1.394541  1 C  pz                 5     -1.089887  1 C  pz         
    13     -0.537466  1 C  pz         

 Vector   16  Occ=0.000000D+00  E= 8.413186D-01  Symmetry=a1'
              MO Center=  2.6D-15,  1.8D-16,  8.8D-17, r^2= 2.6D+00
   Bfn.  Coefficient  Atom+Function         Bfn.  Coefficient  Atom+Function  
  ----- ------------  ---------------      ----- ------------  ---------------
     6      2.615947  1 C  s                  2     -1.356926  1 C  s          
    10     -0.778225  1 C  s                 20     -0.438964  2 H  s          
    22     -0.438964  3 H  s                 24     -0.438964  4 H  s          
    14     -0.193273  1 C  dxx               17     -0.193273  1 C  dyy        
     1     -0.054514  1 C  s                 19      0.037606  1 C  dzz        

 Vector   17  Occ=0.000000D+00  E= 9.972107D-01  Symmetry=e'
              MO Center= -2.6D-01, -2.7D-01, -4.4D-17, r^2= 2.2D+00
   Bfn.  Coefficient  Atom+Function         Bfn.  Coefficient  Atom+Function  
  ----- ------------  ---------------      ----- ------------  ---------------
    23      1.547107  3 H  s                 25     -1.530056  4 H  s          
    22     -0.818586  3 H  s                 24      0.809564  4 H  s          
     8      0.673181  1 C  py                 7     -0.660382  1 C  px         
     4     -0.489322  1 C  py                 3      0.480018  1 C  px         
    12      0.255473  1 C  py                11     -0.250615  1 C  px         

 Vector   18  Occ=0.000000D+00  E= 9.972107D-01  Symmetry=e'
              MO Center=  2.6D-01,  2.7D-01,  2.3D-17, r^2= 2.2D+00
   Bfn.  Coefficient  Atom+Function         Bfn.  Coefficient  Atom+Function  
  ----- ------------  ---------------      ----- ------------  ---------------
    21      1.776601  2 H  s                 20     -0.940013  2 H  s          
    25     -0.903067  4 H  s                 23     -0.873534  3 H  s          
     7     -0.673181  1 C  px                 8     -0.660382  1 C  py         
     3      0.489322  1 C  px                 4      0.480018  1 C  py         
    24      0.477820  4 H  s                 22      0.462193  3 H  s          

 Vector   19  Occ=0.000000D+00  E= 1.015289D+00  Symmetry=a1'
              MO Center= -2.0D-14, -6.4D-14, -1.9D-18, r^2= 2.5D+00
   Bfn.  Coefficient  Atom+Function         Bfn.  Coefficient  Atom+Function  
  ----- ------------  ---------------      ----- ------------  ---------------
     6      3.176160  1 C  s                 21     -1.434964  2 H  s          
    23     -1.434964  3 H  s                 25     -1.434964  4 H  s          
     2     -1.325309  1 C  s                 20      0.589365  2 H  s          
    22      0.589365  3 H  s                 24      0.589365  4 H  s          
    10      0.559790  1 C  s                 19     -0.246418  1 C  dzz        

 Vector   20  Occ=0.000000D+00  E= 1.650687D+00  Symmetry=e"
              MO Center= -1.3D-18,  4.2D-18, -2.1D-16, r^2= 6.1D-01
   Bfn.  Coefficient  Atom+Function         Bfn.  Coefficient  Atom+Function  
  ----- ------------  ---------------      ----- ------------  ---------------
    18      1.653363  1 C  dyz               16     -0.516131  1 C  dxz        

 Vector   21  Occ=0.000000D+00  E= 1.650687D+00  Symmetry=e"
              MO Center= -2.1D-16, -6.4D-17,  8.5D-17, r^2= 6.1D-01
   Bfn.  Coefficient  Atom+Function         Bfn.  Coefficient  Atom+Function  
  ----- ------------  ---------------      ----- ------------  ---------------
    16      1.653363  1 C  dxz               18      0.516131  1 C  dyz        

 Vector   22  Occ=0.000000D+00  E= 2.011033D+00  Symmetry=a1'
              MO Center= -1.0D-17,  1.5D-16, -1.4D-17, r^2= 8.3D-01
   Bfn.  Coefficient  Atom+Function         Bfn.  Coefficient  Atom+Function  
  ----- ------------  ---------------      ----- ------------  ---------------
    19      1.125996  1 C  dzz                6     -0.820593  1 C  s          
    14     -0.471763  1 C  dxx               17     -0.471763  1 C  dyy        
    20      0.469541  2 H  s                 22      0.469541  3 H  s          
    24      0.469541  4 H  s                 10      0.161207  1 C  s          
     2      0.083563  1 C  s                  1      0.067391  1 C  s          

 Vector   23  Occ=0.000000D+00  E= 2.230489D+00  Symmetry=e'
              MO Center= -1.0D-01,  7.6D-03,  8.6D-18, r^2= 9.9D-01
   Bfn.  Coefficient  Atom+Function         Bfn.  Coefficient  Atom+Function  
  ----- ------------  ---------------      ----- ------------  ---------------
    14      0.876238  1 C  dxx               17     -0.876238  1 C  dyy        
    24     -0.848838  4 H  s                 15     -0.803476  1 C  dxy        
     7     -0.536926  1 C  px                22      0.493512  3 H  s          
    20      0.355325  2 H  s                  8      0.199355  1 C  py         
    11      0.164097  1 C  px                25      0.154568  4 H  s          

 Vector   24  Occ=0.000000D+00  E= 2.230489D+00  Symmetry=e'
              MO Center=  1.0D-01, -7.6D-03, -9.0D-20, r^2= 9.9D-01
   Bfn.  Coefficient  Atom+Function         Bfn.  Coefficient  Atom+Function  
  ----- ------------  ---------------      ----- ------------  ---------------
    15      1.752476  1 C  dxy               20     -0.775006  2 H  s          
    22      0.695224  3 H  s                  8      0.536926  1 C  py         
    14      0.401738  1 C  dxx               17     -0.401738  1 C  dyy        
     7      0.199355  1 C  px                12     -0.164097  1 C  py         
     4      0.148450  1 C  py                21      0.141124  2 H  s          

 Vector   25  Occ=0.000000D+00  E= 4.072055D+00  Symmetry=a1'
              MO Center=  7.3D-17, -2.1D-16,  9.1D-19, r^2= 7.1D-01
   Bfn.  Coefficient  Atom+Function         Bfn.  Coefficient  Atom+Function  
  ----- ------------  ---------------      ----- ------------  ---------------
     2      3.088201  1 C  s                 14     -1.871708  1 C  dxx        
    17     -1.871708  1 C  dyy               19     -1.781629  1 C  dzz        
     6      1.736063  1 C  s                  1     -0.468565  1 C  s          
    21     -0.409733  2 H  s                 23     -0.409733  3 H  s          
    25     -0.409733  4 H  s                 20      0.183413  2 H  s          


                     DFT Final Beta Molecular Orbital Analysis
                     -----------------------------------------

 Vector    1  Occ=1.000000D+00  E=-1.051383D+01  Symmetry=a1'
              MO Center= -1.0D-18, -1.0D-18, -3.0D-21, r^2= 2.8D-02
   Bfn.  Coefficient  Atom+Function         Bfn.  Coefficient  Atom+Function  
  ----- ------------  ---------------      ----- ------------  ---------------
     1      0.992150  1 C  s                  2      0.053261  1 C  s          

 Vector    2  Occ=1.000000D+00  E=-7.429750D-01  Symmetry=a1'
              MO Center=  1.4D-15, -6.5D-16, -5.1D-17, r^2= 1.0D+00
   Bfn.  Coefficient  Atom+Function         Bfn.  Coefficient  Atom+Function  
  ----- ------------  ---------------      ----- ------------  ---------------
     2      0.368780  1 C  s                  6      0.352646  1 C  s          
     1     -0.196302  1 C  s                 20      0.159550  2 H  s          
    22      0.159550  3 H  s                 24      0.159550  4 H  s          
    21      0.059407  2 H  s                 23      0.059407  3 H  s          
    25      0.059407  4 H  s          

 Vector    3  Occ=1.000000D+00  E=-4.875253D-01  Symmetry=e'
              MO Center=  2.7D-01, -2.7D-02,  1.2D-16, r^2= 1.2D+00
   Bfn.  Coefficient  Atom+Function         Bfn.  Coefficient  Atom+Function  
  ----- ------------  ---------------      ----- ------------  ---------------
     4      0.415507  1 C  py                20      0.265260  2 H  s          
    22     -0.241254  3 H  s                 21      0.192755  2 H  s          
     8      0.175287  1 C  py                23     -0.175310  3 H  s          
     3      0.148716  1 C  px                 7      0.062738  1 C  px         
    15      0.041879  1 C  dxy               12      0.025095  1 C  py         

 Vector    4  Occ=1.000000D+00  E=-4.875253D-01  Symmetry=e'
              MO Center= -2.7D-01,  2.7D-02, -5.0D-18, r^2= 1.2D+00
   Bfn.  Coefficient  Atom+Function         Bfn.  Coefficient  Atom+Function  
  ----- ------------  ---------------      ----- ------------  ---------------
     3      0.415507  1 C  px                24     -0.292436  4 H  s          
    25     -0.212503  4 H  s                  7      0.175287  1 C  px         
    22      0.167008  3 H  s                  4     -0.148716  1 C  py         
    20      0.125428  2 H  s                 23      0.121359  3 H  s          
    21      0.091144  2 H  s                  8     -0.062738  1 C  py         

 Vector    5  Occ=0.000000D+00  E=-4.609916D-02  Symmetry=a2"
              MO Center=  6.6D-32,  9.4D-32,  5.2D-17, r^2= 5.0D+00
   Bfn.  Coefficient  Atom+Function         Bfn.  Coefficient  Atom+Function  
  ----- ------------  ---------------      ----- ------------  ---------------
    13      0.712573  1 C  pz                 5      0.330258  1 C  pz         
     9      0.213872  1 C  pz         

 Vector    6  Occ=0.000000D+00  E= 6.577451D-03  Symmetry=a1'
              MO Center= -2.4D-16, -1.7D-14,  2.2D-18, r^2= 7.8D+00
   Bfn.  Coefficient  Atom+Function         Bfn.  Coefficient  Atom+Function  
  ----- ------------  ---------------      ----- ------------  ---------------
    10      1.631359  1 C  s                  6     -0.540593  1 C  s          
    21     -0.256187  2 H  s                 23     -0.256187  3 H  s          
    25     -0.256187  4 H  s                  1      0.073570  1 C  s          
     2     -0.071412  1 C  s          

 Vector    7  Occ=0.000000D+00  E= 3.008822D-02  Symmetry=e'
              MO Center=  2.4D-02,  1.5D-01, -2.0D-33, r^2= 9.7D+00
   Bfn.  Coefficient  Atom+Function         Bfn.  Coefficient  Atom+Function  
  ----- ------------  ---------------      ----- ------------  ---------------
    12      1.098608  1 C  py                11     -0.563970  1 C  px         
    23      0.359326  3 H  s                 25     -0.246794  4 H  s          
     8     -0.124065  1 C  py                21     -0.112532  2 H  s          
     4     -0.108315  1 C  py                 7      0.063689  1 C  px         
     3      0.055603  1 C  px                22      0.027382  3 H  s          

 Vector    8  Occ=0.000000D+00  E= 3.008822D-02  Symmetry=e'
              MO Center= -2.4D-02, -1.5D-01,  6.3D-19, r^2= 9.7D+00
   Bfn.  Coefficient  Atom+Function         Bfn.  Coefficient  Atom+Function  
  ----- ------------  ---------------      ----- ------------  ---------------
    11      1.098608  1 C  px                12      0.563970  1 C  py         
    21     -0.349943  2 H  s                 25      0.272427  4 H  s          
     7     -0.124065  1 C  px                 3     -0.108315  1 C  px         
    23      0.077516  3 H  s                  8     -0.063689  1 C  py         
     4     -0.055603  1 C  py                20     -0.026667  2 H  s          

 Vector    9  Occ=0.000000D+00  E= 7.587315D-02  Symmetry=a2"
              MO Center=  2.3D-18, -1.6D-18, -1.5D-18, r^2= 5.9D+00
   Bfn.  Coefficient  Atom+Function         Bfn.  Coefficient  Atom+Function  
  ----- ------------  ---------------      ----- ------------  ---------------
    13      0.953397  1 C  pz                 9     -0.771279  1 C  pz         
     5     -0.382171  1 C  pz         

 Vector   10  Occ=0.000000D+00  E= 2.356799D-01  Symmetry=a1'
              MO Center= -5.3D-13,  4.7D-13, -3.1D-19, r^2= 3.8D+00
   Bfn.  Coefficient  Atom+Function         Bfn.  Coefficient  Atom+Function  
  ----- ------------  ---------------      ----- ------------  ---------------
     6      2.543652  1 C  s                 21     -1.501272  2 H  s          
    23     -1.501272  3 H  s                 25     -1.501272  4 H  s          
    10      1.035855  1 C  s                  1     -0.145297  1 C  s          
     2      0.140076  1 C  s                 20     -0.106718  2 H  s          
    22     -0.106718  3 H  s                 24     -0.106718  4 H  s          

 Vector   11  Occ=0.000000D+00  E= 2.373443D-01  Symmetry=e'
              MO Center= -2.5D-01,  2.4D-01,  1.8D-28, r^2= 3.2D+00
   Bfn.  Coefficient  Atom+Function         Bfn.  Coefficient  Atom+Function  
  ----- ------------  ---------------      ----- ------------  ---------------
    25      2.065073  4 H  s                  7      1.652833  1 C  px         
    21     -1.496646  2 H  s                 23     -0.568427  3 H  s          
    11      0.323046  1 C  px                 3      0.304548  1 C  px         
    24      0.114985  4 H  s                 20     -0.083334  2 H  s          
    22     -0.031650  3 H  s          

 Vector   12  Occ=0.000000D+00  E= 2.373443D-01  Symmetry=e'
              MO Center=  2.5D-01, -2.4D-01,  2.6D-28, r^2= 3.2D+00
   Bfn.  Coefficient  Atom+Function         Bfn.  Coefficient  Atom+Function  
  ----- ------------  ---------------      ----- ------------  ---------------
    23      2.056360  3 H  s                  8      1.652833  1 C  py         
    21     -1.520452  2 H  s                 25     -0.535908  4 H  s          
    12      0.323046  1 C  py                 4      0.304548  1 C  py         
    22      0.114500  3 H  s                 20     -0.084660  2 H  s          
    24     -0.029840  4 H  s          

 Vector   13  Occ=0.000000D+00  E= 6.819988D-01  Symmetry=e'
              MO Center=  1.4D-01, -3.9D-02, -4.8D-18, r^2= 2.8D+00
   Bfn.  Coefficient  Atom+Function         Bfn.  Coefficient  Atom+Function  
  ----- ------------  ---------------      ----- ------------  ---------------
     7      1.664058  1 C  px                 3     -0.900331  1 C  px         
    11     -0.502302  1 C  px                 8     -0.436257  1 C  py         
    24      0.353491  4 H  s                  4      0.236035  1 C  py         
    20     -0.178400  2 H  s                 22     -0.175091  3 H  s          
    25      0.174755  4 H  s                 12      0.131686  1 C  py         

 Vector   14  Occ=0.000000D+00  E= 6.819988D-01  Symmetry=e'
              MO Center= -1.4D-01,  3.9D-02,  1.8D-31, r^2= 2.8D+00
   Bfn.  Coefficient  Atom+Function         Bfn.  Coefficient  Atom+Function  
  ----- ------------  ---------------      ----- ------------  ---------------
     8      1.664058  1 C  py                 4     -0.900331  1 C  py         
    12     -0.502302  1 C  py                 7      0.436257  1 C  px         
    22      0.307088  3 H  s                 20     -0.305177  2 H  s          
     3     -0.236035  1 C  px                23      0.151815  3 H  s          
    21     -0.150870  2 H  s                 15     -0.135413  1 C  dxy        

 Vector   15  Occ=0.000000D+00  E= 7.825294D-01  Symmetry=a2"
              MO Center=  8.9D-33,  3.1D-33, -1.3D-18, r^2= 2.2D+00
   Bfn.  Coefficient  Atom+Function         Bfn.  Coefficient  Atom+Function  
  ----- ------------  ---------------      ----- ------------  ---------------
     9      1.311393  1 C  pz                 5     -1.153357  1 C  pz         
    13     -0.471013  1 C  pz         

 Vector   16  Occ=0.000000D+00  E= 8.697052D-01  Symmetry=a1'
              MO Center=  1.2D-15, -1.9D-15, -4.0D-20, r^2= 2.6D+00
   Bfn.  Coefficient  Atom+Function         Bfn.  Coefficient  Atom+Function  
  ----- ------------  ---------------      ----- ------------  ---------------
     6      2.265775  1 C  s                  2     -1.159696  1 C  s          
    10     -0.791332  1 C  s                 20     -0.522211  2 H  s          
    22     -0.522211  3 H  s                 24     -0.522211  4 H  s          
    14     -0.187983  1 C  dxx               17     -0.187983  1 C  dyy        
    21      0.160345  2 H  s                 23      0.160345  3 H  s          

 Vector   17  Occ=0.000000D+00  E= 1.007455D+00  Symmetry=e'
              MO Center=  3.7D-01,  4.4D-02,  5.7D-17, r^2= 2.1D+00
   Bfn.  Coefficient  Atom+Function         Bfn.  Coefficient  Atom+Function  
  ----- ------------  ---------------      ----- ------------  ---------------
    21      1.656638  2 H  s                 23     -1.324546  3 H  s          
    20     -0.901409  2 H  s                  8     -0.858409  1 C  py         
    22      0.720711  3 H  s                  4      0.666348  1 C  py         
     7     -0.417204  1 C  px                15     -0.364204  1 C  dxy        
    25     -0.332093  4 H  s                  3      0.323859  1 C  px         

 Vector   18  Occ=0.000000D+00  E= 1.007455D+00  Symmetry=e'
              MO Center= -3.7D-01, -4.4D-02, -7.7D-32, r^2= 2.1D+00
   Bfn.  Coefficient  Atom+Function         Bfn.  Coefficient  Atom+Function  
  ----- ------------  ---------------      ----- ------------  ---------------
    25      1.721188  4 H  s                 23     -1.148195  3 H  s          
    24     -0.936531  4 H  s                  7      0.858409  1 C  px         
     3     -0.666348  1 C  px                22      0.624755  3 H  s          
    21     -0.572993  2 H  s                  8     -0.417204  1 C  py         
     4      0.323859  1 C  py                20      0.311777  2 H  s          

 Vector   19  Occ=0.000000D+00  E= 1.042604D+00  Symmetry=a1'
              MO Center=  2.6D-15,  2.8D-15, -2.3D-20, r^2= 2.4D+00
   Bfn.  Coefficient  Atom+Function         Bfn.  Coefficient  Atom+Function  
  ----- ------------  ---------------      ----- ------------  ---------------
     6      3.375312  1 C  s                  2     -1.468443  1 C  s          
    21     -1.394532  2 H  s                 23     -1.394532  3 H  s          
    25     -1.394532  4 H  s                 20      0.559675  2 H  s          
    22      0.559675  3 H  s                 24      0.559675  4 H  s          
    10      0.453701  1 C  s                 19     -0.173445  1 C  dzz        

 Vector   20  Occ=0.000000D+00  E= 1.777191D+00  Symmetry=e"
              MO Center= -1.9D-18,  2.0D-18,  9.7D-18, r^2= 6.1D-01
   Bfn.  Coefficient  Atom+Function         Bfn.  Coefficient  Atom+Function  
  ----- ------------  ---------------      ----- ------------  ---------------
    18     -1.268839  1 C  dyz               16      1.179002  1 C  dxz        

 Vector   21  Occ=0.000000D+00  E= 1.777191D+00  Symmetry=e"
              MO Center= -4.6D-19, -4.3D-19, -1.8D-16, r^2= 6.1D-01
   Bfn.  Coefficient  Atom+Function         Bfn.  Coefficient  Atom+Function  
  ----- ------------  ---------------      ----- ------------  ---------------
    16      1.268839  1 C  dxz               18      1.179002  1 C  dyz        

 Vector   22  Occ=0.000000D+00  E= 2.152169D+00  Symmetry=a1'
              MO Center= -2.1D-17, -3.7D-17, -2.9D-19, r^2= 7.9D-01
   Bfn.  Coefficient  Atom+Function         Bfn.  Coefficient  Atom+Function  
  ----- ------------  ---------------      ----- ------------  ---------------
    19      1.095307  1 C  dzz                6     -0.894559  1 C  s          
    14     -0.521770  1 C  dxx               17     -0.521770  1 C  dyy        
    20      0.422810  2 H  s                 22      0.422810  3 H  s          
    24      0.422810  4 H  s                  2      0.247040  1 C  s          
    10      0.125730  1 C  s                  1      0.045536  1 C  s          

 Vector   23  Occ=0.000000D+00  E= 2.232149D+00  Symmetry=e'
              MO Center= -1.7D-02, -8.2D-02,  1.1D-31, r^2= 9.6D-01
   Bfn.  Coefficient  Atom+Function         Bfn.  Coefficient  Atom+Function  
  ----- ------------  ---------------      ----- ------------  ---------------
    14      0.931045  1 C  dxx               17     -0.931045  1 C  dyy        
    22      0.796561  3 H  s                 24     -0.562747  4 H  s          
    15      0.554770  1 C  dxy                8      0.517997  1 C  py         
     7     -0.280193  1 C  px                20     -0.233813  2 H  s          
    12     -0.144636  1 C  py                 4      0.113390  1 C  py         

 Vector   24  Occ=0.000000D+00  E= 2.232149D+00  Symmetry=e'
              MO Center=  1.7D-02,  8.2D-02,  1.1D-33, r^2= 9.6D-01
   Bfn.  Coefficient  Atom+Function         Bfn.  Coefficient  Atom+Function  
  ----- ------------  ---------------      ----- ------------  ---------------
    15      1.862091  1 C  dxy               20     -0.784797  2 H  s          
    24      0.594887  4 H  s                  7      0.517997  1 C  px         
     8      0.280193  1 C  py                14     -0.277385  1 C  dxx        
    17      0.277385  1 C  dyy               22      0.189910  3 H  s          
    11     -0.144636  1 C  px                 3      0.113390  1 C  px         

 Vector   25  Occ=0.000000D+00  E= 4.184885D+00  Symmetry=a1'
              MO Center=  6.2D-17, -1.7D-16, -7.0D-23, r^2= 7.0D-01
   Bfn.  Coefficient  Atom+Function         Bfn.  Coefficient  Atom+Function  
  ----- ------------  ---------------      ----- ------------  ---------------
     2      3.098477  1 C  s                 14     -1.857951  1 C  dxx        
    17     -1.857951  1 C  dyy               19     -1.809081  1 C  dzz        
     6      1.731860  1 C  s                  1     -0.469714  1 C  s          
    21     -0.403938  2 H  s                 23     -0.403938  3 H  s          
    25     -0.403938  4 H  s                 20      0.170114  2 H  s          


   alpha - beta orbital overlaps 
   ----------------------------- 


   alpha      1      2      3      4      5      6      7      8      9     10
    beta      1      2      3      4      5      6      8      7      9     10
 overlap   1.000  0.999  0.929  0.929  0.837  0.998  0.991  0.991  0.836  0.997


   alpha     11     12     13     14     15     16     17     18     19     20
    beta     11     12     14     13     15     16     18     17     19     20
 overlap   0.984  0.984  0.901  0.901  0.993  0.991  0.940  0.940  0.989  0.902


   alpha     21     22     23     24     25
    beta     21     22     23     24     25
 overlap   0.902  0.997  0.752  0.752  1.000

     --------------------------
     Expectation value of S2:  
     --------------------------
      <S2> =      0.7542 (Exact =     0.7500)


 center of mass
 --------------
 x =   0.00000000 y =   0.00000000 z =   0.00000000

 moments of inertia (a.u.)
 ------------------
           6.269658297302           0.000000000000           0.000000000000
           0.000000000000           6.269658297302           0.000000000000
           0.000000000000           0.000000000000          12.539316594605

     Multipole analysis of the density
     ---------------------------------

     L   x y z        total         alpha         beta         nuclear
     -   - - -        -----         -----         ----         -------
     0   0 0 0     -0.000000     -5.000000     -4.000000      9.000000

     1   1 0 0      0.000000     -0.000000      0.000000      0.000000
     1   0 1 0      0.000000     -0.000000      0.000000      0.000000
     1   0 0 1      0.000000      0.000000      0.000000      0.000000

     2   2 0 0     -5.428885     -6.164084     -5.485779      6.220979
     2   1 1 0     -0.000000      0.000000      0.000000     -0.000000
     2   1 0 1     -0.000000     -0.000000     -0.000000      0.000000
     2   0 2 0     -5.428885     -6.164084     -5.485779      6.220979
     2   0 1 1      0.000000      0.000000      0.000000      0.000000
     2   0 0 2     -6.990246     -4.897443     -2.092803      0.000000


 Task  times  cpu:        0.6s     wall:        0.6s


                                NWChem Input Module
                                -------------------


 Summary of allocated global arrays
-----------------------------------
  No active global arrays



                         GA Statistics for process    0
                         ------------------------------

       create   destroy   get      put      acc     scatter   gather  read&inc
calls:  455      455     7642     1410     5169        0        0      967     
number of processes/call 1.25e+00 1.22e+00 1.13e+00 0.00e+00 0.00e+00
bytes total:             6.04e+06 1.15e+06 4.43e+06 0.00e+00 0.00e+00 7.74e+03
bytes remote:            1.58e+06 2.48e+05 7.12e+05 0.00e+00 0.00e+00 0.00e+00
Max memory consumed for GA by this process: 196168 bytes

MA_summarize_allocated_blocks: starting scan ...
heap block 'gridpts', handle 85, address 0x560a05444868:
	type of elements:		double precision
	number of elements:		34427340
	address of client space:	0x560a054448c0
	index for client space:		13026091
	total number of bytes:		275418816
MA_summarize_allocated_blocks: scan completed: 1 heap block, 0 stack blocks
MA usage statistics:

	allocation statistics:
					      heap	     stack
					      ----	     -----
	current number of blocks	         1	         0
	maximum number of blocks	        22	        57
	current total bytes		 275418816	         0
	maximum total bytes		 276613352	  22511656
	maximum total K-bytes		    276614	     22512
	maximum total M-bytes		       277	        23


                                     CITATION
                                     --------
                Please cite the following reference when publishing
                           results obtained with NWChem:

                 M. Valiev, E.J. Bylaska, N. Govind, K. Kowalski,
              T.P. Straatsma, H.J.J. van Dam, D. Wang, J. Nieplocha,
                        E. Apra, T.L. Windus, W.A. de Jong
                 "NWChem: a comprehensive and scalable open-source
                  solution for large scale molecular simulations"
                      Comput. Phys. Commun. 181, 1477 (2010)
                           doi:10.1016/j.cpc.2010.04.018

                                      AUTHORS
                                      -------
          E. Apra, E. J. Bylaska, W. A. de Jong, N. Govind, K. Kowalski,
       T. P. Straatsma, M. Valiev, H. J. J. van Dam, D. Wang, T. L. Windus,
        J. Hammond, J. Autschbach, K. Bhaskaran-Nair, J. Brabec, K. Lopata,
    S. A. Fischer, S. Krishnamoorthy, M. Jacquelin, W. Ma, M. Klemm, O. Villa,
      Y. Chen, V. Anisimov, F. Aquino, S. Hirata, M. T. Hackler, V. Konjkov,
            D. Mejia-Rodriguez, T. Risthaus, M. Malagoli, A. Marenich,
   A. Otero-de-la-Roza, J. Mullin, P. Nichols, R. Peverati, J. Pittner, Y. Zhao,
        P.-D. Fan, A. Fonari, M. J. Williamson, R. J. Harrison, J. R. Rehr,
      M. Dupuis, D. Silverstein, D. M. A. Smith, J. Nieplocha, V. Tipparaju,
    M. Krishnan, B. E. Van Kuiken, A. Vazquez-Mayagoitia, L. Jensen, M. Swart,
      Q. Wu, T. Van Voorhis, A. A. Auer, M. Nooijen, L. D. Crosby, E. Brown,
      G. Cisneros, G. I. Fann, H. Fruchtl, J. Garza, K. Hirao, R. A. Kendall,
      J. A. Nichols, K. Tsemekhman, K. Wolinski, J. Anchell, D. E. Bernholdt,
      P. Borowski, T. Clark, D. Clerc, H. Dachsel, M. J. O. Deegan, K. Dyall,
    D. Elwood, E. Glendening, M. Gutowski, A. C. Hess, J. Jaffe, B. G. Johnson,
     J. Ju, R. Kobayashi, R. Kutteh, Z. Lin, R. Littlefield, X. Long, B. Meng,
      T. Nakajima, S. Niu, L. Pollack, M. Rosing, K. Glaesemann, G. Sandrone,
      M. Stave, H. Taylor, G. Thomas, J. H. van Lenthe, A. T. Wong, Z. Zhang.

 Total times  cpu:        0.6s     wall:        0.6s
