 argument  1 = /home/list1234/source/nwchem-6.8.1-release/QA/tests/natom_iorb/natom_iorb.nw



============================== echo of input deck ==============================
echo

title "N atom UHF and ROHF"

start n_atom

geometry
N  0. 0. 0.
symmetry oh
end

basis "ao basis" spherical
  N library aug-cc-pV6Z
end

dft
 xc hfexch
 direct
 mult 4
 vectors input atomic output dft.mos
end

set quickguess t
task dft

scf
 quartet
 rohf
 direct
 vectors input dft.mos output rohf.mos
end

task scf
================================================================================


                                         
                                         


              Northwest Computational Chemistry Package (NWChem) 6.8
              ------------------------------------------------------


                    Environmental Molecular Sciences Laboratory
                       Pacific Northwest National Laboratory
                                Richland, WA 99352

                              Copyright (c) 1994-2018
                       Pacific Northwest National Laboratory
                            Battelle Memorial Institute

             NWChem is an open-source computational chemistry package
                        distributed under the terms of the
                      Educational Community License (ECL) 2.0
             A copy of the license is included with this distribution
                              in the LICENSE.TXT file

                                  ACKNOWLEDGMENT
                                  --------------

            This software and its documentation were developed at the
            EMSL at Pacific Northwest National Laboratory, a multiprogram
            national laboratory, operated for the U.S. Department of Energy
            by Battelle under Contract Number DE-AC05-76RL01830. Support
            for this work was provided by the Department of Energy Office
            of Biological and Environmental Research, Office of Basic
            Energy Sciences, and the Office of Advanced Scientific Computing.


           Job information
           ---------------

    hostname        = list1234-B360M-H
    program         = /home/list1234/source/nwchem-6.8.1-release/bin/LINUX64/nwchem
    date            = Sun Jun 30 06:09:22 2019

    compiled        = Sun_Jun_30_05:21:11_2019
    source          = /home/list1234/source/nwchem-6.8.1-release
    nwchem branch   = Development
    nwchem revision = N/A
    ga revision     = 5.6.5
    use scalapack   = T
    input           = /home/list1234/source/nwchem-6.8.1-release/QA/tests/natom_iorb/natom_iorb.nw
    prefix          = n_atom.
    data base       = ./n_atom.db
    status          = startup
    nproc           =        4
    time left       =     -1s



           Memory information
           ------------------

    heap     =   86247164 doubles =    658.0 Mbytes
    stack    =   86247169 doubles =    658.0 Mbytes
    global   =  172494336 doubles =   1316.0 Mbytes (distinct from heap & stack)
    total    =  344988669 doubles =   2632.1 Mbytes
    verify   = yes
    hardfail = no 


           Directory information
           ---------------------

  0 permanent = .
  0 scratch   = .




                                NWChem Input Module
                                -------------------


                                N atom UHF and ROHF
                                -------------------

 Scaling coordinates for geometry "geometry" by  1.889725989
 (inverse scale =  0.529177249)



                             Geometry "geometry" -> ""
                             -------------------------

 Output coordinates in angstroms (scale by  1.889725989 to convert to a.u.)

  No.       Tag          Charge          X              Y              Z
 ---- ---------------- ---------- -------------- -------------- --------------
    1 N                    7.0000     0.00000000     0.00000000     0.00000000

      Atomic Mass 
      ----------- 

      N                 14.003070


 Effective nuclear repulsion energy (a.u.)       0.0000000000

            Nuclear Dipole moment (a.u.) 
            ----------------------------
        X                 Y               Z
 ---------------- ---------------- ----------------
     0.0000000000     0.0000000000     0.0000000000

      Symmetry information
      --------------------

 Group name              Oh       
 Group number             44
 Group order              48
 No. of unique centers     1

      Symmetry unique atoms

     1


            XYZ format geometry
            -------------------
     1
 geometry
 N                     0.00000000     0.00000000     0.00000000

                      Basis "ao basis" -> "" (spherical)
                      -----
  N (Nitrogen)
  ------------
            Exponent  Coefficients 
       -------------- ---------------------------------------------------------
  1 S  4.32300000E+05  0.000006
  1 S  6.47000000E+04  0.000044
  1 S  1.47200000E+04  0.000229
  1 S  4.17000000E+03  0.000965
  1 S  1.36100000E+03  0.003502
  1 S  4.91200000E+02  0.011292
  1 S  1.91600000E+02  0.032613
  1 S  7.94100000E+01  0.083297
  1 S  3.45300000E+01  0.179986
  1 S  1.55800000E+01  0.305004
  1 S  7.23200000E+00  0.341159

  2 S  4.32300000E+05 -0.000001
  2 S  6.47000000E+04 -0.000010
  2 S  1.47200000E+04 -0.000051
  2 S  4.17000000E+03 -0.000213
  2 S  1.36100000E+03 -0.000775
  2 S  4.91200000E+02 -0.002506
  2 S  1.91600000E+02 -0.007365
  2 S  7.94100000E+01 -0.019302
  2 S  3.45300000E+01 -0.044717
  2 S  1.55800000E+01 -0.086066
  2 S  7.23200000E+00 -0.133296

  3 S  3.38200000E+00  1.000000

  4 S  1.36900000E+00  1.000000

  5 S  6.24800000E-01  1.000000

  6 S  2.74700000E-01  1.000000

  7 S  1.19200000E-01  1.000000

  8 S  4.71400000E-02  1.000000

  9 P  4.15900000E+02  0.000148
  9 P  9.86100000E+01  0.001276
  9 P  3.19200000E+01  0.006702
  9 P  1.20000000E+01  0.025262
  9 P  4.91900000E+00  0.075189

 10 P  2.14800000E+00  1.000000

 11 P  9.69600000E-01  1.000000

 12 P  4.39900000E-01  1.000000

 13 P  1.97800000E-01  1.000000

 14 P  8.60300000E-02  1.000000

 15 P  3.15000000E-02  1.000000

 16 D  6.71700000E+00  1.000000

 17 D  2.89600000E+00  1.000000

 18 D  1.24900000E+00  1.000000

 19 D  5.38000000E-01  1.000000

 20 D  2.32000000E-01  1.000000

 21 D  8.74000000E-02  1.000000

 22 F  3.82900000E+00  1.000000

 23 F  1.79500000E+00  1.000000

 24 F  8.41000000E-01  1.000000

 25 F  3.94000000E-01  1.000000

 26 F  1.51000000E-01  1.000000

 27 G  3.85600000E+00  1.000000

 28 G  1.70200000E+00  1.000000

 29 G  7.51000000E-01  1.000000

 30 G  3.26000000E-01  1.000000

 31 H  2.87500000E+00  1.000000

 32 H  1.17000000E+00  1.000000

 33 H  5.87000000E-01  1.000000

 34 I  2.09900000E+00  1.000000

 35 I  1.04100000E+00  1.000000



 Summary of "ao basis" -> "" (spherical)
 ------------------------------------------------------------------------------
       Tag                 Description            Shells   Functions and Types
 ---------------- ------------------------------  ------  ---------------------
 N                        aug-cc-pV6Z               35      189   8s7p6d5f4g3h2i


  xc_inp: hfexch multiplicative factor not found.

                                 NWChem DFT Module
                                 -----------------


                                N atom UHF and ROHF




 Summary of "ao basis" -> "ao basis" (spherical)
 ------------------------------------------------------------------------------
       Tag                 Description            Shells   Functions and Types
 ---------------- ------------------------------  ------  ---------------------
 N                        aug-cc-pV6Z               35      189   8s7p6d5f4g3h2i


      Symmetry analysis of basis
      --------------------------

        a1g        14
        a1u         0
        a2g         2
        a2u         5
        eg         24
        eu          6
        t1g        18
        t1u        54
        t2g        42
        t2u        24

  Caching 1-el integrals 

            General Information
            -------------------
          SCF calculation type: DFT
          Wavefunction type:  spin polarized.
          No. of atoms     :     1
          No. of electrons :     7
           Alpha electrons :     5
            Beta electrons :     2
          Charge           :     0
          Spin multiplicity:     4
          Use of symmetry is: on ; symmetry adaption is: on 
          Maximum number of iterations:  30
          This is a Direct SCF calculation.
          AO basis - number of functions:   189
                     number of shells:    35
          Convergence on energy requested:  1.00D-06
          Convergence on density requested:  1.00D-05
          Convergence on gradient requested:  5.00D-04

              XC Information
              --------------
                     Hartree-Fock (Exact) Exchange  1.000          

          Convergence Information
          -----------------------
          Convergence aids based upon iterative change in 
          total energy or number of iterations. 
          Levelshifting, if invoked, occurs when the 
          HOMO/LUMO gap drops below (HL_TOL):  1.00D-02
          DIIS, if invoked, will attempt to extrapolate 
          using up to (NFOCK): 10 stored Fock matrices.

                    Damping( 0%)  Levelshifting(0.5)       DIIS
                  --------------- ------------------- ---------------
          dE  on:    start            ASAP                start   
          dE off:    2 iters         30 iters            30 iters 


      Screening Tolerance Information
      -------------------------------
          Density screening/tol_rho:  1.00D-10
          AO Gaussian exp screening on grid/accAOfunc:  14
          CD Gaussian exp screening on grid/accCDfunc:  20
          XC Gaussian exp screening on grid/accXCfunc:  20
          Schwarz screening/accCoul:  1.00D-08


      Superposition of Atomic Density Guess
      -------------------------------------

 Sum of atomic energies:         -54.31339803
   Time after variat. SCF:      2.6
   Time prior to 1st pass:      2.6

 !! scf_movecs_sym_adapt:  154 vectors were symmetry contaminated

  Symmetry fudging

 !! scf_movecs_sym_adapt:  151 vectors were symmetry contaminated


 !! scf_movecs_sym_adapt:  148 vectors were symmetry contaminated

  Symmetry fudging

 !! scf_movecs_sym_adapt:  145 vectors were symmetry contaminated


           Memory utilization after 1st SCF pass: 
           Heap Space remaining (MW):       86.24            86240124
          Stack Space remaining (MW):       86.25            86245620

   convergence    iter        energy       DeltaE   RMS-Dens  Diis-err    time
 ---------------- ----- ----------------- --------- --------- ---------  ------
 d= 0,ls=0.0,diis     1    -54.9327221607 -5.49D+01  2.00D-03  1.22D+00     5.7
                                                     1.98D-03  2.09D-01

 !! scf_movecs_sym_adapt:  146 vectors were symmetry contaminated

  Symmetry fudging

 !! scf_movecs_sym_adapt:  115 vectors were symmetry contaminated


 !! scf_movecs_sym_adapt:  146 vectors were symmetry contaminated

  Symmetry fudging

 !! scf_movecs_sym_adapt:  135 vectors were symmetry contaminated

 d= 0,ls=0.0,diis     2    -54.3804482103  5.52D-01  2.41D-04  4.40D-01     8.9
                                                     1.98D-04  5.37D-01

 !! scf_movecs_sym_adapt:  142 vectors were symmetry contaminated

  Symmetry fudging

 !! scf_movecs_sym_adapt:  126 vectors were symmetry contaminated


 !! scf_movecs_sym_adapt:  150 vectors were symmetry contaminated

  Symmetry fudging

 !! scf_movecs_sym_adapt:  145 vectors were symmetry contaminated

 d= 0,ls=0.0,diis     3    -54.3982003292 -1.78D-02  2.23D-04  1.32D-01    12.1
                                                     1.66D-04  1.38D-01

 !! scf_movecs_sym_adapt:  154 vectors were symmetry contaminated

  Symmetry fudging

 !! scf_movecs_sym_adapt:  135 vectors were symmetry contaminated


 !! scf_movecs_sym_adapt:  149 vectors were symmetry contaminated

  Symmetry fudging

 !! scf_movecs_sym_adapt:  143 vectors were symmetry contaminated

 d= 0,ls=0.0,diis     4    -54.4042588596 -6.06D-03  5.07D-05  4.71D-03    15.4
                                                     4.12D-05  5.15D-03

 !! scf_movecs_sym_adapt:  152 vectors were symmetry contaminated

  Symmetry fudging

 !! scf_movecs_sym_adapt:  127 vectors were symmetry contaminated


 !! scf_movecs_sym_adapt:  150 vectors were symmetry contaminated

  Symmetry fudging

 !! scf_movecs_sym_adapt:  146 vectors were symmetry contaminated

 d= 0,ls=0.0,diis     5    -54.4045325521 -2.74D-04  1.02D-05  8.26D-05    18.6
                                                     6.25D-06  7.05D-05

 !! scf_movecs_sym_adapt:  152 vectors were symmetry contaminated

  Symmetry fudging

 !! scf_movecs_sym_adapt:  142 vectors were symmetry contaminated


 !! scf_movecs_sym_adapt:  149 vectors were symmetry contaminated

  Symmetry fudging

 !! scf_movecs_sym_adapt:  144 vectors were symmetry contaminated

  Resetting Diis
 d= 0,ls=0.0,diis     6    -54.4045376866 -5.13D-06  1.00D-06  5.81D-08    21.9
                                                     6.52D-07  3.10D-08

 !! scf_movecs_sym_adapt:  150 vectors were symmetry contaminated

  Symmetry fudging

 !! scf_movecs_sym_adapt:  145 vectors were symmetry contaminated


 !! scf_movecs_sym_adapt:  150 vectors were symmetry contaminated

  Symmetry fudging

 !! scf_movecs_sym_adapt:  135 vectors were symmetry contaminated

 d= 0,ls=0.0,diis     7    -54.4045377107 -2.41D-08  6.31D-08  1.40D-09    25.1
                                                     1.68D-07  3.56D-09


         Total DFT energy =      -54.404537710698
      One electron energy =      -73.955880829266
           Coulomb energy =       26.158009601241
    Exchange-Corr. energy =       -6.606666482673
 Nuclear repulsion energy =        0.000000000000

 Numeric. integr. density =        0.000000000000

     Total iterative time =     22.5s



                  Occupations of the irreducible representations
                  ----------------------------------------------

                     irrep           alpha         beta
                     --------     --------     --------
                     a1g               2.0          2.0
                     a1u               0.0          0.0
                     a2g               0.0          0.0
                     a2u               0.0          0.0
                     eg                0.0          0.0
                     eu                0.0          0.0
                     t1g               0.0          0.0
                     t1u               3.0          0.0
                     t2g               0.0          0.0
                     t2u               0.0          0.0


                    DFT Final Alpha Molecular Orbital Analysis
                    ------------------------------------------

 Vector    1  Occ=1.000000D+00  E=-1.567068D+01  Symmetry=a1g
              MO Center=  5.4D-24,  6.7D-24,  1.3D-24, r^2= 2.0D-02
   Bfn.  Coefficient  Atom+Function         Bfn.  Coefficient  Atom+Function  
  ----- ------------  ---------------      ----- ------------  ---------------
     1      0.854656  1 N  s                  3      0.178703  1 N  s          

 Vector    2  Occ=1.000000D+00  E=-1.162971D+00  Symmetry=a1g
              MO Center= -7.8D-40, -9.8D-40, -1.9D-40, r^2= 5.6D-01
   Bfn.  Coefficient  Atom+Function         Bfn.  Coefficient  Atom+Function  
  ----- ------------  ---------------      ----- ------------  ---------------
     5      0.474607  1 N  s                  6      0.444798  1 N  s          
     2      0.273332  1 N  s                  4      0.141201  1 N  s          
     3     -0.112280  1 N  s                  7      0.094490  1 N  s          

 Vector    3  Occ=1.000000D+00  E=-5.709266D-01  Symmetry=t1u
              MO Center= -3.2D-16, -7.6D-16, -4.3D-16, r^2= 7.0D-01
   Bfn.  Coefficient  Atom+Function         Bfn.  Coefficient  Atom+Function  
  ----- ------------  ---------------      ----- ------------  ---------------
    19      0.282561  1 N  py                16      0.239880  1 N  py         
    22      0.204381  1 N  py                20      0.169765  1 N  pz         
    17      0.144122  1 N  pz                13      0.141859  1 N  py         
    23      0.122794  1 N  pz                18      0.113826  1 N  px         
    15      0.096633  1 N  px                14      0.085230  1 N  pz         

 Vector    4  Occ=1.000000D+00  E=-5.709266D-01  Symmetry=t1u
              MO Center=  9.2D-18,  2.9D-16,  1.1D-15, r^2= 7.0D-01
   Bfn.  Coefficient  Atom+Function         Bfn.  Coefficient  Atom+Function  
  ----- ------------  ---------------      ----- ------------  ---------------
    20      0.299842  1 N  pz                17      0.254551  1 N  pz         
    23      0.216881  1 N  pz                19     -0.177998  1 N  py         
    14      0.150536  1 N  pz                16     -0.151111  1 N  py         
    22     -0.128749  1 N  py                13     -0.089364  1 N  py         
    11      0.086474  1 N  pz                26      0.057125  1 N  pz         

 Vector    5  Occ=1.000000D+00  E=-5.709266D-01  Symmetry=t1u
              MO Center=  1.1D-17,  6.2D-18,  6.9D-17, r^2= 7.0D-01
   Bfn.  Coefficient  Atom+Function         Bfn.  Coefficient  Atom+Function  
  ----- ------------  ---------------      ----- ------------  ---------------
    18      0.329594  1 N  px                15      0.279809  1 N  px         
    21      0.238401  1 N  px                12      0.165472  1 N  px         
    19     -0.100466  1 N  py                 9      0.095054  1 N  px         
    16     -0.085291  1 N  py                22     -0.072669  1 N  py         
    24      0.062794  1 N  px                20     -0.053773  1 N  pz         

 Vector    6  Occ=0.000000D+00  E= 7.243399D-02  Symmetry=t1u
              MO Center=  1.5D-14, -9.1D-15,  2.8D-14, r^2= 1.5D+01
   Bfn.  Coefficient  Atom+Function         Bfn.  Coefficient  Atom+Function  
  ----- ------------  ---------------      ----- ------------  ---------------
    27      1.048843  1 N  px                29      0.632803  1 N  pz         
    28     -0.597859  1 N  py                24     -0.525066  1 N  px         
    26     -0.316790  1 N  pz                25      0.299297  1 N  py         
    21      0.213845  1 N  px                18     -0.139459  1 N  px         
    23      0.129020  1 N  pz                22     -0.121896  1 N  py         

 Vector    7  Occ=0.000000D+00  E= 7.243399D-02  Symmetry=t1u
              MO Center=  2.5D-15,  5.7D-16,  7.3D-16, r^2= 1.5D+01
   Bfn.  Coefficient  Atom+Function         Bfn.  Coefficient  Atom+Function  
  ----- ------------  ---------------      ----- ------------  ---------------
    28      1.027849  1 N  py                29      0.894042  1 N  pz         
    25     -0.514556  1 N  py                26     -0.447570  1 N  pz         
    22      0.209565  1 N  py                23      0.182284  1 N  pz         
    19     -0.136667  1 N  py                20     -0.118876  1 N  pz         
    27      0.046486  1 N  px                13     -0.027123  1 N  py         

 Vector    8  Occ=0.000000D+00  E= 7.243399D-02  Symmetry=t1u
              MO Center=  2.2D-28,  1.7D-28, -2.1D-28, r^2= 1.5D+01
   Bfn.  Coefficient  Atom+Function         Bfn.  Coefficient  Atom+Function  
  ----- ------------  ---------------      ----- ------------  ---------------
    27      0.869318  1 N  px                29     -0.811293  1 N  pz         
    28      0.666361  1 N  py                24     -0.435193  1 N  px         
    26      0.406145  1 N  pz                25     -0.333590  1 N  py         
    21      0.177243  1 N  px                23     -0.165412  1 N  pz         
    22      0.135862  1 N  py                18     -0.115588  1 N  px         

 Vector    9  Occ=0.000000D+00  E= 8.106155D-02  Symmetry=a1g
              MO Center= -2.6D-14,  1.6D-14, -1.4D-14, r^2= 8.0D+00
   Bfn.  Coefficient  Atom+Function         Bfn.  Coefficient  Atom+Function  
  ----- ------------  ---------------      ----- ------------  ---------------
     8      1.931700  1 N  s                  7     -1.609850  1 N  s          
     6      0.633596  1 N  s                  5     -0.439862  1 N  s          
     4      0.096388  1 N  s                  2     -0.082638  1 N  s          
     1     -0.026787  1 N  s          

 Vector   10  Occ=0.000000D+00  E= 2.644200D-01  Symmetry=t2g
              MO Center= -1.3D-15,  8.8D-16,  1.8D-16, r^2= 6.4D+00
   Bfn.  Coefficient  Atom+Function         Bfn.  Coefficient  Atom+Function  
  ----- ------------  ---------------      ----- ------------  ---------------
    55      1.102124  1 N  d -2              50     -0.332965  1 N  d -2       
    56     -0.296544  1 N  d -1              58      0.297549  1 N  d  1       
    45      0.163033  1 N  d -2              51      0.089589  1 N  d -1       
    53     -0.089893  1 N  d  1              40     -0.047051  1 N  d -2       
    46     -0.043866  1 N  d -1              48      0.044015  1 N  d  1       

 Vector   11  Occ=0.000000D+00  E= 2.644200D-01  Symmetry=eg
              MO Center= -2.5D-15, -8.7D-16, -1.9D-14, r^2= 6.4D+00
   Bfn.  Coefficient  Atom+Function         Bfn.  Coefficient  Atom+Function  
  ----- ------------  ---------------      ----- ------------  ---------------
    57      1.179471  1 N  d  0              52     -0.356332  1 N  d  0       
    47      0.174474  1 N  d  0              42     -0.050353  1 N  d  0       

 Vector   12  Occ=0.000000D+00  E= 2.644200D-01  Symmetry=t2g
              MO Center= -2.1D-15, -1.3D-15, -1.6D-15, r^2= 6.4D+00
   Bfn.  Coefficient  Atom+Function         Bfn.  Coefficient  Atom+Function  
  ----- ------------  ---------------      ----- ------------  ---------------
    56      0.811096  1 N  d -1              58     -0.746383  1 N  d  1       
    55      0.419745  1 N  d -2              51     -0.245042  1 N  d -1       
    53      0.225491  1 N  d  1              50     -0.126810  1 N  d -2       
    46      0.119982  1 N  d -1              48     -0.110409  1 N  d  1       
    45      0.062091  1 N  d -2              41     -0.034627  1 N  d -1       

 Vector   13  Occ=0.000000D+00  E= 2.644200D-01  Symmetry=t2g
              MO Center=  3.8D-16, -3.4D-16, -2.9D-17, r^2= 6.4D+00
   Bfn.  Coefficient  Atom+Function         Bfn.  Coefficient  Atom+Function  
  ----- ------------  ---------------      ----- ------------  ---------------
    58      0.863439  1 N  d  1              56      0.803328  1 N  d -1       
    53     -0.260855  1 N  d  1              51     -0.242695  1 N  d -1       
    48      0.127725  1 N  d  1              46      0.118833  1 N  d -1       
    43     -0.036861  1 N  d  1              41     -0.034295  1 N  d -1       

 Vector   14  Occ=0.000000D+00  E= 2.644200D-01  Symmetry=eg
              MO Center=  9.2D-18, -3.9D-16, -3.2D-25, r^2= 6.4D+00
   Bfn.  Coefficient  Atom+Function         Bfn.  Coefficient  Atom+Function  
  ----- ------------  ---------------      ----- ------------  ---------------
    59      1.179471  1 N  d  2              54     -0.356332  1 N  d  2       
    49      0.174474  1 N  d  2              44     -0.050353  1 N  d  2       

 Vector   15  Occ=0.000000D+00  E= 3.067549D-01  Symmetry=t1u
              MO Center=  8.8D-15,  3.1D-16,  1.7D-14, r^2= 8.2D+00
   Bfn.  Coefficient  Atom+Function         Bfn.  Coefficient  Atom+Function  
  ----- ------------  ---------------      ----- ------------  ---------------
    24      1.828930  1 N  px                26     -1.778777  1 N  pz         
    21     -1.024171  1 N  px                23      0.996086  1 N  pz         
    27     -0.795789  1 N  px                29      0.773967  1 N  pz         
    18      0.274491  1 N  px                20     -0.266964  1 N  pz         
    15     -0.212059  1 N  px                17      0.206244  1 N  pz         

 Vector   16  Occ=0.000000D+00  E= 3.067549D-01  Symmetry=t1u
              MO Center=  1.7D-16,  2.4D-16, -3.6D-16, r^2= 8.2D+00
   Bfn.  Coefficient  Atom+Function         Bfn.  Coefficient  Atom+Function  
  ----- ------------  ---------------      ----- ------------  ---------------
    25      1.805127  1 N  py                26      1.325060  1 N  pz         
    24      1.224345  1 N  px                22     -1.010841  1 N  py         
    28     -0.785432  1 N  py                23     -0.742012  1 N  pz         
    21     -0.685613  1 N  px                29     -0.576549  1 N  pz         
    27     -0.532727  1 N  px                19      0.270918  1 N  py         

 Vector   17  Occ=0.000000D+00  E= 3.067549D-01  Symmetry=t1u
              MO Center=  4.9D-15, -6.9D-15, -9.6D-15, r^2= 8.2D+00
   Bfn.  Coefficient  Atom+Function         Bfn.  Coefficient  Atom+Function  
  ----- ------------  ---------------      ----- ------------  ---------------
    25      1.802928  1 N  py                24     -1.292007  1 N  px         
    26     -1.262321  1 N  pz                22     -1.009610  1 N  py         
    28     -0.784475  1 N  py                21      0.723503  1 N  px         
    23      0.706879  1 N  pz                27      0.562167  1 N  px         
    29      0.549251  1 N  pz                19      0.270588  1 N  py         

 Vector   18  Occ=0.000000D+00  E= 4.435292D-01  Symmetry=a1g
              MO Center=  6.8D-16,  5.1D-16,  7.3D-16, r^2= 5.3D+00
   Bfn.  Coefficient  Atom+Function         Bfn.  Coefficient  Atom+Function  
  ----- ------------  ---------------      ----- ------------  ---------------
     7      4.776487  1 N  s                  6     -3.581016  1 N  s          
     8     -1.949468  1 N  s                  5      1.063029  1 N  s          
     4     -0.546880  1 N  s                  3      0.173985  1 N  s          
     1      0.081960  1 N  s          

 Vector   19  Occ=0.000000D+00  E= 6.156973D-01  Symmetry=t1u
              MO Center=  4.8D-16,  9.2D-17,  2.2D-16, r^2= 4.7D+00
   Bfn.  Coefficient  Atom+Function         Bfn.  Coefficient  Atom+Function  
  ----- ------------  ---------------      ----- ------------  ---------------
    94      0.880201  1 N  f  3              92     -0.681801  1 N  f  1       
    87     -0.266630  1 N  f  3              91      0.256534  1 N  f  0       
    85      0.206531  1 N  f  1              88      0.168196  1 N  f -3       
    90      0.130284  1 N  f -1              80      0.122717  1 N  f  3       
    78     -0.095057  1 N  f  1              84     -0.077709  1 N  f  0       

 Vector   20  Occ=0.000000D+00  E= 6.156973D-01  Symmetry=t1u
              MO Center=  1.8D-16, -1.8D-16, -1.3D-15, r^2= 4.7D+00
   Bfn.  Coefficient  Atom+Function         Bfn.  Coefficient  Atom+Function  
  ----- ------------  ---------------      ----- ------------  ---------------
    91      1.078729  1 N  f  0              84     -0.326767  1 N  f  0       
    94     -0.242542  1 N  f  3              88      0.240965  1 N  f -3       
    92      0.187872  1 N  f  1              90      0.186651  1 N  f -1       
    77      0.150396  1 N  f  0              87      0.073471  1 N  f  3       
    81     -0.072993  1 N  f -3              85     -0.056910  1 N  f  1       

 Vector   21  Occ=0.000000D+00  E= 6.156973D-01  Symmetry=t2u
              MO Center= -6.9D-16,  5.7D-16,  3.8D-25, r^2= 4.7D+00
   Bfn.  Coefficient  Atom+Function         Bfn.  Coefficient  Atom+Function  
  ----- ------------  ---------------      ----- ------------  ---------------
    92      0.633251  1 N  f  1              90      0.524454  1 N  f -1       
    93      0.518638  1 N  f  2              94      0.490514  1 N  f  3       
    88     -0.406240  1 N  f -3              85     -0.191824  1 N  f  1       
    83     -0.158867  1 N  f -1              86     -0.157105  1 N  f  2       
    87     -0.148586  1 N  f  3              81      0.123058  1 N  f -3       

 Vector   22  Occ=0.000000D+00  E= 6.156973D-01  Symmetry=t1u
              MO Center= -1.0D-16,  8.6D-16, -5.4D-16, r^2= 4.7D+00
   Bfn.  Coefficient  Atom+Function         Bfn.  Coefficient  Atom+Function  
  ----- ------------  ---------------      ----- ------------  ---------------
    88      0.870529  1 N  f -3              90      0.674309  1 N  f -1       
    91     -0.348160  1 N  f  0              81     -0.263700  1 N  f -3       
    83     -0.204261  1 N  f -1              74      0.121369  1 N  f -3       
    84      0.105464  1 N  f  0              94     -0.102928  1 N  f  3       
    76      0.094012  1 N  f -1              92      0.079728  1 N  f  1       

 Vector   23  Occ=0.000000D+00  E= 6.156973D-01  Symmetry=t2u
              MO Center= -2.6D-16, -3.4D-16,  2.1D-26, r^2= 4.7D+00
   Bfn.  Coefficient  Atom+Function         Bfn.  Coefficient  Atom+Function  
  ----- ------------  ---------------      ----- ------------  ---------------
    90      0.723268  1 N  f -1              92     -0.564041  1 N  f  1       
    88     -0.560241  1 N  f -3              94     -0.436904  1 N  f  3       
    83     -0.219092  1 N  f -1              85      0.170859  1 N  f  1       
    81      0.169708  1 N  f -3              87      0.132347  1 N  f  3       
    76      0.100838  1 N  f -1              78     -0.078638  1 N  f  1       

 Vector   24  Occ=0.000000D+00  E= 6.156973D-01  Symmetry=t2u
              MO Center= -1.8D-16,  1.1D-16, -3.6D-25, r^2= 4.7D+00
   Bfn.  Coefficient  Atom+Function         Bfn.  Coefficient  Atom+Function  
  ----- ------------  ---------------      ----- ------------  ---------------
    93      1.037800  1 N  f  2              92     -0.353590  1 N  f  1       
    86     -0.314370  1 N  f  2              94     -0.273890  1 N  f  3       
    90     -0.214490  1 N  f -1              88      0.166143  1 N  f -3       
    79      0.144690  1 N  f  2              85      0.107109  1 N  f  1       
    87      0.082966  1 N  f  3              83      0.064973  1 N  f -1       

 Vector   25  Occ=0.000000D+00  E= 6.156973D-01  Symmetry=a2u
              MO Center=  1.1D-30, -4.0D-31, -1.7D-30, r^2= 4.7D+00
   Bfn.  Coefficient  Atom+Function         Bfn.  Coefficient  Atom+Function  
  ----- ------------  ---------------      ----- ------------  ---------------
    89      1.162188  1 N  f -2              82     -0.352049  1 N  f -2       
    75      0.162032  1 N  f -2              68     -0.055128  1 N  f -2       

 Vector   26  Occ=0.000000D+00  E= 8.034595D-01  Symmetry=t2g
              MO Center=  2.7D-17, -4.5D-17, -8.2D-17, r^2= 3.2D+00
   Bfn.  Coefficient  Atom+Function         Bfn.  Coefficient  Atom+Function  
  ----- ------------  ---------------      ----- ------------  ---------------
    51      1.412766  1 N  d -1              53      0.770330  1 N  d  1       
    56     -0.724536  1 N  d -1              58     -0.395063  1 N  d  1       
    46     -0.348351  1 N  d -1              50     -0.234700  1 N  d -2       
    48     -0.189943  1 N  d  1              41      0.174230  1 N  d -1       
    55      0.120366  1 N  d -2              43      0.095001  1 N  d  1       

 Vector   27  Occ=0.000000D+00  E= 8.034595D-01  Symmetry=t2g
              MO Center= -1.5D-16,  6.8D-18, -2.8D-17, r^2= 3.2D+00
   Bfn.  Coefficient  Atom+Function         Bfn.  Coefficient  Atom+Function  
  ----- ------------  ---------------      ----- ------------  ---------------
    50      1.404357  1 N  d -2              55     -0.720223  1 N  d -2       
    53     -0.598931  1 N  d  1              51      0.559878  1 N  d -1       
    45     -0.346277  1 N  d -2              58      0.307161  1 N  d  1       
    56     -0.287133  1 N  d -1              40      0.173193  1 N  d -2       
    48      0.147680  1 N  d  1              46     -0.138051  1 N  d -1       

 Vector   28  Occ=0.000000D+00  E= 8.034595D-01  Symmetry=t2g
              MO Center=  2.9D-18,  9.8D-19,  1.0D-17, r^2= 3.2D+00
   Bfn.  Coefficient  Atom+Function         Bfn.  Coefficient  Atom+Function  
  ----- ------------  ---------------      ----- ------------  ---------------
    53      1.300874  1 N  d  1              50      0.785556  1 N  d -2       
    58     -0.667153  1 N  d  1              51     -0.578816  1 N  d -1       
    55     -0.402872  1 N  d -2              48     -0.320761  1 N  d  1       
    56      0.296846  1 N  d -1              45     -0.193697  1 N  d -2       
    43      0.160431  1 N  d  1              46      0.142721  1 N  d -1       

 Vector   29  Occ=0.000000D+00  E= 8.034595D-01  Symmetry=eg
              MO Center= -5.8D-17, -2.4D-16,  4.6D-16, r^2= 3.2D+00
   Bfn.  Coefficient  Atom+Function         Bfn.  Coefficient  Atom+Function  
  ----- ------------  ---------------      ----- ------------  ---------------
    52      1.626161  1 N  d  0              57     -0.833976  1 N  d  0       
    47     -0.400968  1 N  d  0              42      0.200547  1 N  d  0       
    37     -0.044655  1 N  d  0       

 Vector   30  Occ=0.000000D+00  E= 8.034595D-01  Symmetry=eg
              MO Center=  9.3D-18, -7.4D-17,  3.3D-28, r^2= 3.2D+00
   Bfn.  Coefficient  Atom+Function         Bfn.  Coefficient  Atom+Function  
  ----- ------------  ---------------      ----- ------------  ---------------
    54      1.626161  1 N  d  2              59     -0.833976  1 N  d  2       
    49     -0.400968  1 N  d  2              44      0.200547  1 N  d  2       
    39     -0.044655  1 N  d  2       

 Vector   31  Occ=0.000000D+00  E= 9.374977D-01  Symmetry=t1u
              MO Center=  1.2D-20, -1.6D-20, -2.6D-20, r^2= 4.1D+00
   Bfn.  Coefficient  Atom+Function         Bfn.  Coefficient  Atom+Function  
  ----- ------------  ---------------      ----- ------------  ---------------
    22      2.563099  1 N  py                23     -1.959082  1 N  pz         
    21     -1.898339  1 N  px                25     -1.630816  1 N  py         
    19     -1.418156  1 N  py                26      1.246500  1 N  pz         
    24      1.207851  1 N  px                20      1.083955  1 N  pz         
    18      1.050346  1 N  px                28      0.447516  1 N  py         

 Vector   32  Occ=0.000000D+00  E= 9.374977D-01  Symmetry=t1u
              MO Center=  6.0D-19, -9.5D-19, -7.5D-19, r^2= 4.1D+00
   Bfn.  Coefficient  Atom+Function         Bfn.  Coefficient  Atom+Function  
  ----- ------------  ---------------      ----- ------------  ---------------
    21      3.220542  1 N  px                24     -2.049125  1 N  px         
    18     -1.781918  1 N  px                22      1.638566  1 N  py         
    25     -1.042566  1 N  py                23     -0.976924  1 N  pz         
    19     -0.906615  1 N  py                26      0.621585  1 N  pz         
    27      0.562306  1 N  px                20      0.540530  1 N  pz         

 Vector   33  Occ=0.000000D+00  E= 9.374977D-01  Symmetry=t1u
              MO Center= -1.1D-18,  1.3D-17, -3.6D-17, r^2= 4.1D+00
   Bfn.  Coefficient  Atom+Function         Bfn.  Coefficient  Atom+Function  
  ----- ------------  ---------------      ----- ------------  ---------------
    23      3.036245  1 N  pz                22      2.181008  1 N  py         
    26     -1.931864  1 N  pz                20     -1.679947  1 N  pz         
    25     -1.387704  1 N  py                19     -1.206746  1 N  py         
    29      0.530128  1 N  pz                28      0.380803  1 N  py         
    17      0.285115  1 N  pz                14     -0.236095  1 N  pz         

 Vector   34  Occ=0.000000D+00  E= 1.561581D+00  Symmetry=a1g
              MO Center=  3.3D-18,  1.9D-16, -1.9D-18, r^2= 2.6D+00
   Bfn.  Coefficient  Atom+Function         Bfn.  Coefficient  Atom+Function  
  ----- ------------  ---------------      ----- ------------  ---------------
     6      7.403536  1 N  s                  5     -5.560802  1 N  s          
     7     -4.453028  1 N  s                  4      1.492312  1 N  s          
     8      1.189205  1 N  s                  2     -0.615909  1 N  s          
     1     -0.314026  1 N  s                  3     -0.296724  1 N  s          

 Vector   35  Occ=0.000000D+00  E= 1.629430D+00  Symmetry=t1g
              MO Center=  2.4D-31,  3.8D-31, -7.4D-32, r^2= 2.7D+00
   Bfn.  Coefficient  Atom+Function         Bfn.  Coefficient  Atom+Function  
  ----- ------------  ---------------      ----- ------------  ---------------
   125      0.878238  1 N  g -1             127     -0.587400  1 N  g  1       
   123      0.331943  1 N  g -3             122      0.306519  1 N  g -4       
   116     -0.250475  1 N  g -1             129      0.222016  1 N  g  3       
   118      0.167528  1 N  g  1             114     -0.094671  1 N  g -3       
   113     -0.087420  1 N  g -4             107      0.076513  1 N  g -1       

 Vector   36  Occ=0.000000D+00  E= 1.629430D+00  Symmetry=t1g
              MO Center= -9.3D-32,  2.6D-31, -3.5D-33, r^2= 2.7D+00
   Bfn.  Coefficient  Atom+Function         Bfn.  Coefficient  Atom+Function  
  ----- ------------  ---------------      ----- ------------  ---------------
   122      1.086119  1 N  g -4             125     -0.396270  1 N  g -1       
   113     -0.309763  1 N  g -4             123     -0.149776  1 N  g -3       
   116      0.113017  1 N  g -1             127     -0.096558  1 N  g  1       
   104      0.094624  1 N  g -4             114      0.042716  1 N  g -3       
   129      0.036496  1 N  g  3             107     -0.034524  1 N  g -1       

 Vector   37  Occ=0.000000D+00  E= 1.629430D+00  Symmetry=t2g
              MO Center= -1.4D-31,  1.2D-31,  2.1D-31, r^2= 2.7D+00
   Bfn.  Coefficient  Atom+Function         Bfn.  Coefficient  Atom+Function  
  ----- ------------  ---------------      ----- ------------  ---------------
   129      0.916279  1 N  g  3             124      0.484640  1 N  g -2       
   123     -0.391748  1 N  g -3             127      0.346321  1 N  g  1       
   120     -0.261325  1 N  g  3             125      0.148067  1 N  g -1       
   115     -0.138220  1 N  g -2             114      0.111727  1 N  g -3       
   118     -0.098771  1 N  g  1             111      0.079827  1 N  g  3       

 Vector   38  Occ=0.000000D+00  E= 1.629430D+00  Symmetry=eg
              MO Center=  9.5D-32,  5.5D-31, -5.8D-32, r^2= 2.7D+00
   Bfn.  Coefficient  Atom+Function         Bfn.  Coefficient  Atom+Function  
  ----- ------------  ---------------      ----- ------------  ---------------
   128      1.170341  1 N  g  2             119     -0.333783  1 N  g  2       
   110      0.101961  1 N  g  2       

 Vector   39  Occ=0.000000D+00  E= 1.629430D+00  Symmetry=t1g
              MO Center= -1.7D-32, -1.9D-33,  1.0D-31, r^2= 2.7D+00
   Bfn.  Coefficient  Atom+Function         Bfn.  Coefficient  Atom+Function  
  ----- ------------  ---------------      ----- ------------  ---------------
   127      0.918797  1 N  g  1             125      0.519825  1 N  g -1       
   129     -0.347273  1 N  g  3             122      0.310104  1 N  g -4       
   118     -0.262043  1 N  g  1             123      0.196475  1 N  g -3       
   116     -0.148255  1 N  g -1             120      0.099043  1 N  g  3       
   113     -0.088442  1 N  g -4             109      0.080047  1 N  g  1       

 Vector   40  Occ=0.000000D+00  E= 1.629430D+00  Symmetry=t2g
              MO Center=  1.5D-29, -1.2D-29,  1.9D-29, r^2= 2.7D+00
   Bfn.  Coefficient  Atom+Function         Bfn.  Coefficient  Atom+Function  
  ----- ------------  ---------------      ----- ------------  ---------------
   124      0.856748  1 N  g -2             123      0.741603  1 N  g -3       
   125     -0.280300  1 N  g -1             115     -0.244346  1 N  g -2       
   114     -0.211507  1 N  g -3             116      0.079942  1 N  g -1       
   129     -0.079442  1 N  g  3             106      0.074641  1 N  g -2       
   105      0.064609  1 N  g -3             127     -0.030026  1 N  g  1       

 Vector   41  Occ=0.000000D+00  E= 1.629430D+00  Symmetry=eg
              MO Center= -3.7D-31,  7.2D-31,  3.7D-30, r^2= 2.7D+00
   Bfn.  Coefficient  Atom+Function         Bfn.  Coefficient  Atom+Function  
  ----- ------------  ---------------      ----- ------------  ---------------
   130      0.893863  1 N  g  4             126     -0.755452  1 N  g  0       
   121     -0.254931  1 N  g  4             117      0.215456  1 N  g  0       
   112      0.077874  1 N  g  4             108     -0.065816  1 N  g  0       

 Vector   42  Occ=0.000000D+00  E= 1.629430D+00  Symmetry=t2g
              MO Center=  4.0D-30,  4.6D-30, -5.3D-31, r^2= 2.7D+00
   Bfn.  Coefficient  Atom+Function         Bfn.  Coefficient  Atom+Function  
  ----- ------------  ---------------      ----- ------------  ---------------
   123      0.703640  1 N  g -3             124     -0.633150  1 N  g -2       
   129      0.593862  1 N  g  3             125     -0.265951  1 N  g -1       
   127      0.224459  1 N  g  1             114     -0.200679  1 N  g -3       
   115      0.180576  1 N  g -2             120     -0.169371  1 N  g  3       
   116      0.075850  1 N  g -1             118     -0.064016  1 N  g  1       

 Vector   43  Occ=0.000000D+00  E= 1.629430D+00  Symmetry=a1g
              MO Center= -1.7D-29,  3.6D-29,  1.6D-29, r^2= 2.7D+00
   Bfn.  Coefficient  Atom+Function         Bfn.  Coefficient  Atom+Function  
  ----- ------------  ---------------      ----- ------------  ---------------
   126      0.893887  1 N  g  0             130      0.755472  1 N  g  4       
   117     -0.254938  1 N  g  0             121     -0.215462  1 N  g  4       
   108      0.077876  1 N  g  0             112      0.065818  1 N  g  4       

 Vector   44  Occ=0.000000D+00  E= 1.797875D+00  Symmetry=t2u
              MO Center=  2.3D-18, -9.4D-18,  1.9D-29, r^2= 2.2D+00
   Bfn.  Coefficient  Atom+Function         Bfn.  Coefficient  Atom+Function  
  ----- ------------  ---------------      ----- ------------  ---------------
    83      1.179990  1 N  f -1              81     -0.914017  1 N  f -3       
    86      0.526161  1 N  f  2              90     -0.501351  1 N  f -1       
    88      0.388345  1 N  f -3              76     -0.384714  1 N  f -1       
    74      0.297998  1 N  f -3              85      0.293539  1 N  f  1       
    87      0.227375  1 N  f  3              93     -0.223554  1 N  f  2       

 Vector   45  Occ=0.000000D+00  E= 1.797875D+00  Symmetry=t2u
              MO Center= -8.9D-18, -3.5D-18, -2.3D-29, r^2= 2.2D+00
   Bfn.  Coefficient  Atom+Function         Bfn.  Coefficient  Atom+Function  
  ----- ------------  ---------------      ----- ------------  ---------------
    85      1.122331  1 N  f  1              87      0.869354  1 N  f  3       
    86      0.566851  1 N  f  2              92     -0.476853  1 N  f  1       
    83     -0.437171  1 N  f -1              94     -0.369369  1 N  f  3       
    78     -0.365915  1 N  f  1              81      0.338631  1 N  f -3       
    80     -0.283437  1 N  f  3              93     -0.240842  1 N  f  2       

 Vector   46  Occ=0.000000D+00  E= 1.797875D+00  Symmetry=t2u
              MO Center= -1.8D-18,  8.6D-19,  2.0D-29, r^2= 2.2D+00
   Bfn.  Coefficient  Atom+Function         Bfn.  Coefficient  Atom+Function  
  ----- ------------  ---------------      ----- ------------  ---------------
    86      1.429807  1 N  f  2              93     -0.607493  1 N  f  2       
    85     -0.552972  1 N  f  1              79     -0.466162  1 N  f  2       
    87     -0.428330  1 N  f  3              83     -0.260912  1 N  f -1       
    92      0.234945  1 N  f  1              81      0.202102  1 N  f -3       
    94      0.181988  1 N  f  3              78      0.180286  1 N  f  1       

 Vector   47  Occ=0.000000D+00  E= 1.797875D+00  Symmetry=t1u
              MO Center= -4.2D-19, -4.3D-19, -3.6D-20, r^2= 2.2D+00
   Bfn.  Coefficient  Atom+Function         Bfn.  Coefficient  Atom+Function  
  ----- ------------  ---------------      ----- ------------  ---------------
    81      0.917306  1 N  f -3              87      0.899275  1 N  f  3       
    83      0.710542  1 N  f -1              85     -0.696576  1 N  f  1       
    88     -0.389743  1 N  f -3              94     -0.382082  1 N  f  3       
    90     -0.301893  1 N  f -1              74     -0.299070  1 N  f -3       
    92      0.295959  1 N  f  1              80     -0.293192  1 N  f  3       

 Vector   48  Occ=0.000000D+00  E= 1.797875D+00  Symmetry=t1u
              MO Center=  9.3D-17, -9.1D-17, -1.2D-17, r^2= 2.2D+00
   Bfn.  Coefficient  Atom+Function         Bfn.  Coefficient  Atom+Function  
  ----- ------------  ---------------      ----- ------------  ---------------
    87     -0.917968  1 N  f  3              81      0.897569  1 N  f -3       
    85      0.711055  1 N  f  1              83      0.695254  1 N  f -1       
    94      0.390024  1 N  f  3              88     -0.381357  1 N  f -3       
    92     -0.302111  1 N  f  1              80      0.299286  1 N  f  3       
    90     -0.295398  1 N  f -1              74     -0.292636  1 N  f -3       

 Vector   49  Occ=0.000000D+00  E= 1.797875D+00  Symmetry=t1u
              MO Center= -1.5D-23,  6.7D-23, -2.6D-21, r^2= 2.2D+00
   Bfn.  Coefficient  Atom+Function         Bfn.  Coefficient  Atom+Function  
  ----- ------------  ---------------      ----- ------------  ---------------
    84      1.623266  1 N  f  0              91     -0.689689  1 N  f  0       
    77     -0.529236  1 N  f  0              70      0.188366  1 N  f  0       
    81     -0.067020  1 N  f -3              83     -0.051913  1 N  f -1       
    63     -0.041479  1 N  f  0              88      0.028475  1 N  f -3       

 Vector   50  Occ=0.000000D+00  E= 1.797875D+00  Symmetry=a2u
              MO Center= -1.9D-29, -9.5D-31, -1.4D-29, r^2= 2.2D+00
   Bfn.  Coefficient  Atom+Function         Bfn.  Coefficient  Atom+Function  
  ----- ------------  ---------------      ----- ------------  ---------------
    82      1.625581  1 N  f -2              89     -0.690673  1 N  f -2       
    75     -0.529991  1 N  f -2              68      0.188635  1 N  f -2       
    61     -0.041538  1 N  f -2       

 Vector   51  Occ=0.000000D+00  E= 1.988216D+00  Symmetry=t2g
              MO Center=  2.8D-17,  2.7D-17,  2.9D-17, r^2= 1.8D+00
   Bfn.  Coefficient  Atom+Function         Bfn.  Coefficient  Atom+Function  
  ----- ------------  ---------------      ----- ------------  ---------------
    48     -1.418847  1 N  d  1              46      1.357814  1 N  d -1       
    53      1.188526  1 N  d  1              51     -1.137401  1 N  d -1       
    58     -0.379684  1 N  d  1              56      0.363351  1 N  d -1       
    43      0.262791  1 N  d  1              41     -0.251487  1 N  d -1       
    38     -0.121526  1 N  d  1              36      0.116299  1 N  d -1       

 Vector   52  Occ=0.000000D+00  E= 1.988216D+00  Symmetry=t2g
              MO Center= -3.0D-18,  5.1D-18, -8.6D-18, r^2= 1.8D+00
   Bfn.  Coefficient  Atom+Function         Bfn.  Coefficient  Atom+Function  
  ----- ------------  ---------------      ----- ------------  ---------------
    46      1.416963  1 N  d -1              48      1.354749  1 N  d  1       
    51     -1.186948  1 N  d -1              53     -1.134833  1 N  d  1       
    56      0.379179  1 N  d -1              58      0.362531  1 N  d  1       
    41     -0.262442  1 N  d -1              43     -0.250919  1 N  d  1       
    36      0.121365  1 N  d -1              45      0.117847  1 N  d -2       

 Vector   53  Occ=0.000000D+00  E= 1.988216D+00  Symmetry=eg
              MO Center=  6.5D-17, -2.1D-16, -1.2D-15, r^2= 1.8D+00
   Bfn.  Coefficient  Atom+Function         Bfn.  Coefficient  Atom+Function  
  ----- ------------  ---------------      ----- ------------  ---------------
    47      1.963929  1 N  d  0              52     -1.645125  1 N  d  0       
    57      0.525548  1 N  d  0              42     -0.363748  1 N  d  0       
    37      0.168213  1 N  d  0       

 Vector   54  Occ=0.000000D+00  E= 1.988216D+00  Symmetry=t2g
              MO Center=  1.6D-16,  4.7D-18, -5.4D-18, r^2= 1.8D+00
   Bfn.  Coefficient  Atom+Function         Bfn.  Coefficient  Atom+Function  
  ----- ------------  ---------------      ----- ------------  ---------------
    45      1.960331  1 N  d -2              50     -1.642111  1 N  d -2       
    55      0.524585  1 N  d -2              40     -0.363082  1 N  d -2       
    35      0.167905  1 N  d -2              48     -0.092447  1 N  d  1       
    53      0.077440  1 N  d  1              46     -0.074650  1 N  d -1       
    51      0.062532  1 N  d -1       

 Vector   55  Occ=0.000000D+00  E= 1.988216D+00  Symmetry=eg
              MO Center= -1.4D-18,  3.1D-18,  4.0D-32, r^2= 1.8D+00
   Bfn.  Coefficient  Atom+Function         Bfn.  Coefficient  Atom+Function  
  ----- ------------  ---------------      ----- ------------  ---------------
    49      1.963929  1 N  d  2              54     -1.645125  1 N  d  2       
    59      0.525548  1 N  d  2              44     -0.363748  1 N  d  2       
    39      0.168213  1 N  d  2       

 Vector   56  Occ=0.000000D+00  E= 2.479995D+00  Symmetry=t1u
              MO Center=  2.4D-20, -1.3D-19, -1.7D-19, r^2= 1.9D+00
   Bfn.  Coefficient  Atom+Function         Bfn.  Coefficient  Atom+Function  
  ----- ------------  ---------------      ----- ------------  ---------------
    19      3.566543  1 N  py                22     -2.767073  1 N  py         
    20     -2.433108  1 N  pz                16     -1.939028  1 N  py         
    23      1.887707  1 N  pz                17      1.322812  1 N  pz         
    25      1.222454  1 N  py                26     -0.833962  1 N  pz         
    18     -0.666614  1 N  px                21      0.517187  1 N  px         

 Vector   57  Occ=0.000000D+00  E= 2.479995D+00  Symmetry=t1u
              MO Center= -1.5D-19, -1.3D-18,  2.7D-19, r^2= 1.9D+00
   Bfn.  Coefficient  Atom+Function         Bfn.  Coefficient  Atom+Function  
  ----- ------------  ---------------      ----- ------------  ---------------
    20      3.626739  1 N  pz                23     -2.813775  1 N  pz         
    19      2.414245  1 N  py                17     -1.971755  1 N  pz         
    22     -1.873072  1 N  py                16     -1.312556  1 N  py         
    26      1.243087  1 N  pz                25      0.827497  1 N  py         
    18     -0.320634  1 N  px                29     -0.306074  1 N  pz         

 Vector   58  Occ=0.000000D+00  E= 2.479995D+00  Symmetry=t1u
              MO Center= -3.0D-16,  5.0D-16, -2.2D-16, r^2= 1.9D+00
   Bfn.  Coefficient  Atom+Function         Bfn.  Coefficient  Atom+Function  
  ----- ------------  ---------------      ----- ------------  ---------------
    18      4.305512  1 N  px                21     -3.340396  1 N  px         
    15     -2.340785  1 N  px                24      1.475740  1 N  px         
    19      0.731991  1 N  py                22     -0.567909  1 N  py         
    16     -0.397963  1 N  py                27     -0.363358  1 N  px         
    25      0.250894  1 N  py                 9     -0.190916  1 N  px         

 Vector   59  Occ=0.000000D+00  E= 3.445157D+00  Symmetry=t1u
              MO Center= -1.9D-31,  1.6D-31, -2.4D-31, r^2= 1.8D+00
   Bfn.  Coefficient  Atom+Function         Bfn.  Coefficient  Atom+Function  
  ----- ------------  ---------------      ----- ------------  ---------------
   155      0.715338  1 N  h -3             163     -0.524735  1 N  h  5       
   158     -0.481016  1 N  h  0             159     -0.446777  1 N  h  1       
   162      0.393638  1 N  h  4             144     -0.215746  1 N  h -3       
   161      0.208194  1 N  h  3             153      0.187790  1 N  h -5       
   152      0.158260  1 N  h  5             147      0.145074  1 N  h  0       

 Vector   60  Occ=0.000000D+00  E= 3.445157D+00  Symmetry=t2u
              MO Center= -9.7D-32,  1.5D-31, -3.6D-31, r^2= 1.8D+00
   Bfn.  Coefficient  Atom+Function         Bfn.  Coefficient  Atom+Function  
  ----- ------------  ---------------      ----- ------------  ---------------
   160      0.905798  1 N  h  2             163     -0.434563  1 N  h  5       
   159      0.419828  1 N  h  1             153     -0.340241  1 N  h -5       
   157      0.328705  1 N  h -1             149     -0.273189  1 N  h  2       
   161     -0.194342  1 N  h  3             155      0.152161  1 N  h -3       
   152      0.131064  1 N  h  5             148     -0.126620  1 N  h  1       

 Vector   61  Occ=0.000000D+00  E= 3.445157D+00  Symmetry=t1u
              MO Center= -6.8D-31, -9.7D-32, -8.5D-31, r^2= 1.8D+00
   Bfn.  Coefficient  Atom+Function         Bfn.  Coefficient  Atom+Function  
  ----- ------------  ---------------      ----- ------------  ---------------
   155      0.612212  1 N  h -3             163      0.507071  1 N  h  5       
   162      0.485613  1 N  h  4             157     -0.475129  1 N  h -1       
   159      0.467384  1 N  h  1             158      0.329592  1 N  h  0       
   144     -0.184643  1 N  h -3             153     -0.185229  1 N  h -5       
   152     -0.152933  1 N  h  5             151     -0.146461  1 N  h  4       

 Vector   62  Occ=0.000000D+00  E= 3.445157D+00  Symmetry=t2u
              MO Center=  2.2D-31, -1.1D-31,  5.8D-32, r^2= 1.8D+00
   Bfn.  Coefficient  Atom+Function         Bfn.  Coefficient  Atom+Function  
  ----- ------------  ---------------      ----- ------------  ---------------
   153      0.687292  1 N  h -5             157     -0.663987  1 N  h -1       
   163     -0.462642  1 N  h  5             159      0.446955  1 N  h  1       
   155     -0.307366  1 N  h -3             142     -0.207287  1 N  h -5       
   161     -0.206900  1 N  h  3             146      0.200258  1 N  h -1       
   152      0.139533  1 N  h  5             148     -0.134801  1 N  h  1       

 Vector   63  Occ=0.000000D+00  E= 3.445157D+00  Symmetry=t1u
              MO Center= -2.4D-32, -5.2D-32, -3.1D-32, r^2= 1.8D+00
   Bfn.  Coefficient  Atom+Function         Bfn.  Coefficient  Atom+Function  
  ----- ------------  ---------------      ----- ------------  ---------------
   153      0.767477  1 N  h -5             157      0.720424  1 N  h -1       
   158      0.431761  1 N  h  0             162      0.347192  1 N  h  4       
   142     -0.231471  1 N  h -5             146     -0.217280  1 N  h -1       
   155      0.159838  1 N  h -3             161     -0.144963  1 N  h  3       
   147     -0.130219  1 N  h  0             151     -0.104713  1 N  h  4       

 Vector   64  Occ=0.000000D+00  E= 3.445157D+00  Symmetry=t2u
              MO Center= -8.3D-32, -1.4D-31,  3.8D-31, r^2= 1.8D+00
   Bfn.  Coefficient  Atom+Function         Bfn.  Coefficient  Atom+Function  
  ----- ------------  ---------------      ----- ------------  ---------------
   160      0.802413  1 N  h  2             163      0.535091  1 N  h  5       
   159     -0.516947  1 N  h  1             153      0.317916  1 N  h -5       
   157     -0.307136  1 N  h -1             149     -0.242008  1 N  h  2       
   161      0.239300  1 N  h  3             152     -0.161383  1 N  h  5       
   148      0.155911  1 N  h  1             155     -0.142176  1 N  h -3       

 Vector   65  Occ=0.000000D+00  E= 3.445157D+00  Symmetry=t1u
              MO Center= -4.4D-32, -4.5D-32, -4.1D-32, r^2= 1.8D+00
   Bfn.  Coefficient  Atom+Function         Bfn.  Coefficient  Atom+Function  
  ----- ------------  ---------------      ----- ------------  ---------------
   158      0.842407  1 N  h  0             162     -0.469574  1 N  h  4       
   159     -0.460486  1 N  h  1             163     -0.354416  1 N  h  5       
   155      0.313980  1 N  h -3             147     -0.254070  1 N  h  0       
   157     -0.235429  1 N  h -1             161     -0.202265  1 N  h  3       
   151      0.141624  1 N  h  4             148      0.138883  1 N  h  1       

 Vector   66  Occ=0.000000D+00  E= 3.445157D+00  Symmetry=t1u
              MO Center= -9.7D-33, -4.5D-33, -1.1D-32, r^2= 1.8D+00
   Bfn.  Coefficient  Atom+Function         Bfn.  Coefficient  Atom+Function  
  ----- ------------  ---------------      ----- ------------  ---------------
   162      0.704925  1 N  h  4             161      0.564760  1 N  h  3       
   155     -0.480403  1 N  h -3             158      0.470144  1 N  h  0       
   163     -0.339014  1 N  h  5             153     -0.275247  1 N  h -5       
   151     -0.212605  1 N  h  4             150     -0.170332  1 N  h  3       
   144      0.144890  1 N  h -3             147     -0.141795  1 N  h  0       

 Vector   67  Occ=0.000000D+00  E= 3.445157D+00  Symmetry=t1u
              MO Center= -2.4D-32, -1.5D-31, -3.5D-32, r^2= 1.8D+00
   Bfn.  Coefficient  Atom+Function         Bfn.  Coefficient  Atom+Function  
  ----- ------------  ---------------      ----- ------------  ---------------
   161      0.944890  1 N  h  3             162     -0.491498  1 N  h  4       
   159      0.433891  1 N  h  1             155      0.301714  1 N  h -3       
   150     -0.284979  1 N  h  3             153      0.197910  1 N  h -5       
   151      0.148236  1 N  h  4             148     -0.130862  1 N  h  1       
   158      0.114865  1 N  h  0             144     -0.090997  1 N  h -3       

 Vector   68  Occ=0.000000D+00  E= 3.445157D+00  Symmetry=eu
              MO Center= -1.3D-32,  7.6D-33,  6.5D-32, r^2= 1.8D+00
   Bfn.  Coefficient  Atom+Function         Bfn.  Coefficient  Atom+Function  
  ----- ------------  ---------------      ----- ------------  ---------------
   156      1.168041  1 N  h -2             145     -0.352281  1 N  h -2       
   154      0.325551  1 N  h -4             143     -0.098186  1 N  h -4       
   134      0.058872  1 N  h -2       

 Vector   69  Occ=0.000000D+00  E= 3.445157D+00  Symmetry=eu
              MO Center= -4.5D-32, -1.5D-33,  4.5D-33, r^2= 1.8D+00
   Bfn.  Coefficient  Atom+Function         Bfn.  Coefficient  Atom+Function  
  ----- ------------  ---------------      ----- ------------  ---------------
   154      1.168041  1 N  h -4             143     -0.352281  1 N  h -4       
   156     -0.325551  1 N  h -2             145      0.098186  1 N  h -2       
   132      0.058872  1 N  h -4       

 Vector   70  Occ=0.000000D+00  E= 4.214338D+00  Symmetry=t1u
              MO Center=  1.9D-17,  2.6D-18,  1.2D-18, r^2= 1.2D+00
   Bfn.  Coefficient  Atom+Function         Bfn.  Coefficient  Atom+Function  
  ----- ------------  ---------------      ----- ------------  ---------------
    80      1.571926  1 N  f  3              78     -1.217608  1 N  f  1       
    87     -1.100238  1 N  f  3              85      0.852241  1 N  f  1       
    73     -0.373338  1 N  f  3              94      0.312824  1 N  f  3       
    71      0.289187  1 N  f  1              92     -0.242312  1 N  f  1       
    74      0.212210  1 N  f -3              76      0.164377  1 N  f -1       

 Vector   71  Occ=0.000000D+00  E= 4.214338D+00  Symmetry=t2u
              MO Center= -1.6D-17,  8.8D-18,  2.2D-28, r^2= 1.2D+00
   Bfn.  Coefficient  Atom+Function         Bfn.  Coefficient  Atom+Function  
  ----- ------------  ---------------      ----- ------------  ---------------
    79      1.723813  1 N  f  2              86     -1.206548  1 N  f  2       
    78     -0.713746  1 N  f  1              80     -0.552865  1 N  f  3       
    85      0.499572  1 N  f  1              72     -0.409412  1 N  f  2       
    76     -0.389336  1 N  f -1              87      0.386967  1 N  f  3       
    93      0.343050  1 N  f  2              74      0.301579  1 N  f -3       

 Vector   72  Occ=0.000000D+00  E= 4.214338D+00  Symmetry=t1u
              MO Center= -3.8D-18,  6.8D-17, -3.5D-16, r^2= 1.2D+00
   Bfn.  Coefficient  Atom+Function         Bfn.  Coefficient  Atom+Function  
  ----- ------------  ---------------      ----- ------------  ---------------
    77      1.873818  1 N  f  0              84     -1.311541  1 N  f  0       
    74     -0.568064  1 N  f -3              70     -0.445039  1 N  f  0       
    76     -0.440021  1 N  f -1              81      0.397605  1 N  f -3       
    91      0.372902  1 N  f  0              83      0.307984  1 N  f -1       
    67      0.134917  1 N  f -3              63      0.113663  1 N  f  0       

 Vector   73  Occ=0.000000D+00  E= 4.214338D+00  Symmetry=t2u
              MO Center= -1.8D-17,  5.9D-18, -7.7D-29, r^2= 1.2D+00
   Bfn.  Coefficient  Atom+Function         Bfn.  Coefficient  Atom+Function  
  ----- ------------  ---------------      ----- ------------  ---------------
    78      1.297439  1 N  f  1              79      1.016608  1 N  f  2       
    80      1.004992  1 N  f  3              85     -0.908117  1 N  f  1       
    86     -0.711555  1 N  f  2              87     -0.703424  1 N  f  3       
    76      0.434673  1 N  f -1              74     -0.336697  1 N  f -3       
    71     -0.308147  1 N  f  1              83     -0.304241  1 N  f -1       

 Vector   74  Occ=0.000000D+00  E= 4.214338D+00  Symmetry=t2u
              MO Center=  5.9D-17,  1.5D-16, -9.0D-29, r^2= 1.2D+00
   Bfn.  Coefficient  Atom+Function         Bfn.  Coefficient  Atom+Function  
  ----- ------------  ---------------      ----- ------------  ---------------
    76      1.475703  1 N  f -1              74     -1.143074  1 N  f -3       
    83     -1.032889  1 N  f -1              81      0.800072  1 N  f -3       
    78     -0.570474  1 N  f  1              80     -0.441887  1 N  f  3       
    85      0.399292  1 N  f  1              69     -0.350485  1 N  f -1       
    87      0.309290  1 N  f  3              90      0.293675  1 N  f -1       

 Vector   75  Occ=0.000000D+00  E= 4.214338D+00  Symmetry=a2u
              MO Center= -6.2D-32,  1.4D-32, -7.3D-32, r^2= 1.2D+00
   Bfn.  Coefficient  Atom+Function         Bfn.  Coefficient  Atom+Function  
  ----- ------------  ---------------      ----- ------------  ---------------
    75      2.007276  1 N  f -2              82     -1.404953  1 N  f -2       
    68     -0.476736  1 N  f -2              89      0.399461  1 N  f -2       
    61      0.121759  1 N  f -2       

 Vector   76  Occ=0.000000D+00  E= 4.214338D+00  Symmetry=t1u
              MO Center= -2.6D-25,  1.8D-24,  1.4D-24, r^2= 1.2D+00
   Bfn.  Coefficient  Atom+Function         Bfn.  Coefficient  Atom+Function  
  ----- ------------  ---------------      ----- ------------  ---------------
    74      1.466456  1 N  f -3              76      1.135912  1 N  f -1       
    81     -1.026416  1 N  f -3              83     -0.795059  1 N  f -1       
    77      0.717203  1 N  f  0              84     -0.501992  1 N  f  0       
    67     -0.348289  1 N  f -3              88      0.291835  1 N  f -3       
    69     -0.269783  1 N  f -1              90      0.226054  1 N  f -1       

 Vector   77  Occ=0.000000D+00  E= 4.339988D+00  Symmetry=t1g
              MO Center=  8.6D-32, -1.2D-31, -3.9D-31, r^2= 1.3D+00
   Bfn.  Coefficient  Atom+Function         Bfn.  Coefficient  Atom+Function  
  ----- ------------  ---------------      ----- ------------  ---------------
   116      1.181886  1 N  g -1             118      0.743193  1 N  g  1       
   125     -0.535512  1 N  g -1             114      0.446711  1 N  g -3       
   127     -0.336740  1 N  g  1             120     -0.280900  1 N  g  3       
   107     -0.255245  1 N  g -1             123     -0.202404  1 N  g -3       
   109     -0.160503  1 N  g  1             129      0.127276  1 N  g  3       

 Vector   78  Occ=0.000000D+00  E= 4.339988D+00  Symmetry=t1g
              MO Center= -6.3D-31,  1.9D-30, -1.0D-30, r^2= 1.3D+00
   Bfn.  Coefficient  Atom+Function         Bfn.  Coefficient  Atom+Function  
  ----- ------------  ---------------      ----- ------------  ---------------
   113      1.248299  1 N  g -4             118     -0.658059  1 N  g  1       
   122     -0.565603  1 N  g -4             116      0.391401  1 N  g -1       
   127      0.298166  1 N  g  1             104     -0.269587  1 N  g -4       
   120      0.248723  1 N  g  3             125     -0.177344  1 N  g -1       
   114      0.147936  1 N  g -3             109      0.142117  1 N  g  1       

 Vector   79  Occ=0.000000D+00  E= 4.339988D+00  Symmetry=t1g
              MO Center= -1.2D-30,  1.8D-30,  2.4D-30, r^2= 1.3D+00
   Bfn.  Coefficient  Atom+Function         Bfn.  Coefficient  Atom+Function  
  ----- ------------  ---------------      ----- ------------  ---------------
   118      0.982002  1 N  g  1             113      0.818167  1 N  g -4       
   116     -0.632182  1 N  g -1             127     -0.444944  1 N  g  1       
   120     -0.371162  1 N  g  3             122     -0.370711  1 N  g -4       
   125      0.286441  1 N  g -1             114     -0.238942  1 N  g -3       
   109     -0.212077  1 N  g  1             104     -0.176694  1 N  g -4       

 Vector   80  Occ=0.000000D+00  E= 4.339988D+00  Symmetry=t2g
              MO Center=  1.1D-31, -9.5D-32, -1.7D-31, r^2= 1.3D+00
   Bfn.  Coefficient  Atom+Function         Bfn.  Coefficient  Atom+Function  
  ----- ------------  ---------------      ----- ------------  ---------------
   115      1.258320  1 N  g -2             120      0.703555  1 N  g  3       
   124     -0.570144  1 N  g -2             129     -0.318780  1 N  g  3       
   106     -0.271751  1 N  g -2             118      0.265919  1 N  g  1       
   114     -0.263185  1 N  g -3             111     -0.151942  1 N  g  3       
   127     -0.120488  1 N  g  1             123      0.119249  1 N  g -3       

 Vector   81  Occ=0.000000D+00  E= 4.339988D+00  Symmetry=t2g
              MO Center=  4.3D-32,  1.4D-31, -3.4D-32, r^2= 1.3D+00
   Bfn.  Coefficient  Atom+Function         Bfn.  Coefficient  Atom+Function  
  ----- ------------  ---------------      ----- ------------  ---------------
   114      1.277726  1 N  g -3             123     -0.578936  1 N  g -3       
   115      0.503072  1 N  g -2             116     -0.482935  1 N  g -1       
   120     -0.309314  1 N  g  3             105     -0.275942  1 N  g -3       
   124     -0.227942  1 N  g -2             125      0.218817  1 N  g -1       
   129      0.140150  1 N  g  3             118     -0.116910  1 N  g  1       

 Vector   82  Occ=0.000000D+00  E= 4.339988D+00  Symmetry=t2g
              MO Center=  1.5D-31,  6.9D-31, -7.0D-31, r^2= 1.3D+00
   Bfn.  Coefficient  Atom+Function         Bfn.  Coefficient  Atom+Function  
  ----- ------------  ---------------      ----- ------------  ---------------
   120      1.165778  1 N  g  3             115     -0.625926  1 N  g -2       
   129     -0.528213  1 N  g  3             114      0.497851  1 N  g -3       
   118      0.440623  1 N  g  1             124      0.283606  1 N  g -2       
   111     -0.251766  1 N  g  3             123     -0.225576  1 N  g -3       
   127     -0.199646  1 N  g  1             116     -0.188170  1 N  g -1       

 Vector   83  Occ=0.000000D+00  E= 4.339988D+00  Symmetry=eg
              MO Center= -1.8D-30, -9.9D-32, -4.8D-32, r^2= 1.3D+00
   Bfn.  Coefficient  Atom+Function         Bfn.  Coefficient  Atom+Function  
  ----- ------------  ---------------      ----- ------------  ---------------
   119      1.492693  1 N  g  2             128     -0.676338  1 N  g  2       
   110     -0.322367  1 N  g  2             101      0.072407  1 N  g  2       

 Vector   84  Occ=0.000000D+00  E= 4.339988D+00  Symmetry=eg
              MO Center= -1.2D-31,  2.0D-30, -2.0D-30, r^2= 1.3D+00
   Bfn.  Coefficient  Atom+Function         Bfn.  Coefficient  Atom+Function  
  ----- ------------  ---------------      ----- ------------  ---------------
   121      1.140063  1 N  g  4             117     -0.963529  1 N  g  0       
   130     -0.516561  1 N  g  4             126      0.436574  1 N  g  0       
   112     -0.246212  1 N  g  4             108      0.208087  1 N  g  0       
   103      0.055302  1 N  g  4              99     -0.046739  1 N  g  0       

 Vector   85  Occ=0.000000D+00  E= 4.339988D+00  Symmetry=a1g
              MO Center=  7.2D-31, -3.4D-31,  2.8D-30, r^2= 1.3D+00
   Bfn.  Coefficient  Atom+Function         Bfn.  Coefficient  Atom+Function  
  ----- ------------  ---------------      ----- ------------  ---------------
   117      1.140089  1 N  g  0             121      0.963551  1 N  g  4       
   126     -0.516573  1 N  g  0             130     -0.436584  1 N  g  4       
   108     -0.246218  1 N  g  0             112     -0.208092  1 N  g  4       
    99      0.055303  1 N  g  0             103      0.046740  1 N  g  4       

 Vector   86  Occ=0.000000D+00  E= 4.740054D+00  Symmetry=eg
              MO Center= -3.1D-19, -4.7D-17, -1.5D-16, r^2= 9.1D-01
   Bfn.  Coefficient  Atom+Function         Bfn.  Coefficient  Atom+Function  
  ----- ------------  ---------------      ----- ------------  ---------------
    47     -2.165699  1 N  d  0              42      2.094017  1 N  d  0       
    52      1.096159  1 N  d  0              37     -0.338369  1 N  d  0       
    57     -0.306959  1 N  d  0              32      0.112010  1 N  d  0       

 Vector   87  Occ=0.000000D+00  E= 4.740054D+00  Symmetry=eg
              MO Center=  3.8D-16, -6.4D-17, -2.9D-31, r^2= 9.1D-01
   Bfn.  Coefficient  Atom+Function         Bfn.  Coefficient  Atom+Function  
  ----- ------------  ---------------      ----- ------------  ---------------
    49     -2.165699  1 N  d  2              44      2.094017  1 N  d  2       
    54      1.096159  1 N  d  2              39     -0.338369  1 N  d  2       
    59     -0.306959  1 N  d  2              34      0.112010  1 N  d  2       

 Vector   88  Occ=0.000000D+00  E= 4.740054D+00  Symmetry=t2g
              MO Center= -6.0D-17, -3.6D-16,  8.5D-17, r^2= 9.1D-01
   Bfn.  Coefficient  Atom+Function         Bfn.  Coefficient  Atom+Function  
  ----- ------------  ---------------      ----- ------------  ---------------
    45     -1.866851  1 N  d -2              40      1.805061  1 N  d -2       
    46      1.063055  1 N  d -1              41     -1.027870  1 N  d -1       
    50      0.944899  1 N  d -2              51     -0.538061  1 N  d -1       
    35     -0.291677  1 N  d -2              48     -0.273921  1 N  d  1       
    43      0.264854  1 N  d  1              55     -0.264601  1 N  d -2       

 Vector   89  Occ=0.000000D+00  E= 4.740054D+00  Symmetry=t2g
              MO Center= -3.9D-18,  6.0D-18,  1.9D-16, r^2= 9.1D-01
   Bfn.  Coefficient  Atom+Function         Bfn.  Coefficient  Atom+Function  
  ----- ------------  ---------------      ----- ------------  ---------------
    48     -2.117425  1 N  d  1              43      2.047342  1 N  d  1       
    53      1.071726  1 N  d  1              46     -0.451545  1 N  d -1       
    41      0.436599  1 N  d -1              38     -0.330827  1 N  d  1       
    58     -0.300117  1 N  d  1              51      0.228547  1 N  d -1       
    33      0.109513  1 N  d  1              36     -0.070549  1 N  d -1       

 Vector   90  Occ=0.000000D+00  E= 4.740054D+00  Symmetry=t2g
              MO Center= -1.5D-17, -8.0D-17, -5.2D-17, r^2= 9.1D-01
   Bfn.  Coefficient  Atom+Function         Bfn.  Coefficient  Atom+Function  
  ----- ------------  ---------------      ----- ------------  ---------------
    46     -1.832013  1 N  d -1              41      1.771376  1 N  d -1       
    45     -1.096471  1 N  d -2              40      1.060180  1 N  d -2       
    51      0.927266  1 N  d -1              50      0.554974  1 N  d -2       
    48      0.362945  1 N  d  1              43     -0.350932  1 N  d  1       
    36     -0.286234  1 N  d -1              56     -0.259663  1 N  d -1       

 Vector   91  Occ=0.000000D+00  E= 4.752375D+00  Symmetry=a1g
              MO Center=  2.6D-17,  1.2D-17,  2.8D-18, r^2= 1.1D+00
   Bfn.  Coefficient  Atom+Function         Bfn.  Coefficient  Atom+Function  
  ----- ------------  ---------------      ----- ------------  ---------------
     5      8.722298  1 N  s                  4     -6.614516  1 N  s          
     6     -6.047303  1 N  s                  7      2.690901  1 N  s          
     3      1.654527  1 N  s                  1      0.746432  1 N  s          
     8     -0.655008  1 N  s                  2      0.522836  1 N  s          

 Vector   92  Occ=0.000000D+00  E= 6.214055D+00  Symmetry=t1u
              MO Center=  1.6D-19, -8.9D-19,  2.3D-18, r^2= 8.1D-01
   Bfn.  Coefficient  Atom+Function         Bfn.  Coefficient  Atom+Function  
  ----- ------------  ---------------      ----- ------------  ---------------
    17      3.438805  1 N  pz                20     -2.976025  1 N  pz         
    16      2.628361  1 N  py                19     -2.274647  1 N  py         
    14     -1.783950  1 N  pz                23      1.688899  1 N  pz         
    13     -1.363515  1 N  py                22      1.290866  1 N  py         
    26     -0.682318  1 N  pz                25     -0.521512  1 N  py         

 Vector   93  Occ=0.000000D+00  E= 6.214055D+00  Symmetry=t1u
              MO Center=  2.7D-17,  2.3D-19, -7.1D-18, r^2= 8.1D-01
   Bfn.  Coefficient  Atom+Function         Bfn.  Coefficient  Atom+Function  
  ----- ------------  ---------------      ----- ------------  ---------------
    15      4.317139  1 N  px                18     -3.736157  1 N  px         
    12     -2.239603  1 N  px                21      2.120274  1 N  px         
    24     -0.856594  1 N  px                17      0.560010  1 N  pz         
    20     -0.484646  1 N  pz                14     -0.290517  1 N  pz         
    23      0.275037  1 N  pz                27      0.210132  1 N  px         

 Vector   94  Occ=0.000000D+00  E= 6.214055D+00  Symmetry=t1u
              MO Center=  5.2D-20, -1.1D-19,  1.7D-21, r^2= 8.1D-01
   Bfn.  Coefficient  Atom+Function         Bfn.  Coefficient  Atom+Function  
  ----- ------------  ---------------      ----- ------------  ---------------
    16      3.470305  1 N  py                19     -3.003286  1 N  py         
    17     -2.610285  1 N  pz                20      2.259004  1 N  pz         
    13     -1.800291  1 N  py                22      1.704369  1 N  py         
    14      1.354138  1 N  pz                23     -1.281988  1 N  pz         
    25     -0.688568  1 N  py                26      0.517925  1 N  pz         

 Vector   95  Occ=0.000000D+00  E= 7.202765D+00  Symmetry=t2g
              MO Center= -7.6D-34,  3.0D-33,  2.2D-33, r^2= 1.1D+00
   Bfn.  Coefficient  Atom+Function         Bfn.  Coefficient  Atom+Function  
  ----- ------------  ---------------      ----- ------------  ---------------
   182      0.860206  1 N  i -1             186     -0.377953  1 N  i  3       
   184      0.328571  1 N  i  1             181     -0.326113  1 N  i -2       
   178      0.312300  1 N  i -5             180      0.276604  1 N  i -3       
   188     -0.198688  1 N  i  5             169     -0.195796  1 N  i -1       
   173      0.086028  1 N  i  3             171     -0.074788  1 N  i  1       

 Vector   96  Occ=0.000000D+00  E= 7.202765D+00  Symmetry=a1g
              MO Center= -1.1D-31, -1.7D-30, -1.5D-30, r^2= 1.1D+00
   Bfn.  Coefficient  Atom+Function         Bfn.  Coefficient  Atom+Function  
  ----- ------------  ---------------      ----- ------------  ---------------
   187      1.071519  1 N  i  4             183     -0.404996  1 N  i  0       
   174     -0.243894  1 N  i  4             170      0.092183  1 N  i  0       

 Vector   97  Occ=0.000000D+00  E= 7.202765D+00  Symmetry=t2g
              MO Center= -6.7D-34, -2.1D-33,  5.6D-34, r^2= 1.1D+00
   Bfn.  Coefficient  Atom+Function         Bfn.  Coefficient  Atom+Function  
  ----- ------------  ---------------      ----- ------------  ---------------
   181      0.867860  1 N  i -2             177     -0.580549  1 N  i -6       
   188     -0.324398  1 N  i  5             168     -0.197538  1 N  i -2       
   182      0.181927  1 N  i -1             186     -0.173010  1 N  i  3       
   184     -0.165685  1 N  i  1             180      0.155096  1 N  i -3       
   164      0.132142  1 N  i -6             175      0.073838  1 N  i  5       

 Vector   98  Occ=0.000000D+00  E= 7.202765D+00  Symmetry=t2g
              MO Center= -5.0D-33,  1.9D-33,  1.3D-33, r^2= 1.1D+00
   Bfn.  Coefficient  Atom+Function         Bfn.  Coefficient  Atom+Function  
  ----- ------------  ---------------      ----- ------------  ---------------
   180      0.631021  1 N  i -3             184     -0.588930  1 N  i  1       
   178     -0.478315  1 N  i -5             186      0.383552  1 N  i  3       
   182      0.350090  1 N  i -1             177      0.250678  1 N  i -6       
   167     -0.143630  1 N  i -3             171      0.134050  1 N  i  1       
   165      0.108872  1 N  i -5             173     -0.087302  1 N  i  3       

 Vector   99  Occ=0.000000D+00  E= 7.202765D+00  Symmetry=eg
              MO Center= -1.0D-31,  3.1D-31,  1.7D-31, r^2= 1.1D+00
   Bfn.  Coefficient  Atom+Function         Bfn.  Coefficient  Atom+Function  
  ----- ------------  ---------------      ----- ------------  ---------------
   189      0.949206  1 N  i  6             185      0.639954  1 N  i  2       
   176     -0.216054  1 N  i  6             172     -0.145663  1 N  i  2       
   183      0.037896  1 N  i  0       

 Vector  100  Occ=0.000000D+00  E= 7.202765D+00  Symmetry=t1g
              MO Center=  1.5D-33,  3.6D-34, -4.7D-33, r^2= 1.1D+00
   Bfn.  Coefficient  Atom+Function         Bfn.  Coefficient  Atom+Function  
  ----- ------------  ---------------      ----- ------------  ---------------
   186      0.770470  1 N  i  3             188     -0.659791  1 N  i  5       
   184      0.487288  1 N  i  1             173     -0.175371  1 N  i  3       
   175      0.150179  1 N  i  5             180     -0.131414  1 N  i -3       
   178     -0.112537  1 N  i -5             171     -0.110914  1 N  i  1       
   179     -0.094515  1 N  i -4             182      0.083114  1 N  i -1       

 Vector  101  Occ=0.000000D+00  E= 7.202765D+00  Symmetry=t1g
              MO Center=  2.0D-34,  1.6D-33,  1.9D-33, r^2= 1.1D+00
   Bfn.  Coefficient  Atom+Function         Bfn.  Coefficient  Atom+Function  
  ----- ------------  ---------------      ----- ------------  ---------------
   179      0.876760  1 N  i -4             180      0.486768  1 N  i -3       
   178      0.416844  1 N  i -5             182     -0.307859  1 N  i -1       
   166     -0.199564  1 N  i -4             186      0.133441  1 N  i  3       
   188     -0.114272  1 N  i  5             167     -0.110796  1 N  i -3       
   165     -0.094880  1 N  i -5             184      0.084395  1 N  i  1       

 Vector  102  Occ=0.000000D+00  E= 7.202765D+00  Symmetry=t2g
              MO Center= -8.6D-34, -3.0D-33,  2.0D-34, r^2= 1.1D+00
   Bfn.  Coefficient  Atom+Function         Bfn.  Coefficient  Atom+Function  
  ----- ------------  ---------------      ----- ------------  ---------------
   177      0.757698  1 N  i -6             178      0.456012  1 N  i -5       
   184     -0.401454  1 N  i  1             188     -0.379984  1 N  i  5       
[...]
    beta    151    152    153    154    155    156    160    162    158    166
 overlap   1.000  0.981  0.981  0.836  0.726  0.829  0.674  0.597  0.737  0.872


   alpha    161    162    163    164    165    166    167    168    169    170
    beta    159    163    162    167    164    157    161    168    170    169
 overlap   0.949  0.888  0.544  0.587  0.820  0.716  0.716  1.000  0.955  0.960


   alpha    171    172    173    174    175    176    177    178    179    180
    beta    171    174    173    172    178    179    180    181    183    175
 overlap   0.996  0.962  0.933  0.933  0.998  0.812  0.814  0.886  0.768  1.000


   alpha    181    182    183    184    185    186    187    188    189
    beta    182    176    177    185    184    185    187    188    189
 overlap   0.857  0.841  0.841  0.678  0.772  0.734  0.972  0.972  1.000

     --------------------------
     Expectation value of S2:  
     --------------------------
      <S2> =      3.7579 (Exact =     3.7500)


 Task  times  cpu:       25.4s     wall:       25.4s


                                NWChem Input Module
                                -------------------


                                 NWChem SCF Module
                                 -----------------


                                N atom UHF and ROHF



  ao basis        = "ao basis"
  functions       =   189
  atoms           =     1
  closed shells   =     2
  open shells     =     3
  charge          =   0.00
  wavefunction    = ROHF
  input vectors   = ./dft.mos
  output vectors  = ./dft.mos
  use symmetry    = T
  symmetry adapt  = T


 Summary of "ao basis" -> "ao basis" (spherical)
 ------------------------------------------------------------------------------
       Tag                 Description            Shells   Functions and Types
 ---------------- ------------------------------  ------  ---------------------
 N                        aug-cc-pV6Z               35      189   8s7p6d5f4g3h2i


      Symmetry analysis of basis
      --------------------------

        a1g        14
        a1u         0
        a2g         2
        a2u         5
        eg         24
        eu          6
        t1g        18
        t1u        54
        t2g        42
        t2u        24


 Forming initial guess at      28.0s


 Loading old vectors from job with title :

N atom UHF and ROHF


      Symmetry analysis of molecular orbitals - initial
      -------------------------------------------------

  Numbering of irreducible representations: 

     1 a1g         2 a1u         3 a2g         4 a2u         5 eg      
     6 eu          7 t1g         8 t1u         9 t2g        10 t2u     

  Orbital symmetries:

     1 a1g         2 a1g         3 t1u         4 t1u         5 t1u     
     6 t1u         7 t1u         8 t1u         9 a1g        10 t2g     
    11 eg         12 t2g        13 t2g        14 eg         15 t1u     


 Starting SCF solution at      28.2s



 ----------------------------------------------
         Quadratically convergent ROHF

 Convergence threshold     :          1.000E-04
 Maximum no. of iterations :           30
 Final Fock-matrix accuracy:          1.000E-08
 ----------------------------------------------


              iter       energy          gnorm     gmax       time
             ----- ------------------- --------- --------- --------
                 1      -54.3971655731  2.57D-01  1.36D-01     29.9
                 2      -54.4007849569  3.77D-02  1.37D-02     31.8
                 3      -54.4009235918  7.81D-04  4.18D-04     36.6
                 4      -54.4009236629  3.63D-06  1.66D-06     42.8


       Final ROHF results 
       ------------------ 

         Total SCF energy =    -54.400923662896
      One-electron energy =    -73.950308925748
      Two-electron energy =     19.549385262852
 Nuclear repulsion energy =      0.000000000000

        Time for solution =     14.8s



       Symmetry analysis of molecular orbitals - final
       -----------------------------------------------

  Numbering of irreducible representations: 

     1 a1g         2 a1u         3 a2g         4 a2u         5 eg      
     6 eu          7 t1g         8 t1u         9 t2g        10 t2u     

  Orbital symmetries:

     1 a1g         2 a1g         3 t1u         4 t1u         5 t1u     
     6 t1u         7 t1u         8 t1u         9 a1g        10 t2g     
    11 eg         12 t2g        13 eg         14 t2g        15 t1u     

             Final eigenvalues
             -----------------

              1      
    1  -15.6291
    2   -0.9453
    3   -0.1803
    4   -0.1803
    5   -0.1803
    6    0.0747
    7    0.0747
    8    0.0747
    9    0.0859
   10    0.2682
   11    0.2682
   12    0.2682
   13    0.2682
   14    0.2682
   15    0.3232

                       ROHF Final Molecular Orbital Analysis
                       -------------------------------------

 Vector    2  Occ=2.000000D+00  E=-9.453248D-01  Symmetry=a1g
              MO Center=  1.5D-34, -4.0D-34, -8.6D-35, r^2= 6.0D-01
   Bfn.  Coefficient  Atom+Function         Bfn.  Coefficient  Atom+Function  
  ----- ------------  ---------------      ----- ------------  ---------------
     6      0.453760  1 N  s                  5      0.433478  1 N  s          
     2      0.265743  1 N  s          

 Vector    3  Occ=1.000000D+00  E=-1.802947D-01  Symmetry=t1u
              MO Center=  1.9D-16, -3.7D-16,  8.0D-17, r^2= 7.1D-01
   Bfn.  Coefficient  Atom+Function         Bfn.  Coefficient  Atom+Function  
  ----- ------------  ---------------      ----- ------------  ---------------
    20      0.279919  1 N  pz                17      0.235553  1 N  pz         
    23      0.206181  1 N  pz                19      0.186651  1 N  py         
    16      0.157068  1 N  py         

 Vector    4  Occ=1.000000D+00  E=-1.802947D-01  Symmetry=t1u
              MO Center=  9.2D-32, -3.1D-31, -4.7D-31, r^2= 7.1D-01
   Bfn.  Coefficient  Atom+Function         Bfn.  Coefficient  Atom+Function  
  ----- ------------  ---------------      ----- ------------  ---------------
    19      0.266706  1 N  py                16      0.224434  1 N  py         
    20     -0.205734  1 N  pz                22      0.196448  1 N  py         
    17     -0.173126  1 N  pz                23     -0.151538  1 N  pz         

 Vector    5  Occ=1.000000D+00  E=-1.802947D-01  Symmetry=t1u
              MO Center=  1.6D-16,  5.5D-17, -1.9D-17, r^2= 7.1D-01
   Bfn.  Coefficient  Atom+Function         Bfn.  Coefficient  Atom+Function  
  ----- ------------  ---------------      ----- ------------  ---------------
    18      0.324833  1 N  px                15      0.273349  1 N  px         
    21      0.239264  1 N  px                12      0.162386  1 N  px         

 Vector    6  Occ=0.000000D+00  E= 7.468916D-02  Symmetry=t1u
              MO Center=  1.4D-32, -2.0D-31,  2.7D-31, r^2= 1.5D+01
   Bfn.  Coefficient  Atom+Function         Bfn.  Coefficient  Atom+Function  
  ----- ------------  ---------------      ----- ------------  ---------------
    29      1.264370  1 N  pz                26     -0.664327  1 N  pz         
    28      0.565265  1 N  py                25     -0.297002  1 N  py         
    23      0.261424  1 N  pz                20     -0.165803  1 N  pz         

 Vector    7  Occ=0.000000D+00  E= 7.468916D-02  Symmetry=t1u
              MO Center=  9.7D-32,  1.3D-31, -7.6D-32, r^2= 1.5D+01
   Bfn.  Coefficient  Atom+Function         Bfn.  Coefficient  Atom+Function  
  ----- ------------  ---------------      ----- ------------  ---------------
    28      0.985709  1 N  py                27      0.877822  1 N  px         
    25     -0.517913  1 N  py                24     -0.461227  1 N  px         
    29     -0.420483  1 N  pz                26      0.220931  1 N  pz         
    22      0.203808  1 N  py                21      0.181501  1 N  px         

 Vector    8  Occ=0.000000D+00  E= 7.468916D-02  Symmetry=t1u
              MO Center=  1.3D-31, -1.1D-31, -1.8D-32, r^2= 1.5D+01
   Bfn.  Coefficient  Atom+Function         Bfn.  Coefficient  Atom+Function  
  ----- ------------  ---------------      ----- ------------  ---------------
    27      1.071253  1 N  px                28     -0.792372  1 N  py         
    24     -0.562859  1 N  px                25      0.416330  1 N  py         
    29      0.378899  1 N  pz                21      0.221495  1 N  px         
    26     -0.199082  1 N  pz                22     -0.163833  1 N  py         

 Vector    9  Occ=0.000000D+00  E= 8.593781D-02  Symmetry=a1g
              MO Center= -1.7D-16,  6.0D-17, -2.0D-16, r^2= 8.1D+00
   Bfn.  Coefficient  Atom+Function         Bfn.  Coefficient  Atom+Function  
  ----- ------------  ---------------      ----- ------------  ---------------
     8      1.974553  1 N  s                  7     -1.708872  1 N  s          
     6      0.674837  1 N  s                  5     -0.446823  1 N  s          

 Vector   10  Occ=0.000000D+00  E= 2.681581D-01  Symmetry=t2g
              MO Center=  1.6D-17,  1.4D-17, -3.3D-19, r^2= 6.5D+00
   Bfn.  Coefficient  Atom+Function         Bfn.  Coefficient  Atom+Function  
  ----- ------------  ---------------      ----- ------------  ---------------
    58      0.988206  1 N  d  1              56     -0.639801  1 N  d -1       
    53     -0.312870  1 N  d  1              51      0.202563  1 N  d -1       
    55      0.183007  1 N  d -2       

 Vector   11  Occ=0.000000D+00  E= 2.681581D-01  Symmetry=eg
              MO Center= -1.3D-17, -2.2D-17, -7.1D-22, r^2= 6.5D+00
   Bfn.  Coefficient  Atom+Function         Bfn.  Coefficient  Atom+Function  
  ----- ------------  ---------------      ----- ------------  ---------------
    59      1.191381  1 N  d  2              54     -0.377196  1 N  d  2       
    49      0.173349  1 N  d  2       

 Vector   12  Occ=0.000000D+00  E= 2.681581D-01  Symmetry=t2g
              MO Center= -1.2D-17,  2.0D-17,  2.3D-17, r^2= 6.5D+00
   Bfn.  Coefficient  Atom+Function         Bfn.  Coefficient  Atom+Function  
  ----- ------------  ---------------      ----- ------------  ---------------
    56      1.004851  1 N  d -1              58      0.632848  1 N  d  1       
    51     -0.318140  1 N  d -1              53     -0.200362  1 N  d  1       

 Vector   13  Occ=0.000000D+00  E= 2.681581D-01  Symmetry=eg
              MO Center= -1.4D-14,  5.3D-15, -5.9D-15, r^2= 6.5D+00
   Bfn.  Coefficient  Atom+Function         Bfn.  Coefficient  Atom+Function  
  ----- ------------  ---------------      ----- ------------  ---------------
    57      1.191381  1 N  d  0              52     -0.377196  1 N  d  0       
    47      0.173349  1 N  d  0       

 Vector   14  Occ=0.000000D+00  E= 2.681581D-01  Symmetry=t2g
              MO Center= -4.8D-18,  1.6D-17,  2.7D-18, r^2= 6.5D+00
   Bfn.  Coefficient  Atom+Function         Bfn.  Coefficient  Atom+Function  
  ----- ------------  ---------------      ----- ------------  ---------------
    55      1.173342  1 N  d -2              50     -0.371484  1 N  d -2       
    58     -0.205767  1 N  d  1              45      0.170724  1 N  d -2       

 Vector   15  Occ=0.000000D+00  E= 3.232078D-01  Symmetry=t1u
              MO Center=  6.4D-15, -8.4D-15,  1.6D-14, r^2= 8.2D+00
   Bfn.  Coefficient  Atom+Function         Bfn.  Coefficient  Atom+Function  
  ----- ------------  ---------------      ----- ------------  ---------------
    25      1.638210  1 N  py                26      1.602096  1 N  pz         
    24     -1.252064  1 N  px                22     -0.964986  1 N  py         
    23     -0.943713  1 N  pz                21      0.737527  1 N  px         
    28     -0.688621  1 N  py                29     -0.673441  1 N  pz         
    27      0.526305  1 N  px                19      0.265421  1 N  py         

 Vector   16  Occ=0.000000D+00  E= 3.232078D-01  Symmetry=t1u
              MO Center=  5.1D-15, -1.9D-15, -1.1D-14, r^2= 8.2D+00
   Bfn.  Coefficient  Atom+Function         Bfn.  Coefficient  Atom+Function  
  ----- ------------  ---------------      ----- ------------  ---------------
    26      1.919625  1 N  pz                24      1.662994  1 N  px         
    23     -1.130753  1 N  pz                21     -0.979585  1 N  px         
    29     -0.806914  1 N  pz                27     -0.699039  1 N  px         
    25     -0.606301  1 N  py                22      0.357141  1 N  py         
    20      0.311016  1 N  pz                18      0.269437  1 N  px         

 Vector   17  Occ=0.000000D+00  E= 3.232078D-01  Symmetry=t1u
              MO Center=  3.0D-15,  3.6D-15,  2.8D-15, r^2= 8.2D+00
   Bfn.  Coefficient  Atom+Function         Bfn.  Coefficient  Atom+Function  
  ----- ------------  ---------------      ----- ------------  ---------------
    25      1.940818  1 N  py                24      1.576355  1 N  px         
    22     -1.143237  1 N  py                21     -0.928550  1 N  px         
    28     -0.815823  1 N  py                26     -0.752621  1 N  pz         
    27     -0.662621  1 N  px                23      0.443331  1 N  pz         
    29      0.316364  1 N  pz                19      0.314449  1 N  py         

 Vector   18  Occ=0.000000D+00  E= 4.639982D-01  Symmetry=a1g
              MO Center= -1.4D-16,  2.6D-16,  3.9D-16, r^2= 5.2D+00
   Bfn.  Coefficient  Atom+Function         Bfn.  Coefficient  Atom+Function  
  ----- ------------  ---------------      ----- ------------  ---------------
     7      4.818892  1 N  s                  6     -3.719879  1 N  s          
     8     -1.922456  1 N  s                  5      1.136690  1 N  s          
     4     -0.562313  1 N  s                  3      0.178020  1 N  s          

 Vector   19  Occ=0.000000D+00  E= 6.181162D-01  Symmetry=t2u
              MO Center= -3.2D-17, -8.2D-17,  5.4D-26, r^2= 4.7D+00
   Bfn.  Coefficient  Atom+Function         Bfn.  Coefficient  Atom+Function  
  ----- ------------  ---------------      ----- ------------  ---------------
    90      0.695517  1 N  f -1              93     -0.680803  1 N  f  2       
    88     -0.538745  1 N  f -3              92     -0.272635  1 N  f  1       
    83     -0.213511  1 N  f -1              94     -0.211182  1 N  f  3       
    86      0.208995  1 N  f  2              81      0.165385  1 N  f -3       


 center of mass
 --------------
 x =   0.00000000 y =   0.00000000 z =   0.00000000

 moments of inertia (a.u.)
 ------------------
           0.000000000000           0.000000000000           0.000000000000
           0.000000000000           0.000000000000           0.000000000000
           0.000000000000           0.000000000000           0.000000000000

  Mulliken analysis of the total density
  --------------------------------------

    Atom       Charge   Shell Charges
 -----------   ------   -------------------------------------------------------
    1 N    7     7.00   1.69  0.03  0.23  0.20  0.77  0.87  0.22  0.00  0.13  0.38  0.80  0.98  0.61  0.11  0.00  0.00 -0.00  0.00  0.00 -0.00 -0.00  0.00 -0.00  0.00  0.00
  0.00 -0.00 -0.00  0.00  0.00  0.00 -0.00  0.00 -0.00  0.00

 Mulliken analysis of the open-shell density
 -------------------------------------------

    Atom       Charge   Shell Charges
 -----------   ------   -------------------------------------------------------
    1 N    7     3.00  -0.00  0.00  0.00 -0.00  0.00 -0.00  0.00 -0.00  0.13  0.38  0.80  0.98  0.61  0.11  0.00  0.00 -0.00  0.00  0.00 -0.00 -0.00  0.00 -0.00  0.00  0.00
  0.00  0.00 -0.00  0.00 -0.00  0.00 -0.00  0.00  0.00  0.00

       Multipole analysis of the density wrt the origin
       ------------------------------------------------

     L   x y z        total         open         nuclear
     -   - - -        -----         ----         -------
     0   0 0 0     -0.000000     -3.000000      7.000000

     1   1 0 0     -0.000000     -0.000000      0.000000
     1   0 1 0      0.000000      0.000000      0.000000
     1   0 0 1     -0.000000     -0.000000      0.000000

     2   2 0 0     -4.027567     -2.547736      0.000000
     2   1 1 0     -0.000000     -0.000000      0.000000
     2   1 0 1     -0.000000     -0.000000      0.000000
     2   0 2 0     -4.027567     -2.547736      0.000000
     2   0 1 1     -0.000000     -0.000000      0.000000
     2   0 0 2     -4.027567     -2.547736      0.000000


 Task  times  cpu:       18.0s     wall:       18.0s


                                NWChem Input Module
                                -------------------


 Summary of allocated global arrays
-----------------------------------
  No active global arrays



                         GA Statistics for process    0
                         ------------------------------

       create   destroy   get      put      acc     scatter   gather  read&inc
calls:  833      833     5.85e+04 2.16e+04 6758        0        0     1208     
number of processes/call 1.15e+00 1.13e+00 1.21e+00 0.00e+00 0.00e+00
bytes total:             5.03e+08 1.43e+08 1.11e+09 0.00e+00 0.00e+00 9.66e+03
bytes remote:            1.60e+08 2.71e+07 8.47e+07 0.00e+00 0.00e+00 0.00e+00
Max memory consumed for GA by this process: 18003384 bytes

MA_summarize_allocated_blocks: starting scan ...
MA_summarize_allocated_blocks: scan completed: 0 heap blocks, 0 stack blocks
MA usage statistics:

	allocation statistics:
					      heap	     stack
					      ----	     -----
	current number of blocks	         0	         0
	maximum number of blocks	        19	        19
	current total bytes		         0	         0
	maximum total bytes		     80136	 117499560
	maximum total K-bytes		        81	    117500
	maximum total M-bytes		         1	       118


                                     CITATION
                                     --------
                Please cite the following reference when publishing
                           results obtained with NWChem:

                 M. Valiev, E.J. Bylaska, N. Govind, K. Kowalski,
              T.P. Straatsma, H.J.J. van Dam, D. Wang, J. Nieplocha,
                        E. Apra, T.L. Windus, W.A. de Jong
                 "NWChem: a comprehensive and scalable open-source
                  solution for large scale molecular simulations"
                      Comput. Phys. Commun. 181, 1477 (2010)
                           doi:10.1016/j.cpc.2010.04.018

                                      AUTHORS
                                      -------
          E. Apra, E. J. Bylaska, W. A. de Jong, N. Govind, K. Kowalski,
       T. P. Straatsma, M. Valiev, H. J. J. van Dam, D. Wang, T. L. Windus,
        J. Hammond, J. Autschbach, K. Bhaskaran-Nair, J. Brabec, K. Lopata,
    S. A. Fischer, S. Krishnamoorthy, M. Jacquelin, W. Ma, M. Klemm, O. Villa,
      Y. Chen, V. Anisimov, F. Aquino, S. Hirata, M. T. Hackler, V. Konjkov,
            D. Mejia-Rodriguez, T. Risthaus, M. Malagoli, A. Marenich,
   A. Otero-de-la-Roza, J. Mullin, P. Nichols, R. Peverati, J. Pittner, Y. Zhao,
        P.-D. Fan, A. Fonari, M. J. Williamson, R. J. Harrison, J. R. Rehr,
      M. Dupuis, D. Silverstein, D. M. A. Smith, J. Nieplocha, V. Tipparaju,
    M. Krishnan, B. E. Van Kuiken, A. Vazquez-Mayagoitia, L. Jensen, M. Swart,
      Q. Wu, T. Van Voorhis, A. A. Auer, M. Nooijen, L. D. Crosby, E. Brown,
      G. Cisneros, G. I. Fann, H. Fruchtl, J. Garza, K. Hirao, R. A. Kendall,
      J. A. Nichols, K. Tsemekhman, K. Wolinski, J. Anchell, D. E. Bernholdt,
      P. Borowski, T. Clark, D. Clerc, H. Dachsel, M. J. O. Deegan, K. Dyall,
    D. Elwood, E. Glendening, M. Gutowski, A. C. Hess, J. Jaffe, B. G. Johnson,
     J. Ju, R. Kobayashi, R. Kutteh, Z. Lin, R. Littlefield, X. Long, B. Meng,
      T. Nakajima, S. Niu, L. Pollack, M. Rosing, K. Glaesemann, G. Sandrone,
      M. Stave, H. Taylor, G. Thomas, J. H. van Lenthe, A. T. Wong, Z. Zhang.

 Total times  cpu:       43.4s     wall:       43.4s
