 argument  1 = /home/list1234/source/nwchem-6.8.1-release/QA/tests/o2_zora_so/o2_zora_so.nw



============================== echo of input deck ==============================
echo
start o2_zora_so

geometry noautoz units angstrom
symmetry c1
 O 0 0 -0.60000000
 O 0 0  0.60000000
end

basis spherical
 * library "DZVP (DFT Orbital)"
end

dft
 grid xfine
 iterations 100
 XC b3lyp
 odft
 mult 3
end

driver
 clear
 maxiter 100
end

relativistic
  zora on
  zora:cutoff 1d-30
end

task sodft optimize
task sodft freq
================================================================================


                                         
                                         


              Northwest Computational Chemistry Package (NWChem) 6.8
              ------------------------------------------------------


                    Environmental Molecular Sciences Laboratory
                       Pacific Northwest National Laboratory
                                Richland, WA 99352

                              Copyright (c) 1994-2018
                       Pacific Northwest National Laboratory
                            Battelle Memorial Institute

             NWChem is an open-source computational chemistry package
                        distributed under the terms of the
                      Educational Community License (ECL) 2.0
             A copy of the license is included with this distribution
                              in the LICENSE.TXT file

                                  ACKNOWLEDGMENT
                                  --------------

            This software and its documentation were developed at the
            EMSL at Pacific Northwest National Laboratory, a multiprogram
            national laboratory, operated for the U.S. Department of Energy
            by Battelle under Contract Number DE-AC05-76RL01830. Support
            for this work was provided by the Department of Energy Office
            of Biological and Environmental Research, Office of Basic
            Energy Sciences, and the Office of Advanced Scientific Computing.


           Job information
           ---------------

    hostname        = list1234-B360M-H
    program         = /home/list1234/source/nwchem-6.8.1-release/bin/LINUX64/nwchem
    date            = Sun Jun 30 07:07:24 2019

    compiled        = Sun_Jun_30_05:21:11_2019
    source          = /home/list1234/source/nwchem-6.8.1-release
    nwchem branch   = Development
    nwchem revision = N/A
    ga revision     = 5.6.5
    use scalapack   = T
    input           = /home/list1234/source/nwchem-6.8.1-release/QA/tests/o2_zora_so/o2_zora_so.nw
    prefix          = o2_zora_so.
    data base       = ./o2_zora_so.db
    status          = startup
    nproc           =        4
    time left       =     -1s



           Memory information
           ------------------

    heap     =   86247166 doubles =    658.0 Mbytes
    stack    =   86247163 doubles =    658.0 Mbytes
    global   =  172494336 doubles =   1316.0 Mbytes (distinct from heap & stack)
    total    =  344988665 doubles =   2632.1 Mbytes
    verify   = yes
    hardfail = no 


           Directory information
           ---------------------

  0 permanent = .
  0 scratch   = .




                                NWChem Input Module
                                -------------------



 Scaling coordinates for geometry "geometry" by  1.889725989
 (inverse scale =  0.529177249)

 Turning off AUTOSYM since
 SYMMETRY directive was detected!



                             Geometry "geometry" -> ""
                             -------------------------

 Output coordinates in angstroms (scale by  1.889725989 to convert to a.u.)

  No.       Tag          Charge          X              Y              Z
 ---- ---------------- ---------- -------------- -------------- --------------
    1 O                    8.0000     0.00000000     0.00000000    -0.60000000
    2 O                    8.0000     0.00000000     0.00000000     0.60000000

      Atomic Mass 
      ----------- 

      O                 15.994910


 Effective nuclear repulsion energy (a.u.)      28.2227866133

            Nuclear Dipole moment (a.u.) 
            ----------------------------
        X                 Y               Z
 ---------------- ---------------- ----------------
     0.0000000000     0.0000000000     0.0000000000


            XYZ format geometry
            -------------------
     2
 geometry
 O                     0.00000000     0.00000000    -0.60000000
 O                     0.00000000     0.00000000     0.60000000

 ==============================================================================
                                internuclear distances
 ------------------------------------------------------------------------------
       center one      |      center two      | atomic units |  angstroms
 ------------------------------------------------------------------------------
    2 O                |   1 O                |     2.26767  |     1.20000
 ------------------------------------------------------------------------------
                         number of included internuclear distances:          1
 ==============================================================================





 Summary of "ao basis" -> "" (spherical)
 ------------------------------------------------------------------------------
       Tag                 Description            Shells   Functions and Types
 ---------------- ------------------------------  ------  ---------------------
 *                     DZVP (DFT Orbital)             on all atoms 



  Deleted DRIVER restart files 



                           NWChem Geometry Optimization
                           ----------------------------


 maximum gradient threshold         (gmax) =   0.000450
 rms gradient threshold             (grms) =   0.000300
 maximum cartesian step threshold   (xmax) =   0.001800
 rms cartesian step threshold       (xrms) =   0.001200
 fixed trust radius                (trust) =   0.300000
 maximum step size to saddle      (sadstp) =   0.100000
 energy precision                  (eprec) =   1.0D-07
 maximum number of steps          (nptopt) =  100
 initial hessian option           (inhess) =    0
 line search option               (linopt) =    1
 hessian update option            (modupd) =    1
 saddle point option              (modsad) =    0
 initial eigen-mode to follow     (moddir) =    0
 initial variable to follow       (vardir) =    0
 follow first negative mode     (firstneg) =    T
 apply conjugacy                    (opcg) =    F
 source of zmatrix                         =           


          -------------------
          Energy Minimization
          -------------------


 Using diagonal initial Hessian 

          --------
          Step   0
          --------


                         Geometry "geometry" -> "geometry"
                         ---------------------------------

 Output coordinates in angstroms (scale by  1.889725989 to convert to a.u.)

  No.       Tag          Charge          X              Y              Z
 ---- ---------------- ---------- -------------- -------------- --------------
    1 O                    8.0000     0.00000000     0.00000000    -0.60000000
    2 O                    8.0000     0.00000000     0.00000000     0.60000000

      Atomic Mass 
      ----------- 

      O                 15.994910


 Effective nuclear repulsion energy (a.u.)      28.2227866133

            Nuclear Dipole moment (a.u.) 
            ----------------------------
        X                 Y               Z
 ---------------- ---------------- ----------------
     0.0000000000     0.0000000000     0.0000000000


                                 NWChem DFT Module
                                 -----------------


                      Basis "ao basis" -> "ao basis" (spherical)
                      -----
  O (Oxygen)
  ----------
            Exponent  Coefficients 
       -------------- ---------------------------------------------------------
  1 S  5.22290220E+03 -0.001936
  1 S  7.82539940E+02 -0.014851
  1 S  1.77267430E+02 -0.073319
  1 S  4.95166880E+01 -0.245116
  1 S  1.56664400E+01 -0.480285
  1 S  5.17935990E+00 -0.335943

  2 S  1.06014410E+01  0.078806
  2 S  9.42317000E-01 -0.567695

  3 S  2.77474600E-01  1.000000

  4 P  3.34241260E+01  0.017560
  4 P  7.62217140E+00  0.107630
  4 P  2.23820930E+00  0.323526
  4 P  6.86730000E-01  0.483223

  5 P  1.93813500E-01  1.000000

  6 D  8.00000000E-01  1.000000



 Summary of "ao basis" -> "ao basis" (spherical)
 ------------------------------------------------------------------------------
       Tag                 Description            Shells   Functions and Types
 ---------------- ------------------------------  ------  ---------------------
 O                     DZVP (DFT Orbital)            6       14   3s2p1d




 Summary of "ao basis" -> "ao basis" (spherical)
 ------------------------------------------------------------------------------
       Tag                 Description            Shells   Functions and Types
 ---------------- ------------------------------  ------  ---------------------
 O                     DZVP (DFT Orbital)            6       14   3s2p1d


  Caching 1-el integrals 

            General Information
            -------------------
          SCF calculation type: DFT
          Wavefunction type:  spin polarized.
          No. of atoms     :     2
          No. of electrons :    16
           Alpha electrons :     9
            Beta electrons :     7
          Charge           :     0
          Spin multiplicity:     3
          Use of symmetry is: off; symmetry adaption is: off
          Maximum number of iterations: 100
          AO basis - number of functions:    28
                     number of shells:    12
          Convergence on energy requested:  1.00D-06
          Convergence on density requested:  1.00D-05
          Convergence on gradient requested:  5.00D-04

              XC Information
              --------------
                         B3LYP Method XC Potential
                     Hartree-Fock (Exact) Exchange  0.200          
                        Slater Exchange Functional  0.800 local    
                    Becke 1988 Exchange Functional  0.720 non-local
              Lee-Yang-Parr Correlation Functional  0.810          
                  VWN I RPA Correlation Functional  0.190 local    

             Grid Information
             ----------------
          Grid used for XC integration:  xfine     
          Radial quadrature: Mura-Knowles        
          Angular quadrature: Lebedev. 
          Tag              B.-S. Rad. Rad. Pts. Rad. Cut. Ang. Pts.
          ---              ---------- --------- --------- ---------
          O                   0.60      100           6.0      1454
          Grid pruning is: on 
          Number of quadrature shells:   200
          Spatial weights used:  Erf1

          Convergence Information
          -----------------------
          Convergence aids based upon iterative change in 
          total energy or number of iterations. 
          Levelshifting, if invoked, occurs when the 
          HOMO/LUMO gap drops below (HL_TOL):  1.00D-02
          DIIS, if invoked, will attempt to extrapolate 
          using up to (NFOCK): 10 stored Fock matrices.

                    Damping( 0%)  Levelshifting(0.5)       DIIS
                  --------------- ------------------- ---------------
          dE  on:    start            ASAP                start   
          dE off:    2 iters        100 iters           100 iters 


      Screening Tolerance Information
      -------------------------------
          Density screening/tol_rho:  1.00D-10
          AO Gaussian exp screening on grid/accAOfunc:  14
          CD Gaussian exp screening on grid/accCDfunc:  20
          XC Gaussian exp screening on grid/accXCfunc:  20
          Schwarz screening/accCoul:  1.00D-10

 Performing spin-orbit DFT (SO-DFT) calculations
 -----------------------------------------------

          Performing ZORA calculations
          ----------------------------


      Superposition of Atomic Density Guess
      -------------------------------------

 Sum of atomic energies:        -149.52590251

 Read atomic ZORA corrections from ./o2_zora_so.zora_so

 dft_zora_read_so: failed to open ./o2_zora_so.zora_so
 Forcing recalculation of ZORA corrections
       Generating atomic ZORA corrections
       ----------------------------------


 Grid_pts file          = ./o2_zora_so.gridpts.0
 Record size in doubles =  12289        No. of grid_pts per rec  =   3070
 Max. records in memory =     28        Max. recs in file   = 253312716


 Wrote atomic ZORA corrections to ./o2_zora_so.zora_so


      Superposition of Atomic Density Guess
      -------------------------------------

 Sum of atomic energies:        -149.52590251

      Non-variational initial energy
      ------------------------------

 Total energy =    -149.627439
 1-e energy   =    -262.351113
 2-e energy   =      84.500888
 HOMO         =      -0.200062
 LUMO         =      -0.200062

   Time prior to 1st pass:      0.6

           Memory utilization after 1st SCF pass: 
           Heap Space remaining (MW):       51.47            51468422
          Stack Space remaining (MW):       86.24            86239956

   convergence    iter        energy       DeltaE   RMS-Dens  Diis-err    time
 ---------------- ----- ----------------- --------- --------- ---------  ------
 d= 0,ls=0.0,diis     1   -150.4634219715 -1.79D+02  1.58D-02  1.95D-01     0.7
                                                     6.16D-03  1.95D-01
 d= 0,ls=0.0,diis     2   -150.4860181971 -2.26D-02  5.84D-03  9.21D-02     1.0
                                                     4.44D-03  9.21D-02
 d= 0,ls=0.0,diis     3   -150.5067289293 -2.07D-02  1.00D-03  7.64D-04     1.2
                                                     1.90D-04  7.64D-04
 d= 0,ls=0.0,diis     4   -150.5069524101 -2.23D-04  6.01D-05  3.59D-05     1.4
                                                     1.44D-04  3.59D-05
 d= 0,ls=0.0,diis     5   -150.5069619729 -9.56D-06  3.74D-05  9.15D-07     1.6
                                                     1.79D-05  9.15D-07
 d= 0,ls=0.0,diis     6   -150.5069623135 -3.41D-07  8.07D-07  1.14D-09     1.8
                                                     6.76D-07  1.14D-09
  zoraso: enough mem for repl


      Total SO-DFT energy =     -150.506962313804
      One electron energy =     -262.318779121543
           Coulomb energy =      100.592134910227
    Exchange-Corr. energy =      -17.003104715805
 Nuclear repulsion energy =       28.222786613317

       Scaling correction =        0.059668197583

 Numeric. integr. density =       16.000000010069

     Total iterative time =      1.4s



                       DFT Final Molecular Orbital Analysis
                       ------------------------------------

 Vector    1  Occ=1.000000D+00  E=-1.932111D+01
              MO Center= -7.4D-12, -7.2D-12, -3.4D-05, r^2= 3.8D-01
  Bfn.         Coefficient        Function           Bfn.         Coefficient        Function  
  ----     -------------------  ------------         ----     -------------------  ------------
     1     0.706043   0.000000  1 O  s                 15     0.706003   0.000000  2 O  s          

 Vector    2  Occ=1.000000D+00  E=-1.932088D+01
              MO Center= -7.6D-12, -7.4D-12,  3.4D-05, r^2= 3.8D-01
  Bfn.         Coefficient        Function           Bfn.         Coefficient        Function  
  ----     -------------------  ------------         ----     -------------------  ------------
    15     0.706054   0.000000  2 O  s                  1    -0.706014   0.000000  1 O  s          

 Vector    3  Occ=1.000000D+00  E=-1.928945D+01
              MO Center= -2.2D-21, -2.2D-21, -3.8D-19, r^2= 2.1D-14
  Bfn.         Coefficient        Function           Bfn.         Coefficient        Function  
  ----     -------------------  ------------         ----     -------------------  ------------
    29     0.506053   0.492678  1 O  s                 43     0.506035   0.492661  2 O  s          

 Vector    4  Occ=1.000000D+00  E=-1.928908D+01
              MO Center=  1.2D-21,  1.2D-21,  3.8D-19, r^2= 2.2D-14
  Bfn.         Coefficient        Function           Bfn.         Coefficient        Function  
  ----     -------------------  ------------         ----     -------------------  ------------
    43     0.503984   0.494832  2 O  s                 29    -0.503967  -0.494815  1 O  s          

 Vector    5  Occ=1.000000D+00  E=-1.325391D+00
              MO Center=  9.0D-10,  8.6D-10, -2.1D-09, r^2= 4.6D-01
  Bfn.         Coefficient        Function           Bfn.         Coefficient        Function  
  ----     -------------------  ------------         ----     -------------------  ------------
     2     0.370901  -0.000000  1 O  s                 16     0.370901   0.000000  2 O  s          
    17    -0.228111   0.000000  2 O  s                  3    -0.228111  -0.000000  1 O  s          
     6    -0.197518   0.000000  1 O  pz                20     0.197518   0.000000  2 O  pz         
     1    -0.167218   0.000000  1 O  s                 15    -0.167218  -0.000000  2 O  s          

 Vector    6  Occ=1.000000D+00  E=-1.268235D+00
              MO Center=  1.4D-17,  1.7D-17, -4.0D-16, r^2= 3.3D-08
  Bfn.         Coefficient        Function           Bfn.         Coefficient        Function  
  ----     -------------------  ------------         ----     -------------------  ------------
    30    -0.222529  -0.268391  1 O  s                 44    -0.222529  -0.268391  2 O  s          
    45     0.148809   0.179478  2 O  s                 31     0.148809   0.179478  1 O  s          
    34     0.134912   0.162717  1 O  pz                48    -0.134912  -0.162717  2 O  pz         
    29     0.104124   0.125583  1 O  s                 43     0.104124   0.125583  2 O  s          
    40     0.020095   0.024237  1 O  d  0              54     0.020095   0.024237  2 O  d  0       

 Vector    7  Occ=1.000000D+00  E=-8.424656D-01
              MO Center=  8.0D-10,  7.9D-10, -1.2D-08, r^2= 1.0D+00
  Bfn.         Coefficient        Function           Bfn.         Coefficient        Function  
  ----     -------------------  ------------         ----     -------------------  ------------
     2    -0.417081   0.000000  1 O  s                 16     0.417081   0.000000  2 O  s          
     3     0.409183   0.000000  1 O  s                 17    -0.409183   0.000000  2 O  s          
     1     0.178945  -0.000000  1 O  s                 15    -0.178945  -0.000000  2 O  s          
     6    -0.147983  -0.000000  1 O  pz                20    -0.147983  -0.000000  2 O  pz         
     9    -0.031127  -0.000000  1 O  pz                23    -0.031127  -0.000000  2 O  pz         

 Vector    8  Occ=1.000000D+00  E=-7.541506D-01
              MO Center= -7.4D-16, -6.0D-16, -1.4D-14, r^2= 3.1D-07
  Bfn.         Coefficient        Function           Bfn.         Coefficient        Function  
  ----     -------------------  ------------         ----     -------------------  ------------
    31     0.318312   0.260249  1 O  s                 45    -0.318312  -0.260249  2 O  s          
    30    -0.308215  -0.251993  1 O  s                 44     0.308215   0.251993  2 O  s          
    29     0.135139   0.110488  1 O  s                 43    -0.135139  -0.110488  2 O  s          
    34    -0.122955  -0.100527  1 O  pz                48    -0.122955  -0.100527  2 O  pz         
    37    -0.036771  -0.030064  1 O  pz                51    -0.036771  -0.030064  2 O  pz         

 Vector    9  Occ=1.000000D+00  E=-5.750023D-01
              MO Center=  1.8D-09,  1.9D-09, -7.1D-09, r^2= 4.1D-01
  Bfn.         Coefficient        Function           Bfn.         Coefficient        Function  
  ----     -------------------  ------------         ----     -------------------  ------------
     4     0.268936   0.273559  1 O  px                 5     0.273559  -0.268936  1 O  py         
    18     0.268936   0.273559  2 O  px                19     0.273559  -0.268936  2 O  py         
     7     0.082607   0.084027  1 O  px                 8     0.084027  -0.082607  1 O  py         
    21     0.082607   0.084027  2 O  px                22     0.084027  -0.082607  2 O  py         

 Vector   10  Occ=1.000000D+00  E=-5.741566D-01
              MO Center=  2.0D-09,  2.0D-09, -7.1D-09, r^2= 4.1D-01
  Bfn.         Coefficient        Function           Bfn.         Coefficient        Function  
  ----     -------------------  ------------         ----     -------------------  ------------
     5    -0.272992  -0.269060  1 O  py                 4    -0.269060   0.272992  1 O  px         
    19    -0.272992  -0.269060  2 O  py                18    -0.269060   0.272992  2 O  px         
     8    -0.084166  -0.082954  1 O  py                 7    -0.082954   0.084166  1 O  px         
    22    -0.084166  -0.082954  2 O  py                21    -0.082954   0.084166  2 O  px         

 Vector   11  Occ=1.000000D+00  E=-5.571486D-01
              MO Center= -4.9D-09, -4.7D-09,  1.1D-08, r^2= 1.1D+00
  Bfn.         Coefficient        Function           Bfn.         Coefficient        Function  
  ----     -------------------  ------------         ----     -------------------  ------------
     6    -0.530094   0.000000  1 O  pz                20     0.530094  -0.000000  2 O  pz         
    17     0.263611  -0.000000  2 O  s                  3     0.263611  -0.000000  1 O  s          
     9    -0.148581  -0.000000  1 O  pz                23     0.148581  -0.000000  2 O  pz         
    16    -0.124947   0.000000  2 O  s                  2    -0.124947   0.000000  1 O  s          
    15     0.063068  -0.000000  2 O  s                  1     0.063068  -0.000000  1 O  s          

 Vector   12  Occ=1.000000D+00  E=-5.164052D-01
              MO Center=  4.6D-15,  4.6D-15,  3.6D-13, r^2= 4.0D-06
  Bfn.         Coefficient        Function           Bfn.         Coefficient        Function  
  ----     -------------------  ------------         ----     -------------------  ------------
    34    -0.367294  -0.367585  1 O  pz                48     0.367294   0.367585  2 O  pz         
    45     0.199538   0.199696  2 O  s                 31     0.199538   0.199696  1 O  s          
    51     0.111513   0.111602  2 O  pz                37    -0.111513  -0.111602  1 O  pz         
    44    -0.088146  -0.088216  2 O  s                 30    -0.088146  -0.088216  1 O  s          
    43     0.047153   0.047191  2 O  s                 29     0.047153   0.047191  1 O  s          

 Vector   13  Occ=1.000000D+00  E=-4.730901D-01
              MO Center= -9.1D-15, -8.7D-15,  4.0D-14, r^2= 7.6D-07
  Bfn.         Coefficient        Function           Bfn.         Coefficient        Function  
  ----     -------------------  ------------         ----     -------------------  ------------
    32     0.359526   0.000000  1 O  px                33     0.000000   0.359526  1 O  py         
    46     0.359526   0.000000  2 O  px                47     0.000000   0.359526  2 O  py         
    35     0.141660   0.000000  1 O  px                36     0.000000   0.141660  1 O  py         
    49     0.141660   0.000000  2 O  px                50     0.000000   0.141660  2 O  py         
    55     0.027891   0.000000  2 O  d  1              53    -0.000000  -0.027891  2 O  d -1       

 Vector   14  Occ=1.000000D+00  E=-4.723484D-01
              MO Center=  3.0D-17,  2.9D-17, -4.7D-20, r^2= 8.5D-12
  Bfn.         Coefficient        Function           Bfn.         Coefficient        Function  
  ----     -------------------  ------------         ----     -------------------  ------------
    33     0.359126  -0.006401  1 O  py                32     0.006401   0.359126  1 O  px         
    47     0.359126  -0.006401  2 O  py                46     0.006401   0.359126  2 O  px         
    36     0.141985  -0.002531  1 O  py                35     0.002531   0.141985  1 O  px         
    50     0.141985  -0.002531  2 O  py                49     0.002531   0.141985  2 O  px         
    53    -0.027905   0.000497  2 O  d -1              55     0.000497   0.027905  2 O  d  1       

 Vector   15  Occ=1.000000D+00  E=-3.143025D-01
              MO Center= -4.0D-10, -3.6D-10,  7.0D-09, r^2= 4.8D-01
  Bfn.         Coefficient        Function           Bfn.         Coefficient        Function  
  ----     -------------------  ------------         ----     -------------------  ------------
    18    -0.329413  -0.293793  2 O  px                19    -0.293793   0.329413  2 O  py         
     4     0.329413   0.293793  1 O  px                 5     0.293793  -0.329413  1 O  py         
    21    -0.165727  -0.147807  2 O  px                22    -0.147807   0.165727  2 O  py         
     7     0.165727   0.147807  1 O  px                 8     0.147807  -0.165727  1 O  py         

 Vector   16  Occ=1.000000D+00  E=-3.132351D-01
              MO Center= -4.0D-10, -3.6D-10,  7.0D-09, r^2= 4.8D-01
  Bfn.         Coefficient        Function           Bfn.         Coefficient        Function  
  ----     -------------------  ------------         ----     -------------------  ------------
    19     0.293537   0.329151  2 O  py                18     0.329151  -0.293537  2 O  px         
     5    -0.293537  -0.329151  1 O  py                 4    -0.329151   0.293537  1 O  px         
    22     0.148337   0.166334  2 O  py                21     0.166334  -0.148337  2 O  px         
     8    -0.148337  -0.166334  1 O  py                 7    -0.166334   0.148337  1 O  px         

 Vector   17  Occ=0.000000D+00  E=-1.209929D-01
              MO Center=  1.1D-16,  1.2D-16, -3.3D-14, r^2= 7.4D-06
  Bfn.         Coefficient        Function           Bfn.         Coefficient        Function  
  ----     -------------------  ------------         ----     -------------------  ------------
    46     0.411866   0.000000  2 O  px                47     0.000000   0.411866  2 O  py         
    32    -0.411866  -0.000000  1 O  px                33    -0.000000  -0.411866  1 O  py         
    49     0.284893   0.000000  2 O  px                50     0.000000   0.284893  2 O  py         
    35    -0.284893  -0.000000  1 O  px                36    -0.000000  -0.284893  1 O  py         

 Vector   18  Occ=0.000000D+00  E=-1.200837D-01
              MO Center= -3.0D-19, -2.9D-19,  1.1D-20, r^2= 2.0D-13
  Bfn.         Coefficient        Function           Bfn.         Coefficient        Function  
  ----     -------------------  ------------         ----     -------------------  ------------
    47    -0.411394   0.005013  2 O  py                46    -0.005013  -0.411394  2 O  px         
    33     0.411394  -0.005013  1 O  py                32     0.005013   0.411394  1 O  px         
    50    -0.285755   0.003482  2 O  py                49    -0.003482  -0.285755  2 O  px         
    36     0.285755  -0.003482  1 O  py                35     0.003482   0.285755  1 O  px         

 Vector   19  Occ=0.000000D+00  E= 1.726467D-01
              MO Center= -4.2D-10, -4.0D-10,  4.0D-09, r^2= 2.1D+00
  Bfn.         Coefficient        Function           Bfn.         Coefficient        Function  
  ----     -------------------  ------------         ----     -------------------  ------------
    17    -1.133289  -0.000000  2 O  s                  3     1.133289   0.000000  1 O  s          
    23     0.988696   0.000000  2 O  pz                 9     0.988696   0.000000  1 O  pz         
    20     0.487832   0.000000  2 O  pz                 6     0.487832   0.000000  1 O  pz         
     2    -0.229553   0.000000  1 O  s                 16     0.229553   0.000000  2 O  s          
     1     0.102532   0.000000  1 O  s                 15    -0.102532  -0.000000  2 O  s          

 Vector   20  Occ=0.000000D+00  E= 2.078311D-01
              MO Center= -1.7D-15, -1.4D-15, -3.9D-15, r^2= 3.0D-06
  Bfn.         Coefficient        Function           Bfn.         Coefficient        Function  
  ----     -------------------  ------------         ----     -------------------  ------------
    45     0.963730   0.818465  2 O  s                 31    -0.963730  -0.818465  1 O  s          
    51    -0.825667  -0.701213  2 O  pz                37    -0.825667  -0.701213  1 O  pz         
    48    -0.334520  -0.284097  2 O  pz                34    -0.334520  -0.284097  1 O  pz         
    30     0.167799   0.142506  1 O  s                 44    -0.167799  -0.142506  2 O  s          
    29    -0.082375  -0.069958  1 O  s                 43     0.082375   0.069958  2 O  s          

 Vector   21  Occ=0.000000D+00  E= 4.519707D-01
              MO Center= -1.9D-10, -1.9D-10, -3.3D-08, r^2= 2.6D+00
  Bfn.         Coefficient        Function           Bfn.         Coefficient        Function  
  ----     -------------------  ------------         ----     -------------------  ------------
     9     1.180065   0.000000  1 O  pz                23     1.180065   0.000000  2 O  pz         
    17    -1.134507  -0.000000  2 O  s                  3     1.134507   0.000000  1 O  s          
     6    -0.644477  -0.000000  1 O  pz                20    -0.644477  -0.000000  2 O  pz         
    26    -0.141726  -0.000000  2 O  d  0              12     0.141726  -0.000000  1 O  d  0       
    16    -0.114758   0.000000  2 O  s                  2     0.114758   0.000000  1 O  s          

 Vector   22  Occ=0.000000D+00  E= 4.748787D-01
              MO Center=  4.5D-13, -5.7D-13, -7.8D-11, r^2= 6.9D-03
  Bfn.         Coefficient        Function           Bfn.         Coefficient        Function  
  ----     -------------------  ------------         ----     -------------------  ------------
    37    -0.608049   0.930277  1 O  pz                51    -0.608049   0.930277  2 O  pz         
    45     0.582137  -0.890634  2 O  s                 31    -0.582137   0.890634  1 O  s          
    34     0.367169  -0.561746  1 O  pz                48     0.367169  -0.561746  2 O  pz         
    54     0.080301  -0.122856  2 O  d  0              40    -0.080301   0.122856  1 O  d  0       
    44     0.074695  -0.114279  2 O  s                 30    -0.074695   0.114279  1 O  s          

 Vector   23  Occ=0.000000D+00  E= 4.824142D-01
              MO Center=  6.3D-11, -7.5D-11, -1.2D-08, r^2= 1.0D+00
  Bfn.         Coefficient        Function           Bfn.         Coefficient        Function  
  ----     -------------------  ------------         ----     -------------------  ------------
     8    -0.367996  -0.251726  1 O  py                 7     0.251726  -0.367996  1 O  px         
    22    -0.367996  -0.251726  2 O  py                21     0.251726  -0.367996  2 O  px         
     5     0.327521   0.224040  1 O  py                 4    -0.224040   0.327521  1 O  px         
    19     0.327521   0.224040  2 O  py                18    -0.224040   0.327521  2 O  px         
    37     0.050252  -0.073463  1 O  pz                51     0.050252  -0.073463  2 O  pz         

 Vector   24  Occ=0.000000D+00  E= 4.830498D-01
              MO Center=  6.4D-11, -7.5D-11, -1.2D-08, r^2= 1.1D+00
  Bfn.         Coefficient        Function           Bfn.         Coefficient        Function  
  ----     -------------------  ------------         ----     -------------------  ------------
     7     0.252828   0.368919  1 O  px                 8    -0.368919   0.252828  1 O  py         
    21     0.252828   0.368919  2 O  px                22    -0.368919   0.252828  2 O  py         
     4    -0.225203  -0.328609  1 O  px                 5     0.328609  -0.225203  1 O  py         
    18    -0.225203  -0.328609  2 O  px                19     0.328609  -0.225203  2 O  py         
    13     0.019266   0.028113  1 O  d  1              27    -0.019266  -0.028113  2 O  d  1       

 Vector   25  Occ=0.000000D+00  E= 5.242783D-01
              MO Center= -2.2D-14, -1.5D-14, -5.9D-12, r^2= 1.7D-04
  Bfn.         Coefficient        Function           Bfn.         Coefficient        Function  
  ----     -------------------  ------------         ----     -------------------  ------------
    36     0.000000   0.440303  1 O  py                35     0.440303   0.000000  1 O  px         
    50     0.000000   0.440303  2 O  py                49     0.440303   0.000000  2 O  px         
    33    -0.000000  -0.416530  1 O  py                32    -0.416530  -0.000000  1 O  px         
    47    -0.000000  -0.416530  2 O  py                46    -0.416530  -0.000000  2 O  px         
    53     0.000000   0.039941  2 O  d -1              39    -0.000000  -0.039941  1 O  d -1       

 Vector   26  Occ=0.000000D+00  E= 5.250196D-01
              MO Center= -2.7D-18, -1.8D-18, -1.3D-19, r^2= 7.9D-12
  Bfn.         Coefficient        Function           Bfn.         Coefficient        Function  
  ----     -------------------  ------------         ----     -------------------  ------------
    35     0.129102  -0.420852  1 O  px                36    -0.420852  -0.129102  1 O  py         
    49     0.129102  -0.420852  2 O  px                50    -0.420852  -0.129102  2 O  py         
    32    -0.122235   0.398468  1 O  px                33     0.398468   0.122235  1 O  py         
    46    -0.122235   0.398468  2 O  px                47     0.398468   0.122235  2 O  py         
    55    -0.011749   0.038300  2 O  d  1              41     0.011749  -0.038300  1 O  d  1       

 Vector   27  Occ=0.000000D+00  E= 5.442182D-01
              MO Center= -1.5D-10, -1.2D-10,  2.8D-08, r^2= 2.8D+00
  Bfn.         Coefficient        Function           Bfn.         Coefficient        Function  
  ----     -------------------  ------------         ----     -------------------  ------------
    23     0.935797  -0.000000  2 O  pz                 9    -0.935797  -0.000000  1 O  pz         
    20    -0.446678  -0.000000  2 O  pz                 6     0.446678   0.000000  1 O  pz         
     3     0.313516  -0.000000  1 O  s                 17     0.313516   0.000000  2 O  s          
    12     0.066010   0.000000  1 O  d  0              26     0.066010   0.000000  2 O  d  0       

 Vector   28  Occ=0.000000D+00  E= 5.520484D-01
              MO Center=  5.9D-14,  4.9D-14,  5.6D-13, r^2= 1.5D-04
  Bfn.         Coefficient        Function           Bfn.         Coefficient        Function  
  ----     -------------------  ------------         ----     -------------------  ------------
    51     0.722339   0.593291  2 O  pz                37    -0.722339  -0.593291  1 O  pz         
    48    -0.349567  -0.287116  2 O  pz                34     0.349567   0.287116  1 O  pz         
    31     0.224580   0.184458  1 O  s                 45     0.224580   0.184458  2 O  s          
    40     0.050745   0.041679  1 O  d  0              54     0.050745   0.041679  2 O  d  0       

 Vector   29  Occ=0.000000D+00  E= 5.864249D-01
              MO Center=  2.4D-10,  2.1D-10,  1.2D-08, r^2= 1.3D+00
  Bfn.         Coefficient        Function           Bfn.         Coefficient        Function  
  ----     -------------------  ------------         ----     -------------------  ------------
    21    -0.643292  -0.576297  2 O  px                22    -0.576297   0.643292  2 O  py         
     7     0.643292   0.576297  1 O  px                 8     0.576297  -0.643292  1 O  py         
    18     0.282228   0.252836  2 O  px                19     0.252836  -0.282228  2 O  py         
     4    -0.282228  -0.252836  1 O  px                 5    -0.252836   0.282228  1 O  py         

 Vector   30  Occ=0.000000D+00  E= 5.870349D-01
              MO Center=  2.4D-10,  2.1D-10,  1.2D-08, r^2= 1.3D+00
  Bfn.         Coefficient        Function           Bfn.         Coefficient        Function  
  ----     -------------------  ------------         ----     -------------------  ------------
    22    -0.576367  -0.643038  2 O  py                21    -0.643038   0.576367  2 O  px         
     8     0.576367   0.643038  1 O  py                 7     0.643038  -0.576367  1 O  px         
    19     0.253197   0.282486  2 O  py                18     0.282486  -0.253197  2 O  px         
     5    -0.253197  -0.282486  1 O  py                 4    -0.282486   0.253197  1 O  px         

 Vector   31  Occ=0.000000D+00  E= 6.326217D-01
              MO Center= -3.3D-15, -2.7D-15,  6.4D-13, r^2= 5.3D-05
  Bfn.         Coefficient        Function           Bfn.         Coefficient        Function  
  ----     -------------------  ------------         ----     -------------------  ------------
    50     0.000000   0.846553  2 O  py                49     0.846553   0.000000  2 O  px         
    36    -0.000000  -0.846553  1 O  py                35    -0.846553  -0.000000  1 O  px         
    47    -0.000000  -0.410128  2 O  py                46    -0.410128  -0.000000  2 O  px         
    33     0.000000   0.410128  1 O  py                32     0.410128   0.000000  1 O  px         

 Vector   32  Occ=0.000000D+00  E= 6.333303D-01
              MO Center=  1.7D-19,  1.5D-19,  4.0D-20, r^2= 6.5D-13
  Bfn.         Coefficient        Function           Bfn.         Coefficient        Function  
  ----     -------------------  ------------         ----     -------------------  ------------
    49    -0.184272   0.825977  2 O  px                50     0.825977   0.184272  2 O  py         
    35     0.184272  -0.825977  1 O  px                36    -0.825977  -0.184272  1 O  py         
    46     0.089397  -0.400711  2 O  px                47    -0.400711  -0.089397  2 O  py         
    32    -0.089397   0.400711  1 O  px                33     0.400711   0.089397  1 O  py         

 Vector   33  Occ=0.000000D+00  E= 8.844167D-01
              MO Center=  8.6D-10,  8.5D-10, -2.2D-10, r^2= 1.4D+00
  Bfn.         Coefficient        Function           Bfn.         Coefficient        Function  
  ----     -------------------  ------------         ----     -------------------  ------------
     2     1.026400   0.000000  1 O  s                 16     1.026400   0.000000  2 O  s          
     3     0.911455   0.000000  1 O  s                 17     0.911455  -0.000000  2 O  s          
    12    -0.149034  -0.000000  1 O  d  0              26    -0.149034  -0.000000  2 O  d  0       
    15    -0.098764  -0.000000  2 O  s                  1    -0.098764   0.000000  1 O  s          
    20    -0.093896   0.000000  2 O  pz                 6     0.093896   0.000000  1 O  pz         

 Vector   34  Occ=0.000000D+00  E= 9.155133D-01
              MO Center= -3.3D-18, -8.1D-19,  6.9D-16, r^2= 8.5D-08
  Bfn.         Coefficient        Function           Bfn.         Coefficient        Function  
  ----     -------------------  ------------         ----     -------------------  ------------
    30     0.998484   0.239006  1 O  s                 44     0.998484   0.239006  2 O  s          
    31     0.886282   0.212148  1 O  s                 45     0.886282   0.212148  2 O  s          
    40    -0.148916  -0.035646  1 O  d  0              54    -0.148916  -0.035646  2 O  d  0       
    48    -0.103651  -0.024811  2 O  pz                34     0.103651   0.024811  1 O  pz         
    43    -0.097729  -0.023393  2 O  s                 29    -0.097729  -0.023393  1 O  s          

 Vector   35  Occ=0.000000D+00  E= 1.484830D+00
              MO Center=  3.5D-11,  3.2D-11, -8.5D-10, r^2= 4.7D-01
  Bfn.         Coefficient        Function           Bfn.         Coefficient        Function  
  ----     -------------------  ------------         ----     -------------------  ------------
    13    -0.208470  -0.373888  1 O  d  1              11     0.373889  -0.208470  1 O  d -1       
    27     0.208470   0.373888  2 O  d  1              25    -0.373889   0.208470  2 O  d -1       
    18    -0.059641  -0.106964  2 O  px                19    -0.106964   0.059640  2 O  py         
     4    -0.059641  -0.106964  1 O  px                 5    -0.106964   0.059640  1 O  py         

 Vector   36  Occ=0.000000D+00  E= 1.484948D+00
              MO Center=  3.5D-11,  3.3D-11, -8.5D-10, r^2= 4.7D-01
  Bfn.         Coefficient        Function           Bfn.         Coefficient        Function  
  ----     -------------------  ------------         ----     -------------------  ------------
    11     0.374024   0.208208  1 O  d -1              13    -0.208207   0.374024  1 O  d  1       
    25    -0.374024  -0.208208  2 O  d -1              27     0.208207  -0.374024  2 O  d  1       
    19    -0.107113  -0.059627  2 O  py                18    -0.059627   0.107113  2 O  px         
     5    -0.107113  -0.059627  1 O  py                 4    -0.059627   0.107113  1 O  px         

 Vector   37  Occ=0.000000D+00  E= 1.499118D+00
              MO Center= -4.5D-11, -4.2D-11, -3.2D-09, r^2= 4.7D-01
  Bfn.         Coefficient        Function           Bfn.         Coefficient        Function  
  ----     -------------------  ------------         ----     -------------------  ------------
    14     0.002890   0.470803  1 O  d  2              28     0.002890   0.470803  2 O  d  2       
    10     0.470798  -0.002890  1 O  d -2              24     0.470798  -0.002890  2 O  d -2       

 Vector   38  Occ=0.000000D+00  E= 1.499221D+00
              MO Center= -4.5D-11, -4.2D-11, -3.2D-09, r^2= 4.7D-01
  Bfn.         Coefficient        Function           Bfn.         Coefficient        Function  
  ----     -------------------  ------------         ----     -------------------  ------------
    10     0.470803   0.002888  1 O  d -2              24     0.470803   0.002888  2 O  d -2       
    14     0.002888  -0.470798  1 O  d  2              28     0.002888  -0.470798  2 O  d  2       

 Vector   39  Occ=0.000000D+00  E= 1.518710D+00
              MO Center=  3.5D-17,  3.5D-17,  8.2D-16, r^2= 9.2D-07
  Bfn.         Coefficient        Function           Bfn.         Coefficient        Function  
  ----     -------------------  ------------         ----     -------------------  ------------
    41    -0.427221  -0.000000  1 O  d  1              39     0.000000   0.427221  1 O  d -1       
    55     0.427221   0.000000  2 O  d  1              53    -0.000000  -0.427221  2 O  d -1       
    46    -0.133711  -0.000000  2 O  px                47    -0.000000  -0.133711  2 O  py         
    32    -0.133711  -0.000000  1 O  px                33    -0.000000  -0.133711  1 O  py         

 Vector   40  Occ=0.000000D+00  E= 1.518843D+00
              MO Center= -1.9D-18, -1.8D-18,  1.7D-15, r^2= 9.9D-09
  Bfn.         Coefficient        Function           Bfn.         Coefficient        Function  
  ----     -------------------  ------------         ----     -------------------  ------------
    39    -0.427208   0.000434  1 O  d -1              41     0.000434   0.427208  1 O  d  1       
    53     0.427208  -0.000434  2 O  d -1              55    -0.000434  -0.427208  2 O  d  1       
    47     0.133849  -0.000136  2 O  py                46     0.000136   0.133849  2 O  px         
    33     0.133849  -0.000136  1 O  py                32     0.000136   0.133849  1 O  px         

 Vector   41  Occ=0.000000D+00  E= 1.554172D+00
              MO Center= -7.5D-19, -8.6D-19,  4.5D-16, r^2= 4.8D-09
  Bfn.         Coefficient        Function           Bfn.         Coefficient        Function  
  ----     -------------------  ------------         ----     -------------------  ------------
    38    -0.347341  -0.317830  1 O  d -2              52    -0.347341  -0.317830  2 O  d -2       
    42    -0.317830   0.347341  1 O  d  2              56    -0.317830   0.347341  2 O  d  2       

 Vector   42  Occ=0.000000D+00  E= 1.554276D+00
              MO Center=  1.2D-24,  1.1D-24, -2.8D-23, r^2= 1.0D-21
  Bfn.         Coefficient        Function           Bfn.         Coefficient        Function  
  ----     -------------------  ------------         ----     -------------------  ------------
    42    -0.347628   0.317516  1 O  d  2              56    -0.347628   0.317516  2 O  d  2       
    38     0.317516   0.347628  1 O  d -2              52     0.317516   0.347628  2 O  d -2       

 Vector   43  Occ=0.000000D+00  E= 1.595427D+00
              MO Center=  9.0D-11,  9.3D-11,  3.6D-09, r^2= 1.8D+00
  Bfn.         Coefficient        Function           Bfn.         Coefficient        Function  
  ----     -------------------  ------------         ----     -------------------  ------------
    17    -3.249170  -0.000000  2 O  s                  3     3.249170   0.000000  1 O  s          
    16    -1.383712  -0.000000  2 O  s                  2     1.383712   0.000000  1 O  s          
     9     1.257671   0.000000  1 O  pz                23     1.257671   0.000000  2 O  pz         
    20     0.109058   0.000000  2 O  pz                 6     0.109058   0.000000  1 O  pz         
    26     0.076360  -0.000000  2 O  d  0              12    -0.076360   0.000000  1 O  d  0       

 Vector   44  Occ=0.000000D+00  E= 1.637797D+00
              MO Center=  4.8D-18,  4.2D-18, -1.6D-17, r^2= 3.6D-08
  Bfn.         Coefficient        Function           Bfn.         Coefficient        Function  
  ----     -------------------  ------------         ----     -------------------  ------------
    45    -2.456917  -2.103196  2 O  s                 31     2.456917   2.103196  1 O  s          
    44    -1.054766  -0.902912  2 O  s                 30     1.054766   0.902912  1 O  s          
    37     0.945806   0.809639  1 O  pz                51     0.945806   0.809639  2 O  pz         
    48     0.082151   0.070324  2 O  pz                34     0.082151   0.070324  1 O  pz         
    54     0.056924   0.048728  2 O  d  0              40    -0.056924  -0.048728  1 O  d  0       

 Vector   45  Occ=0.000000D+00  E= 1.892024D+00
              MO Center= -2.7D-12, -2.5D-12,  3.2D-09, r^2= 5.1D-01
  Bfn.         Coefficient        Function           Bfn.         Coefficient        Function  
  ----     -------------------  ------------         ----     -------------------  ------------
    28     0.002299   0.535390  2 O  d  2              14    -0.002299  -0.535390  1 O  d  2       
    24     0.535387  -0.002299  2 O  d -2              10    -0.535387   0.002299  1 O  d -2       

 Vector   46  Occ=0.000000D+00  E= 1.892140D+00
              MO Center= -2.7D-12, -2.5D-12,  3.2D-09, r^2= 5.1D-01
  Bfn.         Coefficient        Function           Bfn.         Coefficient        Function  
  ----     -------------------  ------------         ----     -------------------  ------------
    24    -0.535390  -0.002299  2 O  d -2              10     0.535390   0.002299  1 O  d -2       
    28    -0.002299   0.535387  2 O  d  2              14     0.002299  -0.535387  1 O  d  2       

 Vector   47  Occ=0.000000D+00  E= 1.963150D+00
              MO Center=  2.4D-19,  2.8D-19, -1.3D-16, r^2= 1.5D-08
  Bfn.         Coefficient        Function           Bfn.         Coefficient        Function  
  ----     -------------------  ------------         ----     -------------------  ------------
    56     0.347607  -0.407205  2 O  d  2              42    -0.347607   0.407205  1 O  d  2       
    52     0.407205   0.347607  2 O  d -2              38    -0.407205  -0.347607  1 O  d -2       

 Vector   48  Occ=0.000000D+00  E= 1.963267D+00
              MO Center= -1.0D-26, -1.1D-26,  5.5D-25, r^2= 8.5D-22
  Bfn.         Coefficient        Function           Bfn.         Coefficient        Function  
  ----     -------------------  ------------         ----     -------------------  ------------
    52     0.390601   0.366166  2 O  d -2              38    -0.390601  -0.366166  1 O  d -2       
    56    -0.366165   0.390601  2 O  d  2              42     0.366165  -0.390601  1 O  d  2       

 Vector   49  Occ=0.000000D+00  E= 2.350351D+00
              MO Center=  4.4D-11,  4.3D-11, -2.1D-08, r^2= 1.1D+00
  Bfn.         Coefficient        Function           Bfn.         Coefficient        Function  
  ----     -------------------  ------------         ----     -------------------  ------------
    12    -0.734573  -0.000000  1 O  d  0              26    -0.734572  -0.000000  2 O  d  0       
     2    -0.608755  -0.000000  1 O  s                 16    -0.608755  -0.000000  2 O  s          
     9    -0.420964  -0.000000  1 O  pz                23     0.420964   0.000000  2 O  pz         
    20    -0.344555  -0.000000  2 O  pz                 6     0.344555   0.000000  1 O  pz         
     3    -0.241751  -0.000000  1 O  s                 17    -0.241751   0.000000  2 O  s          

 Vector   50  Occ=0.000000D+00  E= 2.388789D+00
              MO Center= -1.5D-16, -1.6D-16,  2.1D-17, r^2= 1.1D-07
  Bfn.         Coefficient        Function           Bfn.         Coefficient        Function  
  ----     -------------------  ------------         ----     -------------------  ------------
    40     0.509269   0.528045  1 O  d  0              54     0.509269   0.528045  2 O  d  0       
    30     0.431633   0.447547  1 O  s                 44     0.431633   0.447547  2 O  s          
    37     0.289392   0.300062  1 O  pz                51    -0.289392  -0.300062  2 O  pz         
    48     0.236796   0.245526  2 O  pz                34    -0.236796  -0.245526  1 O  pz         
    31     0.170027   0.176296  1 O  s                 45     0.170027   0.176296  2 O  s          

 Vector   51  Occ=0.000000D+00  E= 2.434477D+00
              MO Center= -2.5D-10, -2.0D-10,  2.2D-08, r^2= 1.6D+00
  Bfn.         Coefficient        Function           Bfn.         Coefficient        Function  
  ----     -------------------  ------------         ----     -------------------  ------------
    17    -2.291975  -0.000000  2 O  s                  3     2.291975   0.000000  1 O  s          
    26    -1.072801   0.000000  2 O  d  0              12     1.072801   0.000000  1 O  d  0       
    23     0.979291   0.000000  2 O  pz                 9     0.979291   0.000000  1 O  pz         
     6     0.748030   0.000000  1 O  pz                20     0.748030   0.000000  2 O  pz         
    16    -0.247115   0.000000  2 O  s                  2     0.247115   0.000000  1 O  s          

 Vector   52  Occ=0.000000D+00  E= 2.460045D+00
              MO Center=  2.1D-17,  2.3D-17,  2.7D-15, r^2= 7.8D-08
  Bfn.         Coefficient        Function           Bfn.         Coefficient        Function  
  ----     -------------------  ------------         ----     -------------------  ------------
    45     1.525428   1.689762  2 O  s                 31    -1.525428  -1.689762  1 O  s          
    54     0.718707   0.796133  2 O  d  0              40    -0.718707  -0.796133  1 O  d  0       
    51    -0.650737  -0.720841  2 O  pz                37    -0.650737  -0.720841  1 O  pz         
    34    -0.503142  -0.557346  1 O  pz                48    -0.503142  -0.557346  2 O  pz         
    44     0.166903   0.184884  2 O  s                 30    -0.166903  -0.184884  1 O  s          

 Vector   53  Occ=0.000000D+00  E= 2.485020D+00
              MO Center=  1.1D-10,  1.3D-10,  1.1D-09, r^2= 6.3D-01
  Bfn.         Coefficient        Function           Bfn.         Coefficient        Function  
  ----     -------------------  ------------         ----     -------------------  ------------
    27     0.458167   0.545520  2 O  d  1              13     0.458167   0.545520  1 O  d  1       
    25    -0.545520   0.458166  2 O  d -1              11    -0.545520   0.458166  1 O  d -1       
     7    -0.191091  -0.227524  1 O  px                21     0.191091   0.227524  2 O  px         
     8    -0.227524   0.191091  1 O  py                22     0.227524  -0.191091  2 O  py         
     4    -0.056186  -0.066898  1 O  px                18     0.056186   0.066898  2 O  px         

 Vector   54  Occ=0.000000D+00  E= 2.485123D+00
              MO Center=  1.1D-10,  1.3D-10,  1.1D-09, r^2= 6.3D-01
  Bfn.         Coefficient        Function           Bfn.         Coefficient        Function  
  ----     -------------------  ------------         ----     -------------------  ------------
    25     0.545502   0.458187  2 O  d -1              11     0.545502   0.458187  1 O  d -1       
    27    -0.458187   0.545502  2 O  d  1              13    -0.458187   0.545502  1 O  d  1       
     8     0.227478   0.191068  1 O  py                22    -0.227478  -0.191068  2 O  py         
     7     0.191067  -0.227478  1 O  px                21    -0.191067   0.227478  2 O  px         
     5     0.066941   0.056226  1 O  py                19    -0.066941  -0.056226  2 O  py         

 Vector   55  Occ=0.000000D+00  E= 2.527709D+00
              MO Center=  8.2D-18,  9.3D-18,  1.7D-15, r^2= 7.2D-08
  Bfn.         Coefficient        Function           Bfn.         Coefficient        Function  
  ----     -------------------  ------------         ----     -------------------  ------------
    53     0.000000   0.712323  2 O  d -1              39     0.000000   0.712323  1 O  d -1       
    55    -0.712323  -0.000000  2 O  d  1              41    -0.712323  -0.000000  1 O  d  1       
    36     0.000000   0.292897  1 O  py                50    -0.000000  -0.292897  2 O  py         
    35     0.292897   0.000000  1 O  px                49    -0.292897  -0.000000  2 O  px         
    33     0.000000   0.090618  1 O  py                47    -0.000000  -0.090618  2 O  py         

 Vector   56  Occ=0.000000D+00  E= 2.527813D+00
              MO Center=  3.3D-19,  4.3D-19,  8.8D-18, r^2= 1.4D-09
  Bfn.         Coefficient        Function           Bfn.         Coefficient        Function  
  ----     -------------------  ------------         ----     -------------------  ------------
    55     0.003585  -0.712312  2 O  d  1              41     0.003585  -0.712312  1 O  d  1       
    53     0.712312   0.003584  2 O  d -1              39     0.712312   0.003584  1 O  d -1       
    35    -0.001474   0.292841  1 O  px                49     0.001474  -0.292841  2 O  px         
    36     0.292841   0.001473  1 O  py                50    -0.292841  -0.001473  2 O  py         
    32    -0.000456   0.090677  1 O  px                46     0.000456  -0.090677  2 O  px         


   alpha - beta orbital overlaps 
   ----------------------------- 


   alpha      1      2      3      4      5      6      7      8      9     10
    beta      1      2      3      4      5      6      4      5      6      1
 overlap   1.060  0.311  0.296  0.275  0.275  0.341  0.085  0.085  0.085  0.000


   alpha     11     12     13     14     15     16     17     18     19     20
    beta     19      6     18      5     15     16     17     18     19     20
 overlap   0.016  0.023  0.016  0.000  1.060  0.311  0.296  0.275  0.275  0.341


   alpha     21     22     23     24     25     26     27     28
    beta     18     19     20     15      5     20      4     18
 overlap   0.085  0.085  0.085  0.000  0.016  0.023  0.016  0.000

     --------------------------
     Expectation value of S2:  
     --------------------------
      <S2> =      2.0083 (Exact =     2.0000)


     Multipole analysis of the density
     ---------------------------------

     L   x y z        total         alpha         beta         nuclear
     -   - - -        -----         -----         ----         -------
     0   0 0 0     -0.000000     -8.999996     -7.000004     16.000000

     1   1 0 0     -0.000000      0.000000     -0.000000      0.000000
     1   0 1 0     -0.000000      0.000000     -0.000000      0.000000
     1   0 0 1      0.000000      0.000000      0.000000      0.000000

     2   2 0 0     -7.455452     -4.310438     -3.145014      0.000000
     2   1 1 0     -0.000000     -0.000000     -0.000000      0.000000
     2   1 0 1      0.000000      0.000000      0.000000      0.000000
     2   0 2 0     -7.455452     -4.310438     -3.145014      0.000000
     2   0 1 1      0.000000      0.000000      0.000000      0.000000
     2   0 0 2     -7.824548    -16.110996    -12.282882     20.569330


            General Information
            -------------------
          SCF calculation type: DFT
          Wavefunction type:  spin polarized.
          No. of atoms     :     2
          No. of electrons :    16
           Alpha electrons :     9
            Beta electrons :     7
          Charge           :     0
          Spin multiplicity:     3
          Use of symmetry is: off; symmetry adaption is: off
          Maximum number of iterations: 100
          AO basis - number of functions:    28
                     number of shells:    12
          Convergence on energy requested:  1.00D-06
          Convergence on density requested:  1.00D-05
          Convergence on gradient requested:  5.00D-04

              XC Information
              --------------
                         B3LYP Method XC Potential
                     Hartree-Fock (Exact) Exchange  0.200          
                        Slater Exchange Functional  0.800 local    
                    Becke 1988 Exchange Functional  0.720 non-local
              Lee-Yang-Parr Correlation Functional  0.810          
                  VWN I RPA Correlation Functional  0.190 local    

             Grid Information
             ----------------
          Grid used for XC integration:  xfine     
          Radial quadrature: Mura-Knowles        
          Angular quadrature: Lebedev. 
          Tag              B.-S. Rad. Rad. Pts. Rad. Cut. Ang. Pts.
          ---              ---------- --------- --------- ---------
          O                   0.60      100           6.0      1454
          Grid pruning is: on 
          Number of quadrature shells:   200
          Spatial weights used:  Erf1

          Convergence Information
          -----------------------
          Convergence aids based upon iterative change in 
          total energy or number of iterations. 
          Levelshifting, if invoked, occurs when the 
          HOMO/LUMO gap drops below (HL_TOL):  1.00D-02
          DIIS, if invoked, will attempt to extrapolate 
          using up to (NFOCK): 10 stored Fock matrices.

                    Damping( 0%)  Levelshifting(0.5)       DIIS
                  --------------- ------------------- ---------------
          dE  on:    start            ASAP                start   
          dE off:    2 iters        100 iters           100 iters 


      Screening Tolerance Information
      -------------------------------
          Density screening/tol_rho:  1.00D-10
          AO Gaussian exp screening on grid/accAOfunc:  14
          CD Gaussian exp screening on grid/accCDfunc:  20
          XC Gaussian exp screening on grid/accXCfunc:  20
          Schwarz screening/accCoul:  1.00D-10



                            NWChem DFT Gradient Module
                            --------------------------



  charge          =   0.00
  wavefunction    = open shell


 Read molecular orbitals from ./o2_zora_so.movecs


 Read molecular orbitals from ./o2_zora_so.movecs


 Read molecular orbitals from ./o2_zora_so.movecs



                         sodft ENERGY GRADIENTS

    atom               coordinates                        gradient
                 x          y          z           x          y          z
   1 O       0.000000   0.000000  -1.133836    0.000000   0.000000   0.035823
   2 O       0.000000   0.000000   1.133836   -0.000000  -0.000000  -0.035823

                 ----------------------------------------
                 |  Time  |  1-e(secs)   |  2-e(secs)   |
                 ----------------------------------------
                 |  CPU   |       0.00   |       0.04   |
                 ----------------------------------------
                 |  WALL  |       0.00   |       0.04   |
                 ----------------------------------------

@ Step       Energy      Delta E   Gmax     Grms     Xrms     Xmax   Walltime
@ ---- ---------------- -------- -------- -------- -------- -------- --------
@    0    -150.50696231  0.0D+00  0.03582  0.02068  0.00000  0.00000      2.2
                                                                    


                                 NWChem DFT Module
                                 -----------------




 Summary of "ao basis" -> "ao basis" (spherical)
 ------------------------------------------------------------------------------
       Tag                 Description            Shells   Functions and Types
 ---------------- ------------------------------  ------  ---------------------
 O                     DZVP (DFT Orbital)            6       14   3s2p1d


                                  Spin-Orbit DFT
                                  --------------


  Caching 1-el integrals 

            General Information
            -------------------
          SCF calculation type: DFT
          Wavefunction type:  spin polarized.
          No. of atoms     :     2
          No. of electrons :    16
           Alpha electrons :     9
            Beta electrons :     7
          Charge           :     0
          Spin multiplicity:     3
          Use of symmetry is: off; symmetry adaption is: off
          Maximum number of iterations: 100
          AO basis - number of functions:    28
                     number of shells:    12
          Convergence on energy requested:  1.00D-06
          Convergence on density requested:  1.00D-05
          Convergence on gradient requested:  5.00D-04

              XC Information
              --------------
                         B3LYP Method XC Potential
                     Hartree-Fock (Exact) Exchange  0.200          
                        Slater Exchange Functional  0.800 local    
                    Becke 1988 Exchange Functional  0.720 non-local
              Lee-Yang-Parr Correlation Functional  0.810          
                  VWN I RPA Correlation Functional  0.190 local    

             Grid Information
             ----------------
          Grid used for XC integration:  xfine     
          Radial quadrature: Mura-Knowles        
          Angular quadrature: Lebedev. 
          Tag              B.-S. Rad. Rad. Pts. Rad. Cut. Ang. Pts.
          ---              ---------- --------- --------- ---------
          O                   0.60      100           6.0      1454
          Grid pruning is: on 
          Number of quadrature shells:   200
          Spatial weights used:  Erf1

          Convergence Information
          -----------------------
          Convergence aids based upon iterative change in 
          total energy or number of iterations. 
          Levelshifting, if invoked, occurs when the 
          HOMO/LUMO gap drops below (HL_TOL):  1.00D-02
          DIIS, if invoked, will attempt to extrapolate 
          using up to (NFOCK): 10 stored Fock matrices.

                    Damping( 0%)  Levelshifting(0.5)       DIIS
                  --------------- ------------------- ---------------
          dE  on:    start            ASAP                start   
          dE off:    2 iters        100 iters           100 iters 


      Screening Tolerance Information
      -------------------------------
          Density screening/tol_rho:  1.00D-10
          AO Gaussian exp screening on grid/accAOfunc:  14
          CD Gaussian exp screening on grid/accCDfunc:  20
          XC Gaussian exp screening on grid/accXCfunc:  20
          Schwarz screening/accCoul:  1.00D-10

 Performing spin-orbit DFT (SO-DFT) calculations
 -----------------------------------------------

          Performing ZORA calculations
          ----------------------------


      Superposition of Atomic Density Guess
      -------------------------------------

 Sum of atomic energies:        -149.52590251

 Read atomic ZORA corrections from ./o2_zora_so.zora_so

 Forcing recalculation of ZORA corrections
       Generating atomic ZORA corrections
       ----------------------------------


 Grid_pts file          = ./o2_zora_so.gridpts.0
 Record size in doubles =  12289        No. of grid_pts per rec  =   3070
 Max. records in memory =     28        Max. recs in file   = 253312716


 Wrote atomic ZORA corrections to ./o2_zora_so.zora_so


 Read molecular orbitals from ./o2_zora_so.movecs

   Time prior to 1st pass:      2.6

           Memory utilization after 1st SCF pass: 
           Heap Space remaining (MW):       51.47            51468422
          Stack Space remaining (MW):       86.24            86239956

   convergence    iter        energy       DeltaE   RMS-Dens  Diis-err    time
 ---------------- ----- ----------------- --------- --------- ---------  ------
 d= 0,ls=0.0,diis     1   -150.5055795527 -1.78D+02  1.51D-03  3.94D-03     2.9
                                                     1.38D-03  3.94D-03
 d= 0,ls=0.0,diis     2   -150.5069593877 -1.38D-03  5.40D-04  1.73D-04     3.1
                                                     2.65D-04  1.73D-04
 d= 0,ls=0.0,diis     3   -150.5069837821 -2.44D-05  1.69D-04  8.69D-05     3.3
                                                     1.37D-04  8.69D-05
 d= 0,ls=0.0,diis     4   -150.5070037531 -2.00D-05  1.08D-05  1.65D-07     3.5
                                                     5.77D-06  1.65D-07
 d= 0,ls=0.0,diis     5   -150.5070038020 -4.89D-08  2.55D-06  1.24D-08     3.7
                                                     1.85D-06  1.24D-08
  zoraso: enough mem for repl


      Total SO-DFT energy =     -150.507003805487
      One electron energy =     -260.408223204657
           Coulomb energy =       99.636457896288
    Exchange-Corr. energy =      -16.962323244823
 Nuclear repulsion energy =       27.227084747705

       Scaling correction =        0.059676736748

 Numeric. integr. density =       16.000000012745

     Total iterative time =      1.3s



                       DFT Final Molecular Orbital Analysis
                       ------------------------------------

 Vector    1  Occ=1.000000D+00  E=-1.932575D+01
              MO Center= -7.9D-12, -7.3D-12,  3.6D-03, r^2= 4.0D-01
  Bfn.         Coefficient        Function           Bfn.         Coefficient        Function  
  ----     -------------------  ------------         ----     -------------------  ------------
    15     0.708089  -0.000000  2 O  s                  1     0.703994  -0.000000  1 O  s          

 Vector    2  Occ=1.000000D+00  E=-1.932557D+01
              MO Center= -7.4D-12, -7.7D-12, -3.6D-03, r^2= 4.0D-01
  Bfn.         Coefficient        Function           Bfn.         Coefficient        Function  
  ----     -------------------  ------------         ----     -------------------  ------------
     1    -0.708083  -0.000000  1 O  s                 15     0.703987   0.000000  2 O  s          

 Vector    3  Occ=1.000000D+00  E=-1.929413D+01
              MO Center= -2.0D-21, -1.9D-21,  4.5D-17, r^2= 2.6D-14
  Bfn.         Coefficient        Function           Bfn.         Coefficient        Function  
  ----     -------------------  ------------         ----     -------------------  ------------
    43     0.506636   0.493779  2 O  s                 29     0.504954   0.492139  1 O  s          

 Vector    4  Occ=1.000000D+00  E=-1.929383D+01
              MO Center=  1.6D-21,  1.6D-21, -4.5D-17, r^2= 2.5D-14
  Bfn.         Coefficient        Function           Bfn.         Coefficient        Function  
  ----     -------------------  ------------         ----     -------------------  ------------
    29    -0.504230  -0.496239  1 O  s                 43     0.502555   0.494591  2 O  s          

 Vector    5  Occ=1.000000D+00  E=-1.291795D+00
              MO Center=  9.7D-10,  9.0D-10,  4.5D-07, r^2= 5.0D-01
  Bfn.         Coefficient        Function           Bfn.         Coefficient        Function  
  ----     -------------------  ------------         ----     -------------------  ------------
    16     0.373207  -0.000000  2 O  s                  2     0.373207  -0.000000  1 O  s          
    17    -0.239671  -0.000000  2 O  s                  3    -0.239671  -0.000000  1 O  s          
    20     0.185007  -0.000000  2 O  pz                 6    -0.185007   0.000000  1 O  pz         
    15    -0.167214   0.000000  2 O  s                  1    -0.167214   0.000000  1 O  s          

 Vector    6  Occ=1.000000D+00  E=-1.232744D+00
              MO Center=  1.2D-17,  1.5D-17,  3.2D-14, r^2= 3.4D-08
  Bfn.         Coefficient        Function           Bfn.         Coefficient        Function  
  ----     -------------------  ------------         ----     -------------------  ------------
    44     0.215829   0.276382  2 O  s                 30     0.215829   0.276382  1 O  s          
    45    -0.151030  -0.193404  2 O  s                 31    -0.151030  -0.193403  1 O  s          
    48     0.122419   0.156765  2 O  pz                34    -0.122419  -0.156765  1 O  pz         
    43    -0.100321  -0.128468  2 O  s                 29    -0.100321  -0.128468  1 O  s          
    54    -0.018457  -0.023635  2 O  d  0              40    -0.018457  -0.023635  1 O  d  0       

 Vector    7  Occ=1.000000D+00  E=-8.567018D-01
              MO Center=  8.4D-10,  8.2D-10,  4.3D-07, r^2= 1.1D+00
  Bfn.         Coefficient        Function           Bfn.         Coefficient        Function  
  ----     -------------------  ------------         ----     -------------------  ------------
     2     0.421393  -0.000000  1 O  s                 16    -0.421393   0.000000  2 O  s          
     3    -0.407002  -0.000000  1 O  s                 17     0.407002   0.000000  2 O  s          
     1    -0.180452   0.000000  1 O  s                 15     0.180452  -0.000000  2 O  s          
    20     0.133998   0.000000  2 O  pz                 6     0.133998   0.000000  1 O  pz         
    23     0.027768  -0.000000  2 O  pz                 9     0.027767  -0.000000  1 O  pz         

 Vector    8  Occ=1.000000D+00  E=-7.679653D-01
              MO Center= -5.2D-16, -4.7D-16,  8.2D-13, r^2= 2.0D-07
  Bfn.         Coefficient        Function           Bfn.         Coefficient        Function  
  ----     -------------------  ------------         ----     -------------------  ------------
    45     0.304294   0.277237  2 O  s                 31    -0.304294  -0.277237  1 O  s          
    44    -0.297246  -0.270816  2 O  s                 30     0.297246   0.270816  1 O  s          
    29    -0.130278  -0.118694  1 O  s                 43     0.130278   0.118694  2 O  s          
    48     0.107319   0.097777  2 O  pz                34     0.107318   0.097776  1 O  pz         
    51     0.031809   0.028981  2 O  pz                37     0.031809   0.028981  1 O  pz         

 Vector    9  Occ=1.000000D+00  E=-5.613513D-01
              MO Center=  3.4D-09,  3.3D-09,  6.6D-07, r^2= 4.3D-01
  Bfn.         Coefficient        Function           Bfn.         Coefficient        Function  
  ----     -------------------  ------------         ----     -------------------  ------------
    19    -0.264316   0.278626  2 O  py                18    -0.278626  -0.264316  2 O  px         
     5    -0.264315   0.278625  1 O  py                 4    -0.278625  -0.264315  1 O  px         
    22    -0.083823   0.088361  2 O  py                21    -0.088361  -0.083823  2 O  px         
     8    -0.083823   0.088361  1 O  py                 7    -0.088361  -0.083823  1 O  px         

 Vector   10  Occ=1.000000D+00  E=-5.605065D-01
              MO Center=  3.8D-09,  3.6D-09,  6.6D-07, r^2= 4.3D-01
  Bfn.         Coefficient        Function           Bfn.         Coefficient        Function  
  ----     -------------------  ------------         ----     -------------------  ------------
    18     0.278741  -0.263721  2 O  px                19     0.263721   0.278741  2 O  py         
     4     0.278740  -0.263720  1 O  px                 5     0.263720   0.278740  1 O  py         
    21     0.088728  -0.083947  2 O  px                22     0.083947   0.088728  2 O  py         
     7     0.088727  -0.083946  1 O  px                 8     0.083946   0.088727  1 O  py         

 Vector   11  Occ=1.000000D+00  E=-5.516169D-01
              MO Center= -8.4D-09, -7.7D-09, -5.9D-07, r^2= 1.1D+00
  Bfn.         Coefficient        Function           Bfn.         Coefficient        Function  
  ----     -------------------  ------------         ----     -------------------  ------------
    20    -0.532508  -0.000000  2 O  pz                 6     0.532508   0.000000  1 O  pz         
     3    -0.251311   0.000000  1 O  s                 17    -0.251310   0.000000  2 O  s          
    23    -0.153333   0.000000  2 O  pz                 9     0.153333  -0.000000  1 O  pz         
     2     0.121946  -0.000000  1 O  s                 16     0.121945  -0.000000  2 O  s          
     1    -0.061314   0.000000  1 O  s                 15    -0.061313   0.000000  2 O  s          

 Vector   12  Occ=1.000000D+00  E=-5.123476D-01
              MO Center=  1.7D-15,  1.7D-15, -4.6D-11, r^2= 5.1D-06
  Bfn.         Coefficient        Function           Bfn.         Coefficient        Function  
  ----     -------------------  ------------         ----     -------------------  ------------
    48    -0.375062  -0.363136  2 O  pz                34     0.375062   0.363136  1 O  pz         
    31    -0.193910  -0.187744  1 O  s                 45    -0.193909  -0.187743  2 O  s          
    37     0.116871   0.113155  1 O  pz                51    -0.116871  -0.113155  2 O  pz         
    30     0.088265   0.085458  1 O  s                 44     0.088264   0.085458  2 O  s          
    29    -0.046744  -0.045257  1 O  s                 43    -0.046743  -0.045257  2 O  s          

 Vector   13  Occ=1.000000D+00  E=-4.583429D-01
              MO Center= -7.8D-15, -7.2D-15, -7.3D-12, r^2= 9.7D-07
  Bfn.         Coefficient        Function           Bfn.         Coefficient        Function  
  ----     -------------------  ------------         ----     -------------------  ------------
    46    -0.358946  -0.000000  2 O  px                47     0.000000  -0.358946  2 O  py         
    32    -0.358945  -0.000000  1 O  px                33     0.000000  -0.358945  1 O  py         
    49    -0.146744  -0.000000  2 O  px                50     0.000000  -0.146744  2 O  py         
    35    -0.146744  -0.000000  1 O  px                36     0.000000  -0.146744  1 O  py         
    41     0.026296   0.000000  1 O  d  1              39     0.000000  -0.026296  1 O  d -1       

 Vector   14  Occ=1.000000D+00  E=-4.576053D-01
              MO Center=  3.0D-17,  2.8D-17,  6.3D-18, r^2= 8.4D-12
  Bfn.         Coefficient        Function           Bfn.         Coefficient        Function  
  ----     -------------------  ------------         ----     -------------------  ------------
    47    -0.358590   0.001633  2 O  py                46    -0.001633  -0.358590  2 O  px         
    33    -0.358589   0.001633  1 O  py                32    -0.001633  -0.358589  1 O  px         
    50    -0.147098   0.000670  2 O  py                49    -0.000670  -0.147098  2 O  px         
    36    -0.147098   0.000670  1 O  py                35    -0.000670  -0.147098  1 O  px         
    39    -0.026312   0.000120  1 O  d -1              41     0.000120   0.026312  1 O  d  1       

 Vector   15  Occ=1.000000D+00  E=-3.285106D-01
              MO Center= -4.2D-10, -3.6D-10, -6.6D-07, r^2= 4.9D-01
  Bfn.         Coefficient        Function           Bfn.         Coefficient        Function  
  ----     -------------------  ------------         ----     -------------------  ------------
     4    -0.330359  -0.289892  1 O  px                 5    -0.289892   0.330359  1 O  py         
    18     0.330359   0.289892  2 O  px                19     0.289892  -0.330359  2 O  py         
     7    -0.159965  -0.140371  1 O  px                 8    -0.140371   0.159965  1 O  py         
    21     0.159965   0.140370  2 O  px                22     0.140370  -0.159965  2 O  py         

 Vector   16  Occ=1.000000D+00  E=-3.274497D-01
              MO Center= -4.2D-10, -3.6D-10, -6.6D-07, r^2= 4.9D-01
  Bfn.         Coefficient        Function           Bfn.         Coefficient        Function  
  ----     -------------------  ------------         ----     -------------------  ------------
     5     0.289643   0.330106  1 O  py                 4     0.330106  -0.289643  1 O  px         
    19    -0.289642  -0.330106  2 O  py                18    -0.330106   0.289642  2 O  px         
     8     0.140874   0.160555  1 O  py                 7     0.160555  -0.140874  1 O  px         
    22    -0.140874  -0.160554  2 O  py                21    -0.160554   0.140874  2 O  px         

 Vector   17  Occ=0.000000D+00  E=-1.357812D-01
              MO Center=  1.9D-17,  4.0D-17,  6.4D-12, r^2= 8.4D-06
  Bfn.         Coefficient        Function           Bfn.         Coefficient        Function  
  ----     -------------------  ------------         ----     -------------------  ------------
    32     0.410770   0.000000  1 O  px                33    -0.000000   0.410770  1 O  py         
    46    -0.410770  -0.000000  2 O  px                47     0.000000  -0.410770  2 O  py         
    35     0.272860   0.000000  1 O  px                36    -0.000000   0.272860  1 O  py         
    49    -0.272859  -0.000000  2 O  px                50     0.000000  -0.272859  2 O  py         

 Vector   18  Occ=0.000000D+00  E=-1.348731D-01
              MO Center= -6.7D-19, -6.7D-19, -1.4D-18, r^2= 8.3D-13
  Bfn.         Coefficient        Function           Bfn.         Coefficient        Function  
  ----     -------------------  ------------         ----     -------------------  ------------
    33    -0.408863   0.034796  1 O  py                32    -0.034796  -0.408863  1 O  px         
    47     0.408863  -0.034796  2 O  py                46     0.034796   0.408863  2 O  px         
    36    -0.272722   0.023210  1 O  py                35    -0.023210  -0.272722  1 O  px         
    50     0.272722  -0.023210  2 O  py                49     0.023210   0.272722  2 O  px         

 Vector   19  Occ=0.000000D+00  E= 1.268948D-01
              MO Center= -3.5D-10, -3.1D-10, -2.4D-07, r^2= 1.7D+00
  Bfn.         Coefficient        Function           Bfn.         Coefficient        Function  
  ----     -------------------  ------------         ----     -------------------  ------------
     3    -0.920163  -0.000000  1 O  s                 17     0.920163   0.000000  2 O  s          
     9    -0.841240  -0.000000  1 O  pz                23    -0.841240  -0.000000  2 O  pz         
     6    -0.547171   0.000000  1 O  pz                20    -0.547170   0.000000  2 O  pz         
    16    -0.226761   0.000000  2 O  s                  2     0.226761  -0.000000  1 O  s          
    15     0.096795  -0.000000  2 O  s                  1    -0.096795   0.000000  1 O  s          

 Vector   20  Occ=0.000000D+00  E= 1.650334D-01
              MO Center= -2.0D-15, -1.8D-15, -6.1D-14, r^2= 3.4D-06
  Bfn.         Coefficient        Function           Bfn.         Coefficient        Function  
  ----     -------------------  ------------         ----     -------------------  ------------
    31     0.775872   0.684077  1 O  s                 45    -0.775872  -0.684077  2 O  s          
    37     0.694112   0.611990  1 O  pz                51     0.694112   0.611990  2 O  pz         
[...]

 Numeric. integr. density =       16.000000009137

     Total iterative time =      0.7s



   alpha - beta orbital overlaps 
   ----------------------------- 


   alpha      1      2      3      4      5      6      7      8      9     10
    beta      1      2      3      4      5      6      4      5      6      5
 overlap   1.060  0.313  0.295  0.275  0.275  0.338  0.086  0.086  0.086  0.000


   alpha     11     12     13     14     15     16     17     18     19     20
    beta      5      6      4      4     15     16     17     18     19     20
 overlap   0.015  0.022  0.015  0.000  1.060  0.313  0.295  0.275  0.275  0.338


   alpha     21     22     23     24     25     26     27     28
    beta     18     19     20      5      5     20      4      4
 overlap   0.086  0.086  0.086  0.000  0.015  0.022  0.015  0.000

     --------------------------
     Expectation value of S2:  
     --------------------------
      <S2> =      2.0086 (Exact =     2.0000)



                         sodft ENERGY GRADIENTS

    atom               coordinates                        gradient
                 x          y          z           x          y          z
   1 O       0.000000   0.000000  -1.154482    0.000009  -0.000001   0.000277
   2 O      -0.001000  -0.000000   1.154482   -0.000009   0.000001  -0.000277

 atom:   2 xyz: 2(+) wall time:      15.9      date:  Sun Jun 30 07:07:40 2019


                                 NWChem DFT Module
                                 -----------------



                                  Spin-Orbit DFT
                                  --------------


  Caching 1-el integrals 
 Performing spin-orbit DFT (SO-DFT) calculations
 -----------------------------------------------

          Performing ZORA calculations
          ----------------------------


 Read atomic ZORA corrections from ./o2_zora_so.zora_so

   Time prior to 1st pass:     16.0
  zoraso: enough mem for repl


      Total SO-DFT energy =     -150.507667070188
      One electron energy =     -261.352199003220
           Coulomb energy =      100.108782076314
    Exchange-Corr. energy =      -16.982298129183
 Nuclear repulsion energy =       27.718047985901

       Scaling correction =        0.059672292119

 Numeric. integr. density =       16.000000010640

     Total iterative time =      0.7s



   alpha - beta orbital overlaps 
   ----------------------------- 


   alpha      1      2      3      4      5      6      7      8      9     10
    beta      1      2      3      4      5      6      4      5      6      4
 overlap   1.060  0.313  0.295  0.275  0.275  0.338  0.086  0.086  0.086  0.000


   alpha     11     12     13     14     15     16     17     18     19     20
    beta      5      6      4      5     15     16     17     18     19     20
 overlap   0.015  0.022  0.015  0.000  1.060  0.313  0.295  0.275  0.275  0.338


   alpha     21     22     23     24     25     26     27     28
    beta     18     19     20      4      5     20      4      5
 overlap   0.086  0.086  0.086  0.000  0.015  0.022  0.015  0.000

     --------------------------
     Expectation value of S2:  
     --------------------------
      <S2> =      2.0086 (Exact =     2.0000)



                         sodft ENERGY GRADIENTS

    atom               coordinates                        gradient
                 x          y          z           x          y          z
   1 O       0.000000   0.000000  -1.154482    0.000001  -0.000009   0.000277
   2 O      -0.000000   0.001000   1.154482   -0.000001   0.000009  -0.000277

 atom:   2 xyz: 2(-) wall time:      16.9      date:  Sun Jun 30 07:07:41 2019


                                 NWChem DFT Module
                                 -----------------



                                  Spin-Orbit DFT
                                  --------------


  Caching 1-el integrals 
 Performing spin-orbit DFT (SO-DFT) calculations
 -----------------------------------------------

          Performing ZORA calculations
          ----------------------------


 Read atomic ZORA corrections from ./o2_zora_so.zora_so

   Time prior to 1st pass:     16.9
  zoraso: enough mem for repl


      Total SO-DFT energy =     -150.507667070177
      One electron energy =     -261.352199003233
           Coulomb energy =      100.108782076329
    Exchange-Corr. energy =      -16.982298129174
 Nuclear repulsion energy =       27.718047985901

       Scaling correction =        0.059672292119

 Numeric. integr. density =       16.000000010580

     Total iterative time =      0.7s



   alpha - beta orbital overlaps 
   ----------------------------- 


   alpha      1      2      3      4      5      6      7      8      9     10
    beta      1      2      3      4      5      6      4      5      6      4
 overlap   1.060  0.313  0.295  0.275  0.275  0.338  0.086  0.086  0.086  0.000


   alpha     11     12     13     14     15     16     17     18     19     20
    beta      5      6      4      5     15     16     17     18     19     20
 overlap   0.015  0.022  0.015  0.000  1.060  0.313  0.295  0.275  0.275  0.338


   alpha     21     22     23     24     25     26     27     28
    beta     18     19     20      4      5     20      4      5
 overlap   0.086  0.086  0.086  0.000  0.015  0.022  0.015  0.000

     --------------------------
     Expectation value of S2:  
     --------------------------
      <S2> =      2.0086 (Exact =     2.0000)



                         sodft ENERGY GRADIENTS

    atom               coordinates                        gradient
                 x          y          z           x          y          z
   1 O       0.000000   0.000000  -1.154482   -0.000001   0.000009   0.000277
   2 O      -0.000000  -0.001000   1.154482    0.000001  -0.000009  -0.000277

 atom:   2 xyz: 3(+) wall time:      17.9      date:  Sun Jun 30 07:07:42 2019


                                 NWChem DFT Module
                                 -----------------



                                  Spin-Orbit DFT
                                  --------------


  Caching 1-el integrals 
 Performing spin-orbit DFT (SO-DFT) calculations
 -----------------------------------------------

          Performing ZORA calculations
          ----------------------------


 Read atomic ZORA corrections from ./o2_zora_so.zora_so

   Time prior to 1st pass:     17.9
  zoraso: enough mem for repl


      Total SO-DFT energy =     -150.507666964698
      One electron energy =     -261.329723145669
           Coulomb energy =      100.097884659206
    Exchange-Corr. energy =      -16.981879724155
 Nuclear repulsion energy =       27.706051245920

       Scaling correction =        0.059672712707

 Numeric. integr. density =       16.000000009229

     Total iterative time =      0.7s



   alpha - beta orbital overlaps 
   ----------------------------- 


   alpha      1      2      3      4      5      6      7      8      9     10
    beta      1      2      3      4      5      6      4      5      6      1
 overlap   1.060  0.313  0.295  0.275  0.275  0.337  0.086  0.086  0.086  0.000


   alpha     11     12     13     14     15     16     17     18     19     20
    beta      5      6      4      4     15     16     17     18     19     20
 overlap   0.015  0.022  0.015  0.000  1.060  0.313  0.295  0.275  0.275  0.337


   alpha     21     22     23     24     25     26     27     28
    beta     18     19     20     15      5     20      4     19
 overlap   0.086  0.086  0.086  0.000  0.015  0.022  0.015  0.000

     --------------------------
     Expectation value of S2:  
     --------------------------
      <S2> =      2.0086 (Exact =     2.0000)



                         sodft ENERGY GRADIENTS

    atom               coordinates                        gradient
                 x          y          z           x          y          z
   1 O       0.000000   0.000000  -1.154482    0.000000   0.000000  -0.000505
   2 O      -0.000000  -0.000000   1.155482   -0.000000  -0.000000   0.000505

 atom:   2 xyz: 3(-) wall time:      18.9      date:  Sun Jun 30 07:07:43 2019


                                 NWChem DFT Module
                                 -----------------



                                  Spin-Orbit DFT
                                  --------------


  Caching 1-el integrals 
 Performing spin-orbit DFT (SO-DFT) calculations
 -----------------------------------------------

          Performing ZORA calculations
          ----------------------------


 Read atomic ZORA corrections from ./o2_zora_so.zora_so

   Time prior to 1st pass:     18.9
  zoraso: enough mem for repl


      Total SO-DFT energy =     -150.507666374753
      One electron energy =     -261.374766358623
           Coulomb energy =      100.119765813111
    Exchange-Corr. energy =      -16.982726152422
 Nuclear repulsion energy =       27.730060323181

       Scaling correction =        0.059671902210

 Numeric. integr. density =       16.000000010533

     Total iterative time =      0.7s



   alpha - beta orbital overlaps 
   ----------------------------- 


   alpha      1      2      3      4      5      6      7      8      9     10
    beta      1      2      3      4      5      6      4      5      6      1
 overlap   1.060  0.313  0.295  0.275  0.275  0.338  0.086  0.086  0.086  0.000


   alpha     11     12     13     14     15     16     17     18     19     20
    beta      5      6      4      5     15     16     17     18     19     20
 overlap   0.015  0.022  0.015  0.000  1.060  0.313  0.295  0.275  0.275  0.338


   alpha     21     22     23     24     25     26     27     28
    beta     18     19     20     15      5     20      4     19
 overlap   0.086  0.086  0.086  0.000  0.015  0.022  0.015  0.000

     --------------------------
     Expectation value of S2:  
     --------------------------
      <S2> =      2.0086 (Exact =     2.0000)



                         sodft ENERGY GRADIENTS

    atom               coordinates                        gradient
                 x          y          z           x          y          z
   1 O       0.000000   0.000000  -1.154482    0.000000   0.000000   0.001065
   2 O      -0.000000  -0.000000   1.153482   -0.000000  -0.000000  -0.001065

  
  finite difference hessian delta =    1.0000000000000000E-003

              1        2        3        4        5        6      
    1    0.0088  -0.0007   0.0000  -0.0088   0.0006   0.0000
    2   -0.0007   0.0087   0.0000   0.0007  -0.0087   0.0000
    3    0.0000   0.0000   0.7849  -0.0000   0.0000  -0.7849
    4   -0.0088   0.0007  -0.0000   0.0088  -0.0007  -0.0000
    5    0.0006  -0.0087   0.0000  -0.0007   0.0087  -0.0000
    6    0.0000   0.0000  -0.7849  -0.0000  -0.0000   0.7849
  
  triangle hessian written to ./o2_zora_so.hess

 Deleting state for sodft with suffix hess
        ./o2_zora_so.movecs



  Vibrational analysis via the FX method 

  See chapter 2 in "Molecular Vibrations" by Wilson, Decius and Cross

  Vib: Default input used 

  Nuclear Hessian passed symmetry test 



 ---------------------------- Atom information ----------------------------
     atom    #        X              Y              Z            mass
 --------------------------------------------------------------------------
    O        1  4.5678216D-28  4.8554287D-28 -1.1544823D+00  1.5994910D+01
    O        2 -4.5678216D-28 -4.8554287D-28  1.1544823D+00  1.5994910D+01
 --------------------------------------------------------------------------




          ----------------------------------------------------
          MASS-WEIGHTED NUCLEAR HESSIAN (Hartree/Bohr/Bohr/Kamu)
          ----------------------------------------------------


               1            2            3            4            5            6
   ----- ----- ----- ----- -----
    1    5.49153D-01
    2   -4.11376D-02  5.42538D-01
    3    2.73950D-05  2.15501D-05  4.90714D+01
    4   -5.49153D-01  4.18568D-02 -5.64641D-08  5.49153D-01
    5    4.04250D-02 -5.42538D-01  5.80901D-08 -4.11409D-02  5.42538D-01
    6    3.26050D-06  2.12459D-08 -4.90715D+01 -1.60180D-06 -3.97790D-08  4.90715D+01



          -------------------------------------------------
          NORMAL MODE EIGENVECTORS IN CARTESIAN COORDINATES
          -------------------------------------------------
                 (Frequencies expressed in cm-1)

                    1           2           3           4           5           6
 
 Frequency         -1.01       -0.23        0.50      163.30      176.15     1610.40
 
           1     0.05904    -0.11029     0.12493     0.12000     0.12986    -0.00000
           2     0.04275     0.13814     0.10174     0.12985    -0.11998    -0.00000
           3    -0.16108    -0.00376     0.07279     0.00000     0.00000    -0.17680
           4     0.05898    -0.11048     0.12481    -0.11981    -0.13001    -0.00000
           5     0.04282     0.13798     0.10190    -0.13002     0.11983     0.00000
           6    -0.16108    -0.00376     0.07279     0.00000     0.00000     0.17680


        Vibrational analysis via the FX method 
  --- with translations and rotations projected out ---
  --- via the Eckart algorithm                      ---
 Dependent rotation vector no.                    3
  found in ECKART; assuming linear geometry
 Projected Nuclear Hessian trans-rot subspace norm:1.2326D-32
                         (should be close to zero!) 

          --------------------------------------------------------
          MASS-WEIGHTED PROJECTED HESSIAN (Hartree/Bohr/Bohr/Kamu)
          --------------------------------------------------------


               1            2            3            4            5            6
   ----- ----- ----- ----- -----
    1    0.00000D+00
    2    0.00000D+00  0.00000D+00
    3   -3.30978D-21 -3.30978D-21  4.90715D+01
    4    0.00000D+00  0.00000D+00  2.17204D-21  0.00000D+00
    5    0.00000D+00  0.00000D+00 -4.68669D-22  0.00000D+00  0.00000D+00
    6    0.00000D+00  9.59964D-22 -4.90715D+01 -2.48233D-21  4.71902D-22  4.90715D+01

 center of mass
 --------------
 x =  -0.00000000 y =   0.00000000 z =   0.00000000

 moments of inertia (a.u.)
 ------------------
          42.636975209998          -0.000000000000           0.000000000000
          -0.000000000000          42.636975209998           0.000000000000
           0.000000000000           0.000000000000           0.000000000000

 Rotational Constants
 --------------------
 A=   0.000000 cm-1  (  0.000000 K)
 B=   1.411924 cm-1  (  2.031399 K)
 C=   1.411924 cm-1  (  2.031399 K)


 Temperature                      =   298.15K
 frequency scaling parameter      =   1.0000


 Linear Molecule                   

 Zero-Point correction to Energy  =    2.301 kcal/mol  (  0.003667 au)
 Thermal correction to Energy     =    3.784 kcal/mol  (  0.006029 au)
 Thermal correction to Enthalpy   =    4.376 kcal/mol  (  0.006973 au)

 Total Entropy                    =   48.208 cal/mol-K
   - Translational                =   36.304 cal/mol-K (mol. weight =  31.9898)
   - Rotational                   =   11.896 cal/mol-K (symmetry #  =        1)
   - Vibrational                  =    0.007 cal/mol-K

 Cv (constant volume heat capacity) =    5.016 cal/mol-K
   - Translational                  =    2.979 cal/mol-K
   - Rotational                     =    1.986 cal/mol-K
   - Vibrational                    =    0.051 cal/mol-K



          -------------------------------------------------
          NORMAL MODE EIGENVECTORS IN CARTESIAN COORDINATES
          -------------------------------------------------
             (Projected Frequencies expressed in cm-1)

                    1           2           3           4           5           6
 
 P.Frequency       -0.00        0.00        0.00        0.00        0.00     1610.40
 
           1     0.00000     0.00000     0.00000    -0.00000     0.25004     0.00000
           2     0.00000     0.00000     0.00000     0.25004     0.00000     0.00000
           3     0.17680     0.00000     0.00000    -0.00000    -0.00000    -0.17680
           4     0.00000    -0.25004     0.00000     0.00000     0.00000     0.00000
           5     0.00000     0.00000    -0.25004     0.00000     0.00000     0.00000
           6     0.17680     0.00000     0.00000    -0.00000    -0.00000     0.17680
 vib:animation  F

 Task  times  cpu:       11.5s     wall:       11.5s


                                NWChem Input Module
                                -------------------


 Summary of allocated global arrays
-----------------------------------
  No active global arrays



                         GA Statistics for process    0
                         ------------------------------

       create   destroy   get      put      acc     scatter   gather  read&inc
calls: 1.10e+04 1.10e+04 1.03e+05 3.01e+04 1.15e+04   15        0     3.57e+04 
number of processes/call 1.27e+00 1.70e+00 1.07e+00 4.00e+00 0.00e+00
bytes total:             7.54e+07 3.89e+07 2.46e+07 1.92e+03 0.00e+00 2.85e+05
bytes remote:            2.97e+07 1.98e+07 1.72e+06 1.44e+03 0.00e+00 0.00e+00
Max memory consumed for GA by this process: 497056 bytes

MA_summarize_allocated_blocks: starting scan ...
MA_summarize_allocated_blocks: scan completed: 0 heap blocks, 0 stack blocks
MA usage statistics:

	allocation statistics:
					      heap	     stack
					      ----	     -----
	current number of blocks	         0	         0
	maximum number of blocks	        25	        62
	current total bytes		         0	         0
	maximum total bytes		 278231704	  29533624
	maximum total K-bytes		    278232	     29534
	maximum total M-bytes		       279	        30


                                     CITATION
                                     --------
                Please cite the following reference when publishing
                           results obtained with NWChem:

                 M. Valiev, E.J. Bylaska, N. Govind, K. Kowalski,
              T.P. Straatsma, H.J.J. van Dam, D. Wang, J. Nieplocha,
                        E. Apra, T.L. Windus, W.A. de Jong
                 "NWChem: a comprehensive and scalable open-source
                  solution for large scale molecular simulations"
                      Comput. Phys. Commun. 181, 1477 (2010)
                           doi:10.1016/j.cpc.2010.04.018

                                      AUTHORS
                                      -------
          E. Apra, E. J. Bylaska, W. A. de Jong, N. Govind, K. Kowalski,
       T. P. Straatsma, M. Valiev, H. J. J. van Dam, D. Wang, T. L. Windus,
        J. Hammond, J. Autschbach, K. Bhaskaran-Nair, J. Brabec, K. Lopata,
    S. A. Fischer, S. Krishnamoorthy, M. Jacquelin, W. Ma, M. Klemm, O. Villa,
      Y. Chen, V. Anisimov, F. Aquino, S. Hirata, M. T. Hackler, V. Konjkov,
            D. Mejia-Rodriguez, T. Risthaus, M. Malagoli, A. Marenich,
   A. Otero-de-la-Roza, J. Mullin, P. Nichols, R. Peverati, J. Pittner, Y. Zhao,
        P.-D. Fan, A. Fonari, M. J. Williamson, R. J. Harrison, J. R. Rehr,
      M. Dupuis, D. Silverstein, D. M. A. Smith, J. Nieplocha, V. Tipparaju,
    M. Krishnan, B. E. Van Kuiken, A. Vazquez-Mayagoitia, L. Jensen, M. Swart,
      Q. Wu, T. Van Voorhis, A. A. Auer, M. Nooijen, L. D. Crosby, E. Brown,
      G. Cisneros, G. I. Fann, H. Fruchtl, J. Garza, K. Hirao, R. A. Kendall,
      J. A. Nichols, K. Tsemekhman, K. Wolinski, J. Anchell, D. E. Bernholdt,
      P. Borowski, T. Clark, D. Clerc, H. Dachsel, M. J. O. Deegan, K. Dyall,
    D. Elwood, E. Glendening, M. Gutowski, A. C. Hess, J. Jaffe, B. G. Johnson,
     J. Ju, R. Kobayashi, R. Kutteh, Z. Lin, R. Littlefield, X. Long, B. Meng,
      T. Nakajima, S. Niu, L. Pollack, M. Rosing, K. Glaesemann, G. Sandrone,
      M. Stave, H. Taylor, G. Thomas, J. H. van Lenthe, A. T. Wong, Z. Zhang.

 Total times  cpu:       19.8s     wall:       19.9s
