 argument  1 = /home/list1234/source/nwchem-6.8.1-release/QA/tests/paw/paw.nw



============================== echo of input deck ==============================
echo
title "paw testing"

start paw_test

charge 0



geometry units au nocenter noautoz noautosym
O      0.00000    0.00000    0.01200
H     -1.49000    0.00000   -1.18000
H      1.49000    0.00000   -1.18000
end



################ set old defaults ##################
set nwpw:cutoff_boot_psi .false.

nwpw

   #### old unit cell default ####
   simulation_cell
      SC 20.0
      ngrid 32 32 32
   end

   integrate_mult_l 0  #old default for core integration
   translation on      #old default
end


################ periodic testing ##################
nwpw

#  time_step 15.8
   ewald_rcut 1.50
   tolerances 1.0d-11 1.0d-11
end
set nwpw:lcao_iterations 1
set nwpw:minimizer 2
task pspw energy

#### Energy testing ####
set nwpw:minimizer 1
task paw energy



### Car-Parrinello testing ###
nwpw
   car-parrinello
      time_step 5.0
      fake_mass 1100.0
      loop 10 10
      ewald_rcut 1.50
   end

end
task paw Car-Parrinello



##### reset geometry ######
geometry units au nocenter noautoz noautosym
O       0.00000    0.00000    0.01358
H      -1.49318    0.00000   -1.17104
H       1.49318    0.00000   -1.17104
end
task paw energy


### steepest descent geometry opt ###
nwpw
   time_step 5.8
   geometry_optimize
   ewald_rcut 1.50
   tolerances 1.0d-7 1.0d-7 1.0d-4
   #allow_translation
end
task paw steepest_descent

================================================================================


                                         
                                         


              Northwest Computational Chemistry Package (NWChem) 6.8
              ------------------------------------------------------


                    Environmental Molecular Sciences Laboratory
                       Pacific Northwest National Laboratory
                                Richland, WA 99352

                              Copyright (c) 1994-2018
                       Pacific Northwest National Laboratory
                            Battelle Memorial Institute

             NWChem is an open-source computational chemistry package
                        distributed under the terms of the
                      Educational Community License (ECL) 2.0
             A copy of the license is included with this distribution
                              in the LICENSE.TXT file

                                  ACKNOWLEDGMENT
                                  --------------

            This software and its documentation were developed at the
            EMSL at Pacific Northwest National Laboratory, a multiprogram
            national laboratory, operated for the U.S. Department of Energy
            by Battelle under Contract Number DE-AC05-76RL01830. Support
            for this work was provided by the Department of Energy Office
            of Biological and Environmental Research, Office of Basic
            Energy Sciences, and the Office of Advanced Scientific Computing.


           Job information
           ---------------

    hostname        = list1234-B360M-H
    program         = /home/list1234/source/nwchem-6.8.1-release/bin/LINUX64/nwchem
    date            = Sun Jun 30 06:06:17 2019

    compiled        = Sun_Jun_30_05:21:11_2019
    source          = /home/list1234/source/nwchem-6.8.1-release
    nwchem branch   = Development
    nwchem revision = N/A
    ga revision     = 5.6.5
    use scalapack   = T
    input           = /home/list1234/source/nwchem-6.8.1-release/QA/tests/paw/paw.nw
    prefix          = paw_test.
    data base       = ./paw_test.db
    status          = startup
    nproc           =        4
    time left       =     -1s



           Memory information
           ------------------

    heap     =   86247168 doubles =    658.0 Mbytes
    stack    =   86247165 doubles =    658.0 Mbytes
    global   =  172494336 doubles =   1316.0 Mbytes (distinct from heap & stack)
    total    =  344988669 doubles =   2632.1 Mbytes
    verify   = yes
    hardfail = no 


           Directory information
           ---------------------

  0 permanent = .
  0 scratch   = .




                                NWChem Input Module
                                -------------------


                                    paw testing
                                    -----------


                             Geometry "geometry" -> ""
                             -------------------------

 Output coordinates in a.u. (scale by  1.000000000 to convert to a.u.)

  No.       Tag          Charge          X              Y              Z
 ---- ---------------- ---------- -------------- -------------- --------------
    1 O                    8.0000     0.00000000     0.00000000     0.01200000
    2 H                    1.0000    -1.49000000     0.00000000    -1.18000000
    3 H                    1.0000     1.49000000     0.00000000    -1.18000000

      Atomic Mass 
      ----------- 

      O                 15.994910
      H                  1.007825


 Effective nuclear repulsion energy (a.u.)       8.7207388933

            Nuclear Dipole moment (a.u.) 
            ----------------------------
        X                 Y               Z
 ---------------- ---------------- ----------------
     0.0000000000     0.0000000000    -2.2640000000


            XYZ format geometry
            -------------------
     3
 geometry
 O                     0.00000000     0.00000000     0.00635013
 H                    -0.78847410     0.00000000    -0.62442915
 H                     0.78847410     0.00000000    -0.62442915

 ==============================================================================
                                internuclear distances
 ------------------------------------------------------------------------------
       center one      |      center two      | atomic units |       a.u.
 ------------------------------------------------------------------------------
    2 H                |   1 O                |     1.90813  |     1.90813
    3 H                |   1 O                |     1.90813  |     1.90813
 ------------------------------------------------------------------------------
                         number of included internuclear distances:          2
 ==============================================================================



 ==============================================================================
                                 internuclear angles
 ------------------------------------------------------------------------------
        center 1       |       center 2       |       center 3       |  degrees
 ------------------------------------------------------------------------------
    2 H                |   1 O                |   3 H                |   102.68
 ------------------------------------------------------------------------------
                            number of included internuclear angles:          1
 ==============================================================================



          ****************************************************
          *                                                  *
          *               NWPW PSPW Calculation              *
          *                                                  *
          * [ (Grassmann/Stiefel manifold implementation)  ] *
          *                                                  *
          *      [ NorthWest Chemistry implementation ]      *
          *                                                  *
          *            version #5.10   06/12/02              *
          *                                                  *
          *    This code was developed by Eric J. Bylaska,   *
          *    and was based upon algorithms and code        *
          *    developed by the group of Prof. John H. Weare *
          *                                                  *
          ****************************************************
     >>>  JOB STARTED       AT Sun Jun 30 06:06:17 2019  <<<
          ================ input data ========================
  library name resolved from: compiled reference
  NWCHEM_NWPW_LIBRARY set to: </home/list1234/source/nwchem-6.8.1-release/src/nwpw/libraryps/>
 Generating 1d pseudopotential for O   

 Generated formatted_filename: ./O.vpp
  library name resolved from: compiled reference
  NWCHEM_NWPW_LIBRARY set to: </home/list1234/source/nwchem-6.8.1-release/src/nwpw/libraryps/>
 Generating 1d pseudopotential for H   

 Generated formatted_filename: ./H.vpp
 random planewave guess, initial psi:paw_test.movecs                                   
 -   spin, nalpha, nbeta:                    1                    4                    0

 input psi filename:./paw_test.movecs
 Warning - Gram-Schmidt being performed on psi:   4.0000000000000000        3.2884538905396816        4.0000000000000018       0.71154610946031838     

 number of processors used:         4
 processor grid           :   4 x   1
 parallel mapping         :2d hilbert
 parallel mapping         :  balanced
 number of threads        :         1
 parallel io              :       off

 options:
      boundary conditions  = periodic    (version3)
      electron spin        = restricted
      exchange-correlation = LDA (Vosko et al) parameterization

 elements involved in the cluster:
      1: O   valence charge:  6.0000  lmax=  2
             comment    : Parameterized (Chem.Phys.Lett., vol 322, page 447) Hamman psp
             pseudpotential type            :   0
             highest angular component      :   2
             local potential used           :   2
             number of non-local projections:   4
             cutoff =   0.700   0.700   0.700

      2: H   valence charge:  1.0000  lmax=  1
             comment    : Parameterized (Chem.Phys.Lett., vol 322, page 447) Hamman psp
             pseudpotential type            :   0
             highest angular component      :   1
             local potential used           :   1
             number of non-local projections:   1
             cutoff =   0.800   0.800


 total charge:   0.000

 atomic composition:
     O   :    1     H   :    2

 number of electrons: spin up=     4 (   4 per task)  down=     4 (   4 per task) (Fourier space)
 number of orbitals : spin up=     4 (   4 per task)  down=     4 (   4 per task) (Fourier space)

 supercell:
      cell_name:  cell_default                                      
      lattice:    a1=<  20.000   0.000   0.000 >
                  a2=<   0.000  20.000   0.000 >
                  a3=<   0.000   0.000  20.000 >
      reciprocal: b1=<   0.314   0.000   0.000 >
                  b2=<   0.000   0.314   0.000 >
                  b3=<   0.000   0.000   0.314 >
      lattice:    a=      20.000 b=     20.000 c=      20.000
                  alpha=  90.000 beta=  90.000 gamma=  90.000
                  omega=      8000.0

      density cutoff= 12.633  fft= 32x 32x 32(     8536 waves     2134 per task)
      wavefnc cutoff= 12.633  fft= 32x 32x 32(     8536 waves     2134 per task)
      Ewald summation: cut radius=    1.50  and  1
                       Madelung Wigner-Seitz= 1.76011888 (alpha= 2.83729748 rs=12.40700982)

 technical parameters:
      time step=      5.80     fictitious mass=  400000.0
      tolerance=0.100E-10 (energy)   0.100E-10 (density)
      maximum iterations =      1000 (   10 inner    100 outer )





== Energy Calculation ==


          ============ Grassmann lmbfgs iteration ============
     >>>  ITERATION STARTED AT Sun Jun 30 06:06:17 2019  <<<
    iter.           Energy         DeltaE       DeltaRho 
    ------------------------------------------------------
     -  15 steepest descent iterations performed
      10   -0.1552606665E+02   -0.27513E+00    0.22658E+01
     -  10 steepest descent iterations performed
      20   -0.1638047005E+02   -0.32930E-02    0.40639E-01
      30   -0.1638754883E+02   -0.32450E-04    0.39515E-03
      40   -0.1638759492E+02   -0.19785E-06    0.89168E-06
      50   -0.1638759516E+02   -0.62631E-09    0.76907E-09
      60   -0.1638759516E+02   -0.70592E-11    0.57113E-11
  *** tolerance ok. iteration terminated
     >>>  ITERATION ENDED   AT Sun Jun 30 06:06:18 2019  <<<


==  Summary Of Results  ==

 number of electrons: spin up=    4.00000  down=    4.00000 (real space)

 total     energy    :  -0.1638759516E+02 (   -0.54625E+01/ion)
 total orbital energy:  -0.4230996805E+01 (   -0.10577E+01/electron)
 hartree   energy    :   0.1546072537E+02 (    0.38652E+01/electron)
 exc-corr  energy    :  -0.3889011076E+01 (   -0.97225E+00/electron)
 ion-ion   energy    :   0.2098581392E+01 (    0.69953E+00/ion)

 kinetic (planewave) :   0.9906855784E+01 (    0.24767E+01/electron)
 V_local (planewave) :  -0.4001514458E+02 (   -0.10004E+02/electron)
 V_nl    (planewave) :   0.5039795423E-01 (    0.12599E-01/electron)
 V_Coul  (planewave) :   0.3092145073E+02 (    0.77304E+01/electron)
 V_xc.   (planewave) :  -0.5094556693E+01 (   -0.12736E+01/electron)
 Virial Coefficient  :  -0.1427077662E+01

 orbital energies:
    -0.2496026E+00 (  -6.792eV)
    -0.3592207E+00 (  -9.775eV)
    -0.4682281E+00 ( -12.741eV)
    -0.1038447E+01 ( -28.258eV)

 Total PSPW energy     :  -0.1638759516E+02


=== Spin Contamination ===

 <Sexact^2> =    0.0000000000000000     
 <S^2>      =    0.0000000000000000     



== Center of Charge ==

spin up     (   -0.0000,    0.0000,   -0.2198 )
spin down   (   -0.0000,    0.0000,   -0.2198 )
     total  (   -0.0000,    0.0000,   -0.2198 )
ionic       (    0.0000,    0.0000,   -0.2860 )


== Molecular Dipole wrt Center of Mass ==

mu   =  (    0.0000,   -0.0000,   -0.5295 ) au
|mu| =     0.5295 au,       1.3459 Debye

 output psi filename:./paw_test.movecs


== Timing ==

cputime in seconds
  prologue    :   0.309079E+00
  main loop   :   0.688693E+00
  epilogue    :   0.406201E-02
  total       :   0.100183E+01
  cputime/step:   0.438658E-02       (     157 evalulations,      58 linesearches)


Time spent doing                        total          step       percent
  total time                 :   0.100283E+01  0.638743E-02       100.0 %
  i/o time                   :   0.259506E+00  0.165291E-02        25.9 %
  FFTs                       :   0.703769E-01  0.448261E-03         7.0 %
  dot products               :   0.246982E-01  0.157313E-03         2.5 %
  geodesic                   :   0.615632E-01  0.392122E-03         6.1 %
  ffm_dgemm                  :   0.823016E-02  0.524214E-04         0.8 %
  fmf_dgemm                  :   0.290753E-01  0.185193E-03         2.9 %
  mmm_dgemm                  :   0.101528E-02  0.646678E-05         0.1 %
  m_diagonalize              :   0.193621E-02  0.123325E-04         0.2 %
  exchange correlation       :   0.135998E+00  0.866227E-03        13.6 %
  local pseudopotentials     :   0.832670E-04  0.530363E-06         0.0 %
  non-local pseudopotentials :   0.395735E-01  0.252060E-03         3.9 %
  hartree potentials         :   0.657774E-02  0.418964E-04         0.7 %
  ion-ion interaction        :   0.394380E-03  0.251197E-05         0.0 %
  structure factors          :   0.768962E-02  0.489785E-04         0.8 %
  phase factors              :   0.678200E-05  0.431975E-07         0.0 %
  masking and packing        :   0.719872E-01  0.458517E-03         7.2 %
  queue fft                  :   0.268349E+00  0.170923E-02        26.8 %
  queue fft (serial)         :   0.101811E+00  0.648475E-03        10.2 %
  queue fft (message passing):   0.162772E+00  0.103676E-02        16.2 %
  non-local psp FFM          :   0.274959E-01  0.175133E-03         2.7 %
  non-local psp FMF          :   0.585236E-02  0.372762E-04         0.6 %
  non-local psp FFM A        :   0.124619E-01  0.793750E-04         1.2 %
  non-local psp FFM B        :   0.617281E-02  0.393172E-04         0.6 %

     >>>  JOB COMPLETED     AT Sun Jun 30 06:06:18 2019  <<<

 Task  times  cpu:        1.0s     wall:        1.0s


                                NWChem Input Module
                                -------------------


          ****************************************************
          *                                                  *
          *               NWPW PAW Calculation               *
          *                                                  *
          *  [ (Grassman/Stiefel manifold implementation) ]  *
          *                                                  *
          *      [ NorthWest Chemistry implementation ]      *
          *                                                  *
          *            version #5.10   06/12/02              *
          *                                                  *
          *      This code was developed by Marat Valiev     *
          *      and Eric J. Bylaska and was based upon      *
          *      algorithms and code developed by the        *
          *      group of Prof. John H. Weare                *
          *                                                  *
          ****************************************************
     >>>  JOB STARTED       AT Sun Jun 30 06:06:18 2019  <<<
          ================ input data ========================
  library name resolved from: compiled reference
  NWCHEM_NWPW_LIBRARY set to: </home/list1234/source/nwchem-6.8.1-release/src/nwpw/libraryps/>
 Generating 1d pseudopotential for O   
  library name resolved from: compiled reference
  NWCHEM_NWPW_LIBRARY set to: </home/list1234/source/nwchem-6.8.1-release/src/nwpw/libraryps/>
 Generating 1d pseudopotential for H   

  Generated formatted filename:./O.jpp

  Generated formatted filename:./H.jpp

 input psi filename:./paw_test.movecs
Gram-Schmidt performed on up spin  : (old error= 0.128E+00 new error= 0.180E-14)

 number of processors used:  4
 parallel mapping         : hilbert

 options:
      boundary conditions  = periodic    (version3)
      electron spin        = restricted
      exchange-correlation = Vosko et al parameterization

 elements involved in the cluster:
      1: O     ion charge: 8.0  core charge: 2.0
             loggrid parameter r0        : 0.313E-04
             loggrid parameter rmax      : 0.251E+02
             loggrid parameter npoints   :      2727
             augmentation sphere radius  :     1.785 ( 2197 npoints  550 per task)
             compensation sigma          :     0.147
             total number of projectors  :        13
             n_ps (n) l          eig      #projector
                1 (2) s    -0.873062               1
                2 (2) p    -0.338123               3
                3 (3) d     0.100000               5
                2 (3) s    -0.004523               1
                3 (3) p     0.100000               3
      2: H     ion charge: 1.0  core charge: 0.0
             loggrid parameter r0        : 0.250E-03
             loggrid parameter rmax      : 0.250E+02
             loggrid parameter npoints   :      2309
             augmentation sphere radius  :     0.892 ( 1641 npoints  411 per task)
             compensation sigma          :     0.071
             total number of projectors  :         9
             n_ps (n) l          eig      #projector
                1 (1) s    -0.233473               1
                2 (2) p     2.000000               3
                3 (3) d     2.000000               5

 total charge:  -0.000

 atomic composition:
     O   :  1     H   :  2

 number of active electrons: spin up=     4  down=     4 (fourier space)
 number of active orbitals : spin up=     4  down=     4 (fourier space)

 supercell:
      cell_name:  cell_default                                      
      lattice:    a1=<  20.000   0.000   0.000 >
                  a2=<   0.000  20.000   0.000 >
                  a3=<   0.000   0.000  20.000 >
      reciprocal: b1=<   0.314   0.000   0.000 >
                  b2=<   0.000   0.314   0.000 >
                  b3=<   0.000   0.000   0.314 >
      lattice:    a=      20.000 b=     20.000 c=      20.000
                  alpha=  90.000 beta=  90.000 gamma=  90.000
                  omega=  8000.0

      density cutoff= 12.633  fft= 32x 32x 32(     8536 waves     2134 per task)
      wavefnc cutoff= 12.633  fft= 32x 32x 32(     8536 waves     2134 per task)
      ewald summation: cut radius=    1.50  and  1

 technical parameters:
      core integration lmax= 0
      time step=      5.80     fictitious mass=  400000.0
      tolerance=.100E-10 (energy)   0.100E-10 (density)





== Energy Calculation ==


          ====== Grassmann conjugate gradient iteration ======
     >>>  ITERATION STARTED AT Sun Jun 30 06:06:20 2019  <<<
    iter.           Energy         DeltaE       DeltaRho 
    ------------------------------------------------------
      10   -0.7580454311E+02   -0.22882E-03    0.50058E-05
      20   -0.7580488329E+02   -0.12539E-04    0.37303E-06
      30   -0.7580489717E+02   -0.55420E-06    0.56263E-08
      40   -0.7580489782E+02   -0.57086E-08    0.13846E-09
      50   -0.7580489787E+02   -0.12407E-08    0.10130E-10
      60   -0.7580489787E+02   -0.98481E-10    0.12947E-11
      70   -0.7580489787E+02   -0.13728E-10    0.10968E-12
      80   -0.7580489787E+02   -0.77449E-11    0.71988E-13
  *** tolerance ok. iteration terminated
     >>>  ITERATION ENDED   AT Sun Jun 30 06:06:26 2019  <<<


==  Summary Of Results  ==

 number of electrons: spin up=    4.00000  down=    4.00000 (real space)
     plane-wave part:             3.80092           3.80092 (real space)
      augmented part:             0.19908           0.19908 (real space)

 total     energy    :  -0.7580489787E+02 (   -0.25268E+02/ion)
 total orbital energy:  -0.3942548550E+01 (   -0.98564E+00/electron)
 hartree   energy    :  -0.1429696635E+03 (   -0.35742E+02/electron)
 exc-corr  energy    :  -0.8690320588E+01 (   -0.21726E+01/electron)

 kinetic (planewave) :   0.9720494334E+01 (    0.24301E+01/electron)
 coulomb (planewave) :  -0.6139017317E+01 (   -0.15348E+01/electron)
 exc-cor (planewave) :  -0.3695986733E+01 (   -0.92400E+00/electron)
 pseudo  (planewave) :   0.8437315968E+01 (    0.21093E+01/electron)

 kinetic (loc. basis):   0.6587079948E+02 (    0.16468E+02/electron)
 coulomb (loc. basis):  -0.2171315389E+03 (   -0.54283E+02/electron)
 exc-cor (loc. basis):  -0.4994333855E+01 (   -0.12486E+01/electron)
 pseudo (loc. basis) :  -0.8173523613E+01 (   -0.20434E+01/electron)

 coulomb (multipole) :   0.8030089277E+02 (    0.26767E+02/ion)

 orbital energies:
    -0.2560388E+00 (  -6.967eV)
    -0.3382327E+00 (  -9.204eV)
    -0.4571584E+00 ( -12.440eV)
    -0.9198445E+00 ( -25.030eV)

 Total PAW energy   :  -0.7580489787E+02

 output psi filename:./paw_test.movecs


== Timing ==

cputime in seconds
  prologue    :   0.200613E+01
  main loop   :   0.554992E+01
  epilogue    :   0.427974E-02
  total       :   0.756033E+01
  cputime/step:   0.147213E-01       (     377 evalulations,      71 linesearches)


Time spent doing                        total          step
  FFTs                       :   0.482271E+00  0.127923E-02
  dot products               :   0.920372E+00  0.244130E-02
  geodesic                   :   0.187605E+01  0.497625E-02
  exchange correlation       :   0.624673E+00  0.165696E-02
  local pseudopotentials     :   0.749180E-04  0.198721E-06
  non-local pseudopotentials :   0.171630E+01  0.455251E-02
  hartree potentials         :   0.551541E-02  0.146297E-04
  structure factors          :   0.159067E+00  0.421928E-03
  masking and packing        :   0.164606E+00  0.436620E-03
  atomic density generation  :   0.227164E-01  0.602556E-04
  atomic xc matrix elements  :   0.293394E+00  0.778234E-03

     >>>  JOB COMPLETED     AT Sun Jun 30 06:06:26 2019  <<<

 Task  times  cpu:        7.5s     wall:        7.6s


                                NWChem Input Module
                                -------------------


 >>>> PAW Parallel Module - Car-Parrinello <<<<
          ****************************************************
          *                                                  *
          *  PAW Car-Parrinello microcluster calculation     *
          *                                                  *
          *     [    extended Lagrangian molecular    ]      *
          *                                                  *
          *     [         dynamics simulation         ]      *
          *     [  Northwest Chemistry implementation ]      *
          *                                                  *
          *            version #1.00   10/01/03              *
          *                                                  *
          *    Authors: Marat Valiev and Eric J. Bylaska     *
          *                                                  *
          *    This code is based upon algorithms and code   *
          *    developed by the group of Prof. John H. Weare *
          *                                                  *
          ****************************************************
     >>>  JOB STARTED       AT Sun Jun 30 06:06:26 2019  <<<
          ================ PAW input data ===================

 input psi filename:./paw_test.movecs
 Generated initial wavefunctions velocities:paw_test.vmovecs                                  

 input vpsi filename:./paw_test.vmovecs

 number of processors used:  4
 processor grid           :   4 x   1
 parallel mapping         : hilbert

 options:
      boundary conditions  = periodic    (version3)
      electron spin        = restricted
      exchange-correlation = Vosko et al parameterization

 elements involved in the cluster:
      1: O     ion charge: 8.0  core charge: 2.0
             augmentation sphere radius  : 1.785
             compensation sigma          : 0.147
             total number of projectors  : 13
             n_ps (n) l          eig    #projector
                1 (2) s    -0.873062             1
                2 (2) p    -0.338123             3
                3 (3) d     0.100000             5
                2 (3) s    -0.004523             1
                3 (3) p     0.100000             3
      2: H     ion charge: 1.0  core charge: 0.0
             augmentation sphere radius  : 0.892
             compensation sigma          : 0.071
             total number of projectors  :  9
             n_ps (n) l          eig    #projector
                1 (1) s    -0.233473             1
                2 (2) p     2.000000             3
                3 (3) d     2.000000             5

 total charge:  -0.000

 atomic composition:
     O   :  1     H   :  2

 initial position of ions:
        1 O    (    0.00000    0.00000    0.01200 ) - atomic mass=  15.995 
        2 H    (   -1.49000    0.00000   -1.18000 ) - atomic mass=   2.000 
        3 H    (    1.49000    0.00000   -1.18000 ) - atomic mass=   2.000 
        G.C.   (    0.00000    0.00000   -0.78267 )
        C.O.M. (    0.00000    0.00000   -0.22646 )

 initial velocity of ions:
        1 O    (    0.00000    0.00000    0.00000 )
        2 H    (    0.00000    0.00000    0.00000 )
        3 H    (    0.00000    0.00000    0.00000 )
        G.C.   (    0.00000    0.00000    0.00000 )
        C.O.M. (    0.00000    0.00000    0.00000 )

 number of electrons: spin up=  4  spin down=  4 ( fourier space)

 supercell:
      lattice:    a1=<  20.000   0.000   0.000 >
                  a2=<   0.000  20.000   0.000 >
                  a3=<   0.000   0.000  20.000 >
      reciprocal: b1=<   0.314   0.000   0.000 >
                  b2=<   0.000   0.314   0.000 >
                  b3=<   0.000   0.000   0.314 >
      volume :     8000.0
      density cutoff= 12.633  fft= 32x 32x 32(     8536 waves     2134 per task)
      wavefnc cutoff= 12.633  fft= 32x 32x 32(     8536 waves     2134 per task)
      smooth compensation (ewald) summation: cut radius=    1.50  and  1

 technical parameters:
      core integration lmax= 0
      time step=      5.00     fictitious mass=    1100.0
      cooling/heatting rates:  0.10000E+01 (psi)   0.10000E+01 (ion)
      initial kinetic energy:  0.00000E+00 (psi)   0.00000E+00 (ion)
                                                   0.00000E+00 (c.o.m.)
      after scaling:           0.00000E+00 (psi)   0.00000E+00 (ion)
      increased energy:        0.00000E+00 (psi)   0.00000E+00 (ion)

 Constant Energy Simulation                     



          ============ Car-Parrinello iteration ==============
     >>>  ITERATION STARTED AT Sun Jun 30 06:06:26 2019  <<<
    iter.         KE+Energy             Energy        KE_psi        KE_ion   Temperature
    ------------------------------------------------------------------------------------
      10  -0.7580489787E+02  -0.7580489876E+02   0.95943E-07   0.78500E-06          0.03
      20  -0.7580489788E+02  -0.7580490055E+02   0.47281E-06   0.22014E-05          0.09
      30  -0.7580489788E+02  -0.7580490188E+02   0.75142E-06   0.32488E-05          0.16
      40  -0.7580489788E+02  -0.7580490191E+02   0.74105E-06   0.32888E-05          0.21
      50  -0.7580489788E+02  -0.7580490100E+02   0.45820E-06   0.26617E-05          0.23
      60  -0.7580489787E+02  -0.7580490032E+02   0.23805E-06   0.22056E-05          0.23
      70  -0.7580489787E+02  -0.7580490072E+02   0.35285E-06   0.24882E-05          0.23
      80  -0.7580489788E+02  -0.7580490188E+02   0.71582E-06   0.32893E-05          0.24
      90  -0.7580489788E+02  -0.7580490262E+02   0.98362E-06   0.37637E-05          0.26
     100  -0.7580489788E+02  -0.7580490201E+02   0.89408E-06   0.32441E-05          0.27
 *** arived at the Maximum iiteration.   terminated.
     >>>  ITERATION ENDED   AT Sun Jun 30 06:06:29 2019  <<<



          =============  summary of results  =================

 final position of ions:
        1 O    (   -0.00000   -0.00000    0.01280 ) - atomic mass=  15.995 
        2 H    (   -1.48569   -0.00000   -1.18790 ) - atomic mass=   2.000 
        3 H    (    1.48569   -0.00000   -1.18790 ) - atomic mass=   2.000 
        G.C.   (   -0.00000   -0.00000   -0.78767 )
        C.O.M. (   -0.00000   -0.00000   -0.22740 )

 final velocity of ions:
        1 O    (    0.00000    0.00000   -0.00001 )
        2 H    (    0.00003    0.00000   -0.00000 )
        3 H    (   -0.00003    0.00000   -0.00000 )
        G.C.   (    0.00000    0.00000   -0.00001 )
        C.O.M. (    0.00000    0.00000   -0.00001 )

 total charge of system:    0.00000 (real space)


 total     energy    :  -0.7580490201E+02 (   -0.25268E+02/ion)
 total orbital energy:  -0.3941827918E+01 (   -0.98546E+00/electron)
 hartree   energy    :  -0.2232730719E+03 (   -0.55818E+02/electron)
 exc-corr  energy    :  -0.8689443089E+01 (   -0.21724E+01/electron)
 ion-ion   energy    :   0.0000000000E+00 (    0.00000E+00/ion)

 Kinetic energy (elc)    :   0.8940802030E-06 (    0.22352E-06/elc)
 Kinetic energy (ion)    :   0.3244103295E-05 (    0.10814E-05/ion)

 final kinetic energy:   0.89408E-06 (psi)   0.32441E-05 (ion)
                                             0.87167E-06 (c.o.m.)
 Temperature :           0.0 K (elc)
 Temperature :           0.3 K (ion)
             :           0.1 K (c.o.m.)

 Eaverage           :      -0.7580490116E+02
 Evariance          :       0.9094947018E-12
 Cv - f*kb/(2*nion) :       0.1323804184E-05

 orbital energies:
    -0.2560492E+00 (  -6.968eV)
    -0.3392238E+00 (  -9.231eV)
    -0.4558877E+00 ( -12.405eV)
    -0.9197532E+00 ( -25.028eV)

 Total PAW energy   :  -0.7580490201E+02

 output psi filename:./paw_test.movecs

 output vpsi filename:./paw_test.vmovecs

 ================================
 ==== CPMD Property Analysis ====
 ================================

 CPMD property analysis is off. To turn analysis on set cpmd_properties, i.e.
 nwpw
    cpmd_properties on
 end


 -----------------
 cputime in seconds
 prologue    :   0.22750621600000009     
 main loop   :    2.6364501639999993     
 epilogue    :    1.5309772000000166E-002
 total       :    2.8792661519999996     
 cputime/step:    2.6364501639999992E-002

 -------------------------------
 Time spent doing:
   FFTs                       :   0.22261129099998911     
   dot products               :    1.3040340479999877     
   orthonormalization         :   0.24073530599998527     
   exchange correlation       :   0.16904525000000881     
   local pseudopotentials     :    2.2529845000001103E-002
   non-local pseudopotentials :   0.29454772500003479     
   hartree potentials         :    1.7397330000097355E-003
   structure factors          :    2.8043083999969909E-002
   masking and packing        :    5.8000025999993099E-002
   total energy evaluation    :    9.2771420000019589E-003
   density                    :    0.0000000000000000     
   allocate and deallocate    :    4.3250760000077548E-003
   Hpsi and update            :   0.18550620899998549     

     >>>  JOB COMPLETED     AT Sun Jun 30 06:06:29 2019  <<<

 Task  times  cpu:        2.9s     wall:        2.9s


                                NWChem Input Module
                                -------------------




                         Geometry "geometry" -> "        "
                         ---------------------------------

 Output coordinates in a.u. (scale by  1.000000000 to convert to a.u.)

  No.       Tag          Charge          X              Y              Z
 ---- ---------------- ---------- -------------- -------------- --------------
    1 O                    8.0000     0.00000000     0.00000000     0.01358000
    2 H                    1.0000    -1.49318000     0.00000000    -1.17104000
    3 H                    1.0000     1.49318000     0.00000000    -1.17104000

      Atomic Mass 
      ----------- 

      O                 15.994910
      H                  1.007825


 Effective nuclear repulsion energy (a.u.)       8.7293126407

            Nuclear Dipole moment (a.u.) 
            ----------------------------
        X                 Y               Z
 ---------------- ---------------- ----------------
     0.0000000000     0.0000000000    -2.2334400000


            XYZ format geometry
            -------------------
     3
 geometry
 O                     0.00000000     0.00000000     0.00718623
 H                    -0.79015688     0.00000000    -0.61968773
 H                     0.79015688     0.00000000    -0.61968773

 ==============================================================================
                                internuclear distances
 ------------------------------------------------------------------------------
       center one      |      center two      | atomic units |       a.u.
 ------------------------------------------------------------------------------
    2 H                |   1 O                |     1.90602  |     1.90602
    3 H                |   1 O                |     1.90602  |     1.90602
 ------------------------------------------------------------------------------
                         number of included internuclear distances:          2
 ==============================================================================



 ==============================================================================
                                 internuclear angles
 ------------------------------------------------------------------------------
        center 1       |       center 2       |       center 3       |  degrees
 ------------------------------------------------------------------------------
    2 H                |   1 O                |   3 H                |   103.15
 ------------------------------------------------------------------------------
                            number of included internuclear angles:          1
 ==============================================================================



          ****************************************************
          *                                                  *
          *               NWPW PAW Calculation               *
          *                                                  *
          *  [ (Grassman/Stiefel manifold implementation) ]  *
          *                                                  *
          *      [ NorthWest Chemistry implementation ]      *
          *                                                  *
          *            version #5.10   06/12/02              *
          *                                                  *
          *      This code was developed by Marat Valiev     *
          *      and Eric J. Bylaska and was based upon      *
          *      algorithms and code developed by the        *
          *      group of Prof. John H. Weare                *
          *                                                  *
          ****************************************************
     >>>  JOB STARTED       AT Sun Jun 30 06:06:29 2019  <<<
          ================ input data ========================

 input psi filename:./paw_test.movecs
Gram-Schmidt performed on up spin  : (old error= 0.292E-03 new error= 0.218E-14)

 number of processors used:  4
 parallel mapping         : hilbert

 options:
      boundary conditions  = periodic    (version3)
      electron spin        = restricted
      exchange-correlation = Vosko et al parameterization

 elements involved in the cluster:
      1: O     ion charge: 8.0  core charge: 2.0
             loggrid parameter r0        : 0.313E-04
             loggrid parameter rmax      : 0.251E+02
             loggrid parameter npoints   :      2727
             augmentation sphere radius  :     1.785 ( 2197 npoints  550 per task)
             compensation sigma          :     0.147
             total number of projectors  :        13
             n_ps (n) l          eig      #projector
                1 (2) s    -0.873062               1
                2 (2) p    -0.338123               3
                3 (3) d     0.100000               5
                2 (3) s    -0.004523               1
                3 (3) p     0.100000               3
      2: H     ion charge: 1.0  core charge: 0.0
             loggrid parameter r0        : 0.250E-03
             loggrid parameter rmax      : 0.250E+02
             loggrid parameter npoints   :      2309
             augmentation sphere radius  :     0.892 ( 1641 npoints  411 per task)
             compensation sigma          :     0.071
             total number of projectors  :         9
             n_ps (n) l          eig      #projector
                1 (1) s    -0.233473               1
                2 (2) p     2.000000               3
                3 (3) d     2.000000               5

 total charge:  -0.000

 atomic composition:
     O   :  1     H   :  2

 number of active electrons: spin up=     4  down=     4 (fourier space)
 number of active orbitals : spin up=     4  down=     4 (fourier space)

 supercell:
      cell_name:  cell_default                                      
      lattice:    a1=<  20.000   0.000   0.000 >
                  a2=<   0.000  20.000   0.000 >
                  a3=<   0.000   0.000  20.000 >
      reciprocal: b1=<   0.314   0.000   0.000 >
                  b2=<   0.000   0.314   0.000 >
                  b3=<   0.000   0.000   0.314 >
      lattice:    a=      20.000 b=     20.000 c=      20.000
                  alpha=  90.000 beta=  90.000 gamma=  90.000
                  omega=  8000.0

      density cutoff= 12.633  fft= 32x 32x 32(     8536 waves     2134 per task)
      wavefnc cutoff= 12.633  fft= 32x 32x 32(     8536 waves     2134 per task)
      ewald summation: cut radius=    1.50  and  1

 technical parameters:
      core integration lmax= 0
      time step=      5.80     fictitious mass=  400000.0
      tolerance=.100E-10 (energy)   0.100E-10 (density)





== Energy Calculation ==


          ====== Grassmann conjugate gradient iteration ======
     >>>  ITERATION STARTED AT Sun Jun 30 06:06:29 2019  <<<
    iter.           Energy         DeltaE       DeltaRho 
    ------------------------------------------------------
      10   -0.7580487852E+02   -0.49656E-06    0.12043E-07
      20   -0.7580488031E+02   -0.11035E-07    0.28198E-09
      30   -0.7580488037E+02   -0.85026E-09    0.12403E-10
      40   -0.7580488037E+02   -0.14292E-09    0.22083E-11
      50   -0.7580488037E+02   -0.94502E-11    0.11863E-12
  *** tolerance ok. iteration terminated
     >>>  ITERATION ENDED   AT Sun Jun 30 06:06:33 2019  <<<


==  Summary Of Results  ==

 number of electrons: spin up=    4.00000  down=    4.00000 (real space)
     plane-wave part:             3.80084           3.80084 (real space)
      augmented part:             0.19916           0.19916 (real space)

 total     energy    :  -0.7580488037E+02 (   -0.25268E+02/ion)
 total orbital energy:  -0.3943276892E+01 (   -0.98582E+00/electron)
 hartree   energy    :  -0.1429712878E+03 (   -0.35743E+02/electron)
 exc-corr  energy    :  -0.8691252897E+01 (   -0.21728E+01/electron)

 kinetic (planewave) :   0.9724285043E+01 (    0.24311E+01/electron)
 coulomb (planewave) :  -0.6140484953E+01 (   -0.15351E+01/electron)
 exc-cor (planewave) :  -0.3696717953E+01 (   -0.92418E+00/electron)
 pseudo  (planewave) :   0.8438634406E+01 (    0.21097E+01/electron)

 kinetic (loc. basis):   0.6586964384E+02 (    0.16467E+02/electron)
 coulomb (loc. basis):  -0.2171285310E+03 (   -0.54282E+02/electron)
 exc-cor (loc. basis):  -0.4994534944E+01 (   -0.12486E+01/electron)
 pseudo (loc. basis) :  -0.8174902973E+01 (   -0.20437E+01/electron)

 coulomb (multipole) :   0.8029772817E+02 (    0.26766E+02/ion)

 orbital energies:
    -0.2560289E+00 (  -6.967eV)
    -0.3374249E+00 (  -9.182eV)
    -0.4582385E+00 ( -12.469eV)
    -0.9199462E+00 ( -25.033eV)

 Total PAW energy   :  -0.7580488037E+02

 output psi filename:./paw_test.movecs


== Timing ==

cputime in seconds
  prologue    :   0.198773E+00
  main loop   :   0.388442E+01
  epilogue    :   0.428060E-02
  total       :   0.408748E+01
  cputime/step:   0.147697E-01       (     263 evalulations,      50 linesearches)


Time spent doing                        total          step
  FFTs                       :   0.337702E+00  0.128404E-02
  dot products               :   0.644589E+00  0.245091E-02
  geodesic                   :   0.132060E+01  0.502130E-02
  exchange correlation       :   0.435427E+00  0.165562E-02
  local pseudopotentials     :   0.769700E-04  0.292662E-06
  non-local pseudopotentials :   0.121076E+01  0.460365E-02
  hartree potentials         :   0.297967E-02  0.113295E-04
  structure factors          :   0.111930E+00  0.425589E-03
  masking and packing        :   0.114497E+00  0.435351E-03
  atomic density generation  :   0.162143E-01  0.616512E-04
  atomic xc matrix elements  :   0.204576E+00  0.777855E-03

     >>>  JOB COMPLETED     AT Sun Jun 30 06:06:33 2019  <<<

 Task  times  cpu:        4.1s     wall:        4.1s


                                NWChem Input Module
                                -------------------


 >>>> PAW Parallel Module - steepest_descent <<<<
          ****************************************************
          *                                                  *
          *        NWPW PAW microcluster calculation         *
          *                                                  *
          *     [    steepest descent minimization   ]       *
          *                                                  *
          *     [ NorthWest Chemistry implementation ]       *
          *                                                  *
          *            version #1.00   08/01/02              *
          *                                                  *
          *    Authors: Marat Valiev and Eric J. Bylaska     *
          *                                                  *
          *    This code is based upon algorithms and code   *
          *    developed by the group of Prof. John H. Weare *
          *                                                  *
          ****************************************************
     >>>  JOB STARTED       AT Sun Jun 30 06:06:33 2019  <<<
          ================ PAW input data ===================

 input psi filename:./paw_test.movecs

 number of processors used:  4
 processor grid           :   4 x   1
 parallel mapping         : hilbert

 options:
      ionic motion         = yes
      boundary conditions  = periodic    (version3)
      electron spin        = restricted
      exchange-correlation = Vosko et al parameterization

 elements involved in the cluster:
      1: O     ion charge: 8.0  core charge: 2.0
             augmentation sphere radius  : 1.785
             compensation sigma          : 0.147
             total number of projectors  : 13
             n_ps (n) l          eig    #projector
                1 (2) s    -0.873062             1
                2 (2) p    -0.338123             3
                3 (3) d     0.100000             5
                2 (3) s    -0.004523             1
                3 (3) p     0.100000             3
      2: H     ion charge: 1.0  core charge: 0.0
             augmentation sphere radius  : 0.892
             compensation sigma          : 0.071
             total number of projectors  :  9
             n_ps (n) l          eig    #projector
                1 (1) s    -0.233473             1
                2 (2) p     2.000000             3
                3 (3) d     2.000000             5

 total charge:  -0.000

 atomic composition:
     O   :  1     H   :  2

 initial position of ions:
        1 O    (    0.00000    0.00000    0.01358 ) - atomic mass=  15.995 
        2 H    (   -1.49318    0.00000   -1.17104 ) - atomic mass=   2.000 
        3 H    (    1.49318    0.00000   -1.17104 ) - atomic mass=   2.000 
        G.C.   (    0.00000    0.00000   -0.77617 )
        C.O.M. (    0.00000    0.00000   -0.22340 )

 number of electrons: spin up=  4  spin down=  4 ( fourier space)

 supercell:
      cell_name:  cell_default                                      
      lattice:    a1=<  20.000   0.000   0.000 >
                  a2=<   0.000  20.000   0.000 >
                  a3=<   0.000   0.000  20.000 >
      reciprocal: b1=<   0.314   0.000   0.000 >
                  b2=<   0.000   0.314   0.000 >
                  b3=<   0.000   0.000   0.314 >
      lattice:    a=      20.000 b=     20.000 c=      20.000
                  alpha=  90.000 beta=  90.000 gamma=  90.000
                  omega=  8000.0

      density cutoff= 12.633  fft= 32x 32x 32(     8536 waves     2134 per task)
      wavefnc cutoff= 12.633  fft= 32x 32x 32(     8536 waves     2134 per task)
      smooth compensation (ewald) summation: cut radius=    1.50  and  1

 technical parameters:
      core integration lmax= 0
      time step=      5.80     fictitious mass=  400000.0
      tolerance=.100E-06 (energy)   0.100E-06 (electron)   0.100E-03 (ion)



          ================ iteration =========================
     >>>  ITERATION STARTED AT Sun Jun 30 06:06:33 2019  <<<
    iter.           Energy         DeltaE       DeltaRho 
    ------------------------------------------------------
      10   -0.7580488354E+02   -0.13070E+01    0.56080E-08    0.80474E-03
      20   -0.7580488483E+02   -0.22105E-07    0.78327E-08    0.46713E-03
      30   -0.7580488575E+02   -0.16010E-07    0.77679E-08    0.35514E-03
      40   -0.7580488655E+02   -0.13681E-07    0.72944E-08    0.30571E-03
      50   -0.7580488726E+02   -0.12236E-07    0.68042E-08    0.27788E-03
      60   -0.7580488791E+02   -0.11172E-07    0.63611E-08    0.25925E-03
      70   -0.7580488850E+02   -0.10323E-07    0.59674E-08    0.24532E-03
      80   -0.7580488906E+02   -0.96137E-08    0.56160E-08    0.23414E-03
      90   -0.7580488958E+02   -0.90042E-08    0.52996E-08    0.22477E-03
     100   -0.7580489008E+02   -0.84698E-08    0.50123E-08    0.21666E-03
     110   -0.7580489054E+02   -0.79946E-08    0.47497E-08    0.20947E-03
     120   -0.7580489098E+02   -0.75673E-08    0.45083E-08    0.20299E-03
     130   -0.7580489139E+02   -0.71799E-08    0.42852E-08    0.19708E-03
     140   -0.7580489179E+02   -0.68261E-08    0.40781E-08    0.19163E-03
     150   -0.7580489217E+02   -0.65011E-08    0.38853E-08    0.18657E-03
     160   -0.7580489253E+02   -0.62013E-08    0.37053E-08    0.18183E-03
     170   -0.7580489287E+02   -0.59234E-08    0.35368E-08    0.17737E-03
     180   -0.7580489320E+02   -0.56649E-08    0.33786E-08    0.17315E-03
     190   -0.7580489351E+02   -0.54238E-08    0.32300E-08    0.16915E-03
     200   -0.7580489382E+02   -0.51982E-08    0.30900E-08    0.16533E-03
     210   -0.7580489410E+02   -0.49867E-08    0.29580E-08    0.16169E-03
     220   -0.7580489438E+02   -0.47879E-08    0.28333E-08    0.15820E-03
     230   -0.7580489465E+02   -0.46006E-08    0.27154E-08    0.15486E-03
     240   -0.7580489491E+02   -0.44239E-08    0.26039E-08    0.15164E-03
     250   -0.7580489515E+02   -0.42570E-08    0.24982E-08    0.14854E-03
     260   -0.7580489539E+02   -0.40990E-08    0.23980E-08    0.14555E-03
     270   -0.7580489562E+02   -0.39492E-08    0.23028E-08    0.14266E-03
     280   -0.7580489584E+02   -0.38071E-08    0.22125E-08    0.13986E-03
     290   -0.7580489605E+02   -0.36721E-08    0.21266E-08    0.13716E-03
     300   -0.7580489626E+02   -0.35437E-08    0.20449E-08    0.13454E-03
     310   -0.7580489646E+02   -0.34214E-08    0.19671E-08    0.13199E-03
     320   -0.7580489665E+02   -0.33049E-08    0.18930E-08    0.12952E-03
     330   -0.7580489683E+02   -0.31937E-08    0.18224E-08    0.12712E-03
     340   -0.7580489701E+02   -0.30876E-08    0.17551E-08    0.12479E-03
     350   -0.7580489719E+02   -0.29861E-08    0.16908E-08    0.12252E-03
     360   -0.7580489735E+02   -0.28891E-08    0.16295E-08    0.12031E-03
     370   -0.7580489752E+02   -0.27963E-08    0.15709E-08    0.11816E-03
     380   -0.7580489767E+02   -0.27074E-08    0.15149E-08    0.11606E-03
     390   -0.7580489783E+02   -0.26222E-08    0.14614E-08    0.11402E-03
     400   -0.7580489797E+02   -0.25405E-08    0.14102E-08    0.11203E-03
     410   -0.7580489812E+02   -0.24621E-08    0.13612E-08    0.11008E-03
     420   -0.7580489825E+02   -0.23868E-08    0.13143E-08    0.10819E-03
     430   -0.7580489839E+02   -0.23145E-08    0.12693E-08    0.10633E-03
     440   -0.7580489852E+02   -0.22450E-08    0.12263E-08    0.10452E-03
     450   -0.7580489864E+02   -0.21781E-08    0.11850E-08    0.10276E-03
     460   -0.7580489877E+02   -0.21138E-08    0.11454E-08    0.10103E-03
     470   -0.7580489889E+02   -0.20518E-08    0.11075E-08    0.99342E-04
  *** tolerance ok.     iteration terminated.
     >>>  ITERATION ENDED   AT Sun Jun 30 06:06:45 2019  <<<



          =============  summary of results  =================
 final position of ions:
        1 O    (    0.00000   -0.00000    0.01370 ) - atomic mass=  15.995 
        2 H    (   -1.49135    0.00000   -1.17964 ) - atomic mass=   2.000 
        3 H    (    1.49135    0.00000   -1.17964 ) - atomic mass=   2.000 
        G.C.   (    0.00000    0.00000   -0.78186 )
        C.O.M. (    0.00000    0.00000   -0.22503 )

 total charge of system:    0.00000 (pw=    7.60189 cmp=   -7.60189)  (real space)

 total     energy    :  -0.7580489889E+02 (   -0.25268E+02/ion)
 total orbital energy:  -0.3940535826E+01 (   -0.98513E+00/electron)
 hartree   energy    :  -0.1429671438E+03 (   -0.35742E+02/electron)
 exc-corr  energy    :  -0.8689516581E+01 (   -0.21724E+01/electron)

 kinetic (planewave) :   0.9717524793E+01 (    0.24294E+01/electron)
 coulomb (planewave) :  -0.6136816945E+01 (   -0.15342E+01/electron)
 exc-cor (planewave) :  -0.3695278622E+01 (   -0.92382E+00/electron)
 pseudo  (planewave) :   0.8435298265E+01 (    0.21088E+01/electron)

 kinetic (loc. basis):   0.6587041398E+02 (    0.16468E+02/electron)
 coulomb (loc. basis):  -0.2171312943E+03 (   -0.54283E+02/electron)
 exc-cor (loc. basis):  -0.4994237958E+01 (   -0.12486E+01/electron)
 pseudo (loc. basis) :  -0.8171475593E+01 (   -0.20429E+01/electron)

 coulomb (multipole) :   0.8030096746E+02 (    0.26767E+02/ion)

 orbital energies:
    -0.2559078E+00 (  -6.964eV)
    -0.3381428E+00 (  -9.201eV)
    -0.4567996E+00 ( -12.430eV)
    -0.9194177E+00 ( -25.019eV)

 Total PAW energy   :  -0.7580489889E+02

 output psi filename:./paw_test.movecs

 -----------------
 cputime in seconds
 prologue    :   0.19131274100000084     
 main loop   :    12.365852282000001     
 epilogue    :    1.4725474999998767E-002
 total       :    12.571890498000000     
 cputime/step:    2.6310324004255321E-002

 -------------------------------
 Time spent doing:
   FFTs                       :    1.0286221000000833     
   dot products               :    6.0392898699992514     
   orthonormalization         :    1.1292032049999641     
   exchange correlation       :   0.78588301399991778     
   local pseudopotentials     :   0.10377366400002686     
   non-local projectors       :    1.3399322580000241     
   hartree potentials         :    6.5619120000892650E-003
   structure factors          :   0.12858217199992161     
   masking and packing        :   0.26421015400008763     
   total energy evaluation    :    4.4262358999979767E-002
   density                    :    0.0000000000000000     
   allocate and deallocate    :    1.9811024999974336E-002
   Hpsi and update            :   0.88866236599996995     
   multipole calculation      :   0.89468474700001188     
   gaunt coefficients         :   0.55272596899707338     

     >>>  JOB COMPLETED     AT Sun Jun 30 06:06:45 2019  <<<

 Task  times  cpu:       12.6s     wall:       12.6s


                                NWChem Input Module
                                -------------------


 Summary of allocated global arrays
-----------------------------------
  No active global arrays



                         GA Statistics for process    0
                         ------------------------------

       create   destroy   get      put      acc     scatter   gather  read&inc
calls:    0        0        0        0        0        0        0        0     
number of processes/call 0.00e+00 0.00e+00 0.00e+00 0.00e+00 0.00e+00
bytes total:             0.00e+00 0.00e+00 0.00e+00 0.00e+00 0.00e+00 0.00e+00
bytes remote:            0.00e+00 0.00e+00 0.00e+00 0.00e+00 0.00e+00 0.00e+00
Max memory consumed for GA by this process: 0 bytes

MA_summarize_allocated_blocks: starting scan ...
MA_summarize_allocated_blocks: scan completed: 0 heap blocks, 0 stack blocks
MA usage statistics:

	allocation statistics:
					      heap	     stack
					      ----	     -----
	current number of blocks	         0	         0
	maximum number of blocks	       316	        25
	current total bytes		         0	         0
	maximum total bytes		  11961000	   1145544
	maximum total K-bytes		     11961	      1146
	maximum total M-bytes		        12	         2


                                     CITATION
                                     --------
                Please cite the following reference when publishing
                           results obtained with NWChem:

                 M. Valiev, E.J. Bylaska, N. Govind, K. Kowalski,
              T.P. Straatsma, H.J.J. van Dam, D. Wang, J. Nieplocha,
                        E. Apra, T.L. Windus, W.A. de Jong
                 "NWChem: a comprehensive and scalable open-source
                  solution for large scale molecular simulations"
                      Comput. Phys. Commun. 181, 1477 (2010)
                           doi:10.1016/j.cpc.2010.04.018

                                      AUTHORS
                                      -------
          E. Apra, E. J. Bylaska, W. A. de Jong, N. Govind, K. Kowalski,
       T. P. Straatsma, M. Valiev, H. J. J. van Dam, D. Wang, T. L. Windus,
        J. Hammond, J. Autschbach, K. Bhaskaran-Nair, J. Brabec, K. Lopata,
    S. A. Fischer, S. Krishnamoorthy, M. Jacquelin, W. Ma, M. Klemm, O. Villa,
      Y. Chen, V. Anisimov, F. Aquino, S. Hirata, M. T. Hackler, V. Konjkov,
            D. Mejia-Rodriguez, T. Risthaus, M. Malagoli, A. Marenich,
   A. Otero-de-la-Roza, J. Mullin, P. Nichols, R. Peverati, J. Pittner, Y. Zhao,
        P.-D. Fan, A. Fonari, M. J. Williamson, R. J. Harrison, J. R. Rehr,
      M. Dupuis, D. Silverstein, D. M. A. Smith, J. Nieplocha, V. Tipparaju,
    M. Krishnan, B. E. Van Kuiken, A. Vazquez-Mayagoitia, L. Jensen, M. Swart,
      Q. Wu, T. Van Voorhis, A. A. Auer, M. Nooijen, L. D. Crosby, E. Brown,
      G. Cisneros, G. I. Fann, H. Fruchtl, J. Garza, K. Hirao, R. A. Kendall,
      J. A. Nichols, K. Tsemekhman, K. Wolinski, J. Anchell, D. E. Bernholdt,
      P. Borowski, T. Clark, D. Clerc, H. Dachsel, M. J. O. Deegan, K. Dyall,
    D. Elwood, E. Glendening, M. Gutowski, A. C. Hess, J. Jaffe, B. G. Johnson,
     J. Ju, R. Kobayashi, R. Kutteh, Z. Lin, R. Littlefield, X. Long, B. Meng,
      T. Nakajima, S. Niu, L. Pollack, M. Rosing, K. Glaesemann, G. Sandrone,
      M. Stave, H. Taylor, G. Thomas, J. H. van Lenthe, A. T. Wong, Z. Zhang.

 Total times  cpu:       28.1s     wall:       28.1s
