 argument  1 = /home/list1234/source/nwchem-6.8.1-release/QA/tests/PhoWat_SMD_HF/PhoWat_SMD_HF.nw



============================== echo of input deck ==============================
# COSMO-SMD solvation results:
#             internal energy in gas <Psi(g)|H|Psi(g)> =     -1714.7064243007
#    total free energy in solvent including G(SMD-CDS) =     -1714.7183080244
#                       G(SMD-CDS) energy contribution =         0.0129170141 (    8.11 kcal/mol)
#     1 M fixed-concentration free energy of solvation =        -0.0118837237 (   -7.46 kcal/mol)
echo 'SMD/RHF/6-31G(d) solvation energy - 2,2-dichloroethenyl dimethyl phosphate in water'

start PhoWat_SMD_HF

geometry nocenter
   C       0.886551   -0.538770   -0.226736
   C       2.109190   -0.074290    0.021097
   CL      3.518080   -0.909728   -0.542886
   CL      2.401932    1.375529    0.919716
   C      -2.465672   -0.979038    2.029287
   C      -2.068974    2.143247   -0.946365
   P      -1.697440   -0.391916   -0.374109
   O      -0.220540    0.125132    0.263049
   O      -1.640803   -1.790632   -0.933197
   O      -2.118546    0.766386   -1.436114
   O      -2.666476   -0.071969    0.901438
   H      -3.288305   -0.770059    2.717206
   H      -2.507263   -2.021027    1.692938
   H      -1.504946   -0.768477    2.512545
   H      -1.056232    2.392251   -0.612402
   H      -2.345630    2.756441   -1.807206
   H      -2.787066    2.283774   -0.132406
   H       0.715195   -1.451011   -0.790243
symmetry c1
end

basis
 * library 6-31G*
end

dft
 XC HFexch
end

cosmo
 do_cosmo_smd true
end

task dft energy
================================================================================


                                         
                                         


              Northwest Computational Chemistry Package (NWChem) 6.8
              ------------------------------------------------------


                    Environmental Molecular Sciences Laboratory
                       Pacific Northwest National Laboratory
                                Richland, WA 99352

                              Copyright (c) 1994-2018
                       Pacific Northwest National Laboratory
                            Battelle Memorial Institute

             NWChem is an open-source computational chemistry package
                        distributed under the terms of the
                      Educational Community License (ECL) 2.0
             A copy of the license is included with this distribution
                              in the LICENSE.TXT file

                                  ACKNOWLEDGMENT
                                  --------------

            This software and its documentation were developed at the
            EMSL at Pacific Northwest National Laboratory, a multiprogram
            national laboratory, operated for the U.S. Department of Energy
            by Battelle under Contract Number DE-AC05-76RL01830. Support
            for this work was provided by the Department of Energy Office
            of Biological and Environmental Research, Office of Basic
            Energy Sciences, and the Office of Advanced Scientific Computing.


           Job information
           ---------------

    hostname        = list1234-B360M-H
    program         = /home/list1234/source/nwchem-6.8.1-release/bin/LINUX64/nwchem
    date            = Sun Jun 30 05:49:17 2019

    compiled        = Sun_Jun_30_05:21:11_2019
    source          = /home/list1234/source/nwchem-6.8.1-release
    nwchem branch   = Development
    nwchem revision = N/A
    ga revision     = 5.6.5
    use scalapack   = T
    input           = /home/list1234/source/nwchem-6.8.1-release/QA/tests/PhoWat_SMD_HF/PhoWat_SMD_HF.nw
    prefix          = PhoWat_SMD_HF.
    data base       = ./PhoWat_SMD_HF.db
    status          = startup
    nproc           =        4
    time left       =     -1s



           Memory information
           ------------------

    heap     =   86247164 doubles =    658.0 Mbytes
    stack    =   86247169 doubles =    658.0 Mbytes
    global   =  172494336 doubles =   1316.0 Mbytes (distinct from heap & stack)
    total    =  344988669 doubles =   2632.1 Mbytes
    verify   = yes
    hardfail = no 


           Directory information
           ---------------------

  0 permanent = .
  0 scratch   = .




                                NWChem Input Module
                                -------------------



 Scaling coordinates for geometry "geometry" by  1.889725989
 (inverse scale =  0.529177249)

 Turning off AUTOSYM since
 SYMMETRY directive was detected!


          ------
          auto-z
          ------
  no constraints, skipping    0.0000000000000000     
  no constraints, skipping    0.0000000000000000     


                             Geometry "geometry" -> ""
                             -------------------------

 Output coordinates in angstroms (scale by  1.889725989 to convert to a.u.)

  No.       Tag          Charge          X              Y              Z
 ---- ---------------- ---------- -------------- -------------- --------------
    1 C                    6.0000     0.88655100    -0.53877000    -0.22673600
    2 C                    6.0000     2.10919000    -0.07429000     0.02109700
    3 CL                  17.0000     3.51808000    -0.90972800    -0.54288600
    4 CL                  17.0000     2.40193200     1.37552900     0.91971600
    5 C                    6.0000    -2.46567200    -0.97903800     2.02928700
    6 C                    6.0000    -2.06897400     2.14324700    -0.94636500
    7 P                   15.0000    -1.69744000    -0.39191600    -0.37410900
    8 O                    8.0000    -0.22054000     0.12513200     0.26304900
    9 O                    8.0000    -1.64080300    -1.79063200    -0.93319700
   10 O                    8.0000    -2.11854600     0.76638600    -1.43611400
   11 O                    8.0000    -2.66647600    -0.07196900     0.90143800
   12 H                    1.0000    -3.28830500    -0.77005900     2.71720600
   13 H                    1.0000    -2.50726300    -2.02102700     1.69293800
   14 H                    1.0000    -1.50494600    -0.76847700     2.51254500
   15 H                    1.0000    -1.05623200     2.39225100    -0.61240200
   16 H                    1.0000    -2.34563000     2.75644100    -1.80720600
   17 H                    1.0000    -2.78706600     2.28377400    -0.13240600
   18 H                    1.0000     0.71519500    -1.45101100    -0.79024300

      Atomic Mass 
      ----------- 

      C                 12.000000
      CL                34.968850
      P                 30.973760
      O                 15.994910
      H                  1.007825


 Effective nuclear repulsion energy (a.u.)     976.6110695226

            Nuclear Dipole moment (a.u.) 
            ----------------------------
        X                 Y               Z
 ---------------- ---------------- ----------------
     0.0000132281    -0.0000018897     0.0000245664



                                Z-matrix (autoz)
                                -------- 

 Units are Angstrom for bonds and degrees for angles

      Type          Name      I     J     K     L     M      Value
      ----------- --------  ----- ----- ----- ----- ----- ----------
    1 Stretch                  1     2                       1.33117
    2 Stretch                  1     8                       1.38069
    3 Stretch                  1    18                       1.08586
    4 Stretch                  2     3                       1.73234
    5 Stretch                  2     4                       1.73066
    6 Stretch                  5    11                       1.46121
    7 Stretch                  5    12                       1.09253
    8 Stretch                  5    13                       1.09572
    9 Stretch                  5    14                       1.09584
   10 Stretch                  6    10                       1.46221
   11 Stretch                  6    15                       1.09507
   12 Stretch                  6    16                       1.09252
   13 Stretch                  6    17                       1.09450
   14 Stretch                  7     8                       1.68954
   15 Stretch                  7     9                       1.50738
   16 Stretch                  7    10                       1.62691
   17 Stretch                  7    11                       1.63353
   18 Bend                     1     2     3               121.20455
   19 Bend                     1     2     4               122.97915
   20 Bend                     1     8     7               114.83395
   21 Bend                     2     1     8               120.17485
   22 Bend                     2     1    18               122.32323
   23 Bend                     3     2     4               115.81558
   24 Bend                     5    11     7               113.55334
   25 Bend                     6    10     7               116.29496
   26 Bend                     8     1    18               117.48537
   27 Bend                     8     7     9               113.01658
   28 Bend                     8     7    10               104.74710
   29 Bend                     8     7    11                99.44737
   30 Bend                     9     7    10               115.35658
   31 Bend                     9     7    11               119.58085
   32 Bend                    10     6    15               110.34136
   33 Bend                    10     6    16               104.83342
   34 Bend                    10     6    17               110.34932
   35 Bend                    10     7    11               102.51685
   36 Bend                    11     5    12               105.29514
   37 Bend                    11     5    13               110.37565
   38 Bend                    11     5    14               109.97351
   39 Bend                    12     5    13               110.27960
   40 Bend                    12     5    14               110.22415
   41 Bend                    13     5    14               110.57118
   42 Bend                    15     6    16               110.29563
   43 Bend                    15     6    17               110.53443
   44 Bend                    16     6    17               110.35122
   45 Torsion                  1     8     7     9          22.42815
   46 Torsion                  1     8     7    10        -103.93938
   47 Torsion                  1     8     7    11         150.33739
   48 Torsion                  2     1     8     7         168.48522
   49 Torsion                  3     2     1     8         178.28630
   50 Torsion                  3     2     1    18          -0.19617
   51 Torsion                  4     2     1     8          -1.39227
   52 Torsion                  4     2     1    18        -179.87473
   53 Torsion                  5    11     7     8         -71.50633
   54 Torsion                  5    11     7     9          51.87673
   55 Torsion                  5    11     7    10        -179.04063
   56 Torsion                  6    10     7     8         -50.03572
   57 Torsion                  6    10     7     9        -174.93700
   58 Torsion                  6    10     7    11          53.39690
   59 Torsion                  7     8     1    18         -12.96031
   60 Torsion                  7    10     6    15          59.19042
   61 Torsion                  7    10     6    16         177.93267
   62 Torsion                  7    10     6    17         -63.25544
   63 Torsion                  7    11     5    12        -169.85275
   64 Torsion                  7    11     5    13         -50.84772
   65 Torsion                  7    11     5    14          71.41488


            XYZ format geometry
            -------------------
    18
 geometry
 C                     0.88655100    -0.53877000    -0.22673600
 C                     2.10919000    -0.07429000     0.02109700
 CL                    3.51808000    -0.90972800    -0.54288600
 CL                    2.40193200     1.37552900     0.91971600
 C                    -2.46567200    -0.97903800     2.02928700
 C                    -2.06897400     2.14324700    -0.94636500
 P                    -1.69744000    -0.39191600    -0.37410900
 O                    -0.22054000     0.12513200     0.26304900
 O                    -1.64080300    -1.79063200    -0.93319700
 O                    -2.11854600     0.76638600    -1.43611400
 O                    -2.66647600    -0.07196900     0.90143800
 H                    -3.28830500    -0.77005900     2.71720600
 H                    -2.50726300    -2.02102700     1.69293800
 H                    -1.50494600    -0.76847700     2.51254500
 H                    -1.05623200     2.39225100    -0.61240200
 H                    -2.34563000     2.75644100    -1.80720600
 H                    -2.78706600     2.28377400    -0.13240600
 H                     0.71519500    -1.45101100    -0.79024300

 ==============================================================================
                                internuclear distances
 ------------------------------------------------------------------------------
       center one      |      center two      | atomic units |  angstroms
 ------------------------------------------------------------------------------
    2 C                |   1 C                |     2.51554  |     1.33117
    3 CL               |   2 C                |     3.27365  |     1.73234
    4 CL               |   2 C                |     3.27048  |     1.73066
    8 O                |   1 C                |     2.60913  |     1.38069
    8 O                |   7 P                |     3.19277  |     1.68954
    9 O                |   7 P                |     2.84853  |     1.50738
   10 O                |   6 C                |     2.76318  |     1.46221
   10 O                |   7 P                |     3.07442  |     1.62691
   11 O                |   5 C                |     2.76129  |     1.46121
   11 O                |   7 P                |     3.08692  |     1.63353
   12 H                |   5 C                |     2.06459  |     1.09253
   13 H                |   5 C                |     2.07061  |     1.09572
   14 H                |   5 C                |     2.07084  |     1.09584
   15 H                |   6 C                |     2.06938  |     1.09507
   16 H                |   6 C                |     2.06456  |     1.09252
   17 H                |   6 C                |     2.06831  |     1.09450
   18 H                |   1 C                |     2.05197  |     1.08586
 ------------------------------------------------------------------------------
                         number of included internuclear distances:         17
 ==============================================================================



 ==============================================================================
                                 internuclear angles
 ------------------------------------------------------------------------------
        center 1       |       center 2       |       center 3       |  degrees
 ------------------------------------------------------------------------------
    2 C                |   1 C                |   8 O                |   120.17
    2 C                |   1 C                |  18 H                |   122.32
    8 O                |   1 C                |  18 H                |   117.49
    1 C                |   2 C                |   3 CL               |   121.20
    1 C                |   2 C                |   4 CL               |   122.98
    3 CL               |   2 C                |   4 CL               |   115.82
   11 O                |   5 C                |  12 H                |   105.30
   11 O                |   5 C                |  13 H                |   110.38
   11 O                |   5 C                |  14 H                |   109.97
   12 H                |   5 C                |  13 H                |   110.28
   12 H                |   5 C                |  14 H                |   110.22
   13 H                |   5 C                |  14 H                |   110.57
   10 O                |   6 C                |  15 H                |   110.34
   10 O                |   6 C                |  16 H                |   104.83
   10 O                |   6 C                |  17 H                |   110.35
   15 H                |   6 C                |  16 H                |   110.30
   15 H                |   6 C                |  17 H                |   110.53
   16 H                |   6 C                |  17 H                |   110.35
    8 O                |   7 P                |   9 O                |   113.02
    8 O                |   7 P                |  10 O                |   104.75
    8 O                |   7 P                |  11 O                |    99.45
    9 O                |   7 P                |  10 O                |   115.36
    9 O                |   7 P                |  11 O                |   119.58
   10 O                |   7 P                |  11 O                |   102.52
    1 C                |   8 O                |   7 P                |   114.83
    6 C                |  10 O                |   7 P                |   116.29
    5 C                |  11 O                |   7 P                |   113.55
 ------------------------------------------------------------------------------
                            number of included internuclear angles:         27
 ==============================================================================





 Summary of "ao basis" -> "" (cartesian)
 ------------------------------------------------------------------------------
       Tag                 Description            Shells   Functions and Types
 ---------------- ------------------------------  ------  ---------------------
 *                           6-31G*                   on all atoms 


  xc_inp: hfexch multiplicative factor not found.

                                 NWChem DFT Module
                                 -----------------


                      Basis "ao basis" -> "ao basis" (cartesian)
                      -----
  C (Carbon)
  ----------
            Exponent  Coefficients 
       -------------- ---------------------------------------------------------
  1 S  3.04752490E+03  0.001835
  1 S  4.57369510E+02  0.014037
  1 S  1.03948690E+02  0.068843
  1 S  2.92101550E+01  0.232184
  1 S  9.28666300E+00  0.467941
  1 S  3.16392700E+00  0.362312

  2 S  7.86827240E+00 -0.119332
  2 S  1.88128850E+00 -0.160854
  2 S  5.44249300E-01  1.143456

  3 P  7.86827240E+00  0.068999
  3 P  1.88128850E+00  0.316424
  3 P  5.44249300E-01  0.744308

  4 S  1.68714400E-01  1.000000

  5 P  1.68714400E-01  1.000000

  6 D  8.00000000E-01  1.000000

  CL (Chlorine)
  -------------
            Exponent  Coefficients 
       -------------- ---------------------------------------------------------
  1 S  2.51801000E+04  0.001833
  1 S  3.78035000E+03  0.014034
  1 S  8.60474000E+02  0.069097
  1 S  2.42145000E+02  0.237452
  1 S  7.73349000E+01  0.483034
  1 S  2.62470000E+01  0.339856

  2 S  4.91765000E+02 -0.002297
  2 S  1.16984000E+02 -0.030714
  2 S  3.74153000E+01 -0.112528
  2 S  1.37834000E+01  0.045016
  2 S  5.45215000E+00  0.589353
  2 S  2.22588000E+00  0.465206

  3 P  4.91765000E+02  0.003989
  3 P  1.16984000E+02  0.030318
  3 P  3.74153000E+01  0.129880
  3 P  1.37834000E+01  0.327951
  3 P  5.45215000E+00  0.453527
  3 P  2.22588000E+00  0.252154

  4 S  3.18649000E+00 -0.251830
  4 S  1.14427000E+00  0.061589
  4 S  4.20377000E-01  1.060180

  5 P  3.18649000E+00 -0.014299
  5 P  1.14427000E+00  0.323572
  5 P  4.20377000E-01  0.743507

  6 S  1.42657000E-01  1.000000

  7 P  1.42657000E-01  1.000000

  8 D  7.50000000E-01  1.000000

  P (Phosphorous)
  ---------------
            Exponent  Coefficients 
       -------------- ---------------------------------------------------------
  1 S  1.94133000E+04  0.001852
  1 S  2.90942000E+03  0.014206
  1 S  6.61364000E+02  0.070000
  1 S  1.85759000E+02  0.240079
  1 S  5.91943000E+01  0.484762
  1 S  2.00310000E+01  0.335200

  2 S  3.39478000E+02 -0.002782
  2 S  8.10101000E+01 -0.036050
  2 S  2.58780000E+01 -0.116631
  2 S  9.45221000E+00  0.096833
  2 S  3.66566000E+00  0.614418
  2 S  1.46746000E+00  0.403798

  3 P  3.39478000E+02  0.004565
  3 P  8.10101000E+01  0.033694
  3 P  2.58780000E+01  0.139755
  3 P  9.45221000E+00  0.339362
  3 P  3.66566000E+00  0.450921
  3 P  1.46746000E+00  0.238586

  4 S  2.15623000E+00 -0.252923
  4 S  7.48997000E-01  0.032852
  4 S  2.83145000E-01  1.081250

  5 P  2.15623000E+00 -0.017765
  5 P  7.48997000E-01  0.274058
  5 P  2.83145000E-01  0.785421

  6 S  9.98317000E-02  1.000000

  7 P  9.98317000E-02  1.000000

  8 D  5.50000000E-01  1.000000

  O (Oxygen)
  ----------
            Exponent  Coefficients 
       -------------- ---------------------------------------------------------
  1 S  5.48467170E+03  0.001831
  1 S  8.25234950E+02  0.013950
  1 S  1.88046960E+02  0.068445
  1 S  5.29645000E+01  0.232714
  1 S  1.68975700E+01  0.470193
  1 S  5.79963530E+00  0.358521

  2 S  1.55396160E+01 -0.110778
  2 S  3.59993360E+00 -0.148026
  2 S  1.01376180E+00  1.130767

  3 P  1.55396160E+01  0.070874
  3 P  3.59993360E+00  0.339753
  3 P  1.01376180E+00  0.727159

  4 S  2.70005800E-01  1.000000

  5 P  2.70005800E-01  1.000000

  6 D  8.00000000E-01  1.000000

  H (Hydrogen)
  ------------
            Exponent  Coefficients 
       -------------- ---------------------------------------------------------
  1 S  1.87311370E+01  0.033495
  1 S  2.82539370E+00  0.234727
  1 S  6.40121700E-01  0.813757

  2 S  1.61277800E-01  1.000000



 Summary of "ao basis" -> "ao basis" (cartesian)
 ------------------------------------------------------------------------------
       Tag                 Description            Shells   Functions and Types
 ---------------- ------------------------------  ------  ---------------------
 C                           6-31G*                  6       15   3s2p1d
 CL                          6-31G*                  8       19   4s3p1d
 P                           6-31G*                  8       19   4s3p1d
 O                           6-31G*                  6       15   3s2p1d
 H                           6-31G*                  2        2   2s




 Summary of "ao basis" -> "ao basis" (cartesian)
 ------------------------------------------------------------------------------
       Tag                 Description            Shells   Functions and Types
 ---------------- ------------------------------  ------  ---------------------
 C                           6-31G*                  6       15   3s2p1d
 CL                          6-31G*                  8       19   4s3p1d
 P                           6-31G*                  8       19   4s3p1d
 O                           6-31G*                  6       15   3s2p1d
 H                           6-31G*                  2        2   2s



 solvent parameters
 solvname_short: h2o     
 solvname_long:  water                              
 dielec:       78.4000
 dielecinf:     1.7769
 aqueous SMD model solvent descriptors
 dielec:       78.4000
 sola:          0.8200

          ---------------
          -cosmo- solvent
          ---------------
 Cosmo: York-Karplus, doi: 10.1021/jp992097l
 dielectric constant -eps-     =  78.40
 screen = (eps-1)/(eps    )    =   0.98724
 surface charge correction     = lagrangian
 -lineq- algorithm             =   0
 -bem- low  level              =   3
 -bem- from -octahedral-
 gaussian surface charge width =   0.98000
 degree of switching           =   1.00000
 switching function tolerance  =   0.00010
 atomic radii = 
 --------------
    1  6.000  1.850
    2  6.000  1.850
    3 17.000  2.380
    4 17.000  2.380
    5  6.000  1.850
    6  6.000  1.850
    7 15.000  2.120
    8  8.000  1.520
    9  8.000  1.520
   10  8.000  1.520
   11  8.000  1.520
   12  1.000  1.200
   13  1.000  1.200
   14  1.000  1.200
   15  1.000  1.200
   16  1.000  1.200
   17  1.000  1.200
   18  1.000  1.200

 solvent accessible surface
 --------------------------

 ---------- ATOMIC COORDINATES (A.U.) ------------ VDWR(ANG.) --
     1    1.67533846   -1.01812767   -0.42846891     1.850
     2    3.98579116   -0.14038774    0.03986755     1.850
     3    6.64820721   -1.71913664   -1.02590578     2.380
     4    4.53899332    2.59937290    1.73801123     2.380
     5   -4.65944446   -1.85011355    3.83479638     1.850
     6   -3.90979394    4.05014956   -1.78837054     1.850
     7   -3.20769648   -0.74061385   -0.70696350     2.120
     8   -0.41676017    0.23646519    0.49709053     1.520
     9   -3.10066807   -3.38380383   -1.76348662     1.520
    10   -4.00347143    1.44825954   -2.71386195     1.520
    11   -5.03890900   -0.13600169    1.70347082     1.520
    12   -6.21399542   -1.45520051    5.13477479     1.200
    13   -4.73804005   -3.81918725    3.19918894     1.200
    14   -2.84393557   -1.45221096    4.74802158     1.200
    15   -1.99598906    4.52069889   -1.15727197     1.200
    16   -4.43259797    5.20891819   -3.41512414     1.200
    17   -5.26679105    4.31570708   -0.25021106     1.200
    18    1.35152258   -2.74201320   -1.49334273     1.200
 number of segments per atom =        128
 number of   points per atom =        128
 atom (   nspa,  nppa )
 ----------------------
    1 (     37,     0 )       0
    2 (     11,     0 )       0
    3 (     93,     0 )       0
    4 (     93,     0 )       0
    5 (     62,     0 )       0
    6 (     61,     0 )       0
    7 (     41,     0 )       0
    8 (     32,     0 )       0
    9 (     69,     0 )       0
   10 (     41,     0 )       0
   11 (     40,     0 )       0
   12 (     55,     0 )       0
   13 (     50,     0 )       0
   14 (     55,     0 )       0
   15 (     55,     0 )       0
   16 (     55,     0 )       0
   17 (     52,     0 )       0
   18 (     45,     0 )       0
 number of -cosmo- surface points =      947
 molecular surface =    236.568 angstrom**2
 molecular volume  =    151.262 angstrom**3
 ...... end of -cosmo- initialization ......


 G(SMD-CDS) energy (kcal/mol)  =     8.106
 SMD-CDS SASA (angstrom**2)    =   250.644

  Caching 1-el integrals 

            General Information
            -------------------
          SCF calculation type: DFT
          Wavefunction type:  closed shell.
          No. of atoms     :    18
          No. of electrons :   112
           Alpha electrons :    56
            Beta electrons :    56
          Charge           :     0
          Spin multiplicity:     1
          Use of symmetry is: off; symmetry adaption is: off
          Maximum number of iterations:  30
          AO basis - number of functions:   191
                     number of shells:    86
          Convergence on energy requested:  1.00D-06
          Convergence on density requested:  1.00D-05
          Convergence on gradient requested:  5.00D-04

              XC Information
              --------------
                     Hartree-Fock (Exact) Exchange  1.000          

          Convergence Information
          -----------------------
          Convergence aids based upon iterative change in 
          total energy or number of iterations. 
          Levelshifting, if invoked, occurs when the 
          HOMO/LUMO gap drops below (HL_TOL):  1.00D-02
          DIIS, if invoked, will attempt to extrapolate 
          using up to (NFOCK): 10 stored Fock matrices.

                    Damping( 0%)  Levelshifting(0.5)       DIIS
                  --------------- ------------------- ---------------
          dE  on:    start            ASAP                start   
          dE off:    2 iters         30 iters            30 iters 


      Screening Tolerance Information
      -------------------------------
          Density screening/tol_rho:  1.00D-10
          AO Gaussian exp screening on grid/accAOfunc:  14
          CD Gaussian exp screening on grid/accCDfunc:  20
          XC Gaussian exp screening on grid/accXCfunc:  20
          Schwarz screening/accCoul:  1.00D-08


      Superposition of Atomic Density Guess
      -------------------------------------

 Sum of atomic energies:       -1712.67734559

      Non-variational initial energy
      ------------------------------

 Total energy =   -1717.383224
 1-e energy   =   -4307.681149
 2-e energy   =    1613.686855
 HOMO         =      -0.213377
 LUMO         =       0.047882

   Time after variat. SCF:      1.1
   Time prior to 1st pass:      1.1

           Memory utilization after 1st SCF pass: 
           Heap Space remaining (MW):       86.24            86236604
          Stack Space remaining (MW):       86.25            86245668

   convergence    iter        energy       DeltaE   RMS-Dens  Diis-err    time
 ---------------- ----- ----------------- --------- --------- ---------  ------
     COSMO gas phase
 d= 0,ls=0.0,diis     1  -1714.4737921189 -2.69D+03  7.81D-03  1.85D+00     4.4
 d= 0,ls=0.0,diis     2  -1714.6281524854 -1.54D-01  3.41D-03  7.41D-01     7.6
 d= 0,ls=0.0,diis     3  -1714.7029686015 -7.48D-02  8.23D-04  2.10D-02    10.9
 d= 0,ls=0.0,diis     4  -1714.7060226692 -3.05D-03  2.65D-04  2.58D-03    14.2
 d= 0,ls=0.0,diis     5  -1714.7063775568 -3.55D-04  1.05D-04  2.03D-04    17.4
  Resetting Diis
 d= 0,ls=0.0,diis     6  -1714.7064162689 -3.87D-05  5.18D-05  1.99D-05    20.6
 d= 0,ls=0.0,diis     7  -1714.7064231958 -6.93D-06  1.14D-05  2.46D-06    23.9
 d= 0,ls=0.0,diis     8  -1714.7064236446 -4.49D-07  4.56D-06  4.92D-07    27.2

           Memory utilization after 1st SCF pass: 
           Heap Space remaining (MW):       86.23            86232788
          Stack Space remaining (MW):       86.25            86245668

   convergence    iter        energy       DeltaE   RMS-Dens  Diis-err    time
 ---------------- ----- ----------------- --------- --------- ---------  ------
     COSMO solvation phase
 d= 0,ls=0.0,diis     1  -1714.7153926262 -8.97D-03  8.67D-04  1.02D-02    32.8
 d= 0,ls=0.0,diis     2  -1714.7178172835 -2.42D-03  2.43D-04  2.52D-03    38.4
 d= 0,ls=0.0,diis     3  -1714.7181777273 -3.60D-04  1.59D-04  4.43D-04    43.9
 d= 0,ls=0.0,diis     4  -1714.7182923631 -1.15D-04  5.95D-05  4.45D-05    49.3
 d= 0,ls=0.0,diis     5  -1714.7183058690 -1.35D-05  1.50D-05  4.62D-06    54.8
 d= 0,ls=0.0,diis     6  -1714.7183071124 -1.24D-06  6.39D-06  7.34D-07    60.3
 d= 0,ls=0.0,diis     7  -1714.7183073441 -2.32D-07  3.13D-06  9.30D-08    65.7


         Total DFT energy =    -1714.718307344138
      One electron energy =    -4309.901900850986
           Coulomb energy =     1752.352936904966
    Exchange-Corr. energy =     -134.047699375116
 Nuclear repulsion energy =      976.611069522588

             COSMO energy =        0.267286454411

 Numeric. integr. density =        0.000000000000

     Total iterative time =     64.6s


                                COSMO-SMD solvation results
                                ---------------------------
 Reference for the SMD model:
 Marenich, A. V.; Cramer, C. J.; Truhlar, D. G. J. Phys. Chem. B 2009, 113, 6378

             internal energy in gas <Psi(g)|H|Psi(g)> =     -1714.706423644599
         internal energy in solvent <Psi(s)|H|Psi(s)> =     -1714.702980672443
                               delta internal energy  =         0.003442972156 (    2.16 kcal/mol)
   total free energy in solvent <Psi(s)|H+V/2|Psi(s)> =     -1714.731224358271
 polarization energy contribution <Psi(s)|V/2|Psi(s)> =        -0.028243685828 (  -17.72 kcal/mol)
    total free energy in solvent including G(SMD-CDS) =     -1714.718307344138
                       G(SMD-CDS) energy contribution =         0.012917014134 (    8.11 kcal/mol)
     1 M fixed-concentration free energy of solvation =        -0.011883699538 (   -7.46 kcal/mol)

                       DFT Final Molecular Orbital Analysis
                       ------------------------------------

 Vector    1  Occ=2.000000D+00  E=-1.048557D+02
              MO Center=  3.5D+00, -9.1D-01, -5.4D-01, r^2= 3.1D-03
   Bfn.  Coefficient  Atom+Function         Bfn.  Coefficient  Atom+Function  
  ----- ------------  ---------------      ----- ------------  ---------------
    31      0.996117   3 Cl s         

 Vector    2  Occ=2.000000D+00  E=-1.048546D+02
              MO Center=  2.4D+00,  1.4D+00,  9.2D-01, r^2= 3.1D-03
   Bfn.  Coefficient  Atom+Function         Bfn.  Coefficient  Atom+Function  
  ----- ------------  ---------------      ----- ------------  ---------------
    50      0.996117   4 Cl s         

 Vector    3  Occ=2.000000D+00  E=-8.016377D+01
              MO Center= -1.7D+00, -3.9D-01, -3.7D-01, r^2= 4.1D-03
   Bfn.  Coefficient  Atom+Function         Bfn.  Coefficient  Atom+Function  
  ----- ------------  ---------------      ----- ------------  ---------------
    99      0.996428   7 P  s         

 Vector    4  Occ=2.000000D+00  E=-2.065106D+01
              MO Center= -2.2D-01,  1.3D-01,  2.6D-01, r^2= 1.5D-02
   Bfn.  Coefficient  Atom+Function         Bfn.  Coefficient  Atom+Function  
  ----- ------------  ---------------      ----- ------------  ---------------
   118      0.994626   8 O  s         

 Vector    5  Occ=2.000000D+00  E=-2.062877D+01
              MO Center= -2.1D+00,  7.7D-01, -1.4D+00, r^2= 1.7D-02
   Bfn.  Coefficient  Atom+Function         Bfn.  Coefficient  Atom+Function  
  ----- ------------  ---------------      ----- ------------  ---------------
   148      0.994471  10 O  s         

 Vector    6  Occ=2.000000D+00  E=-2.062841D+01
              MO Center= -2.7D+00, -7.2D-02,  9.0D-01, r^2= 1.7D-02
   Bfn.  Coefficient  Atom+Function         Bfn.  Coefficient  Atom+Function  
  ----- ------------  ---------------      ----- ------------  ---------------
   163      0.994474  11 O  s         

 Vector    7  Occ=2.000000D+00  E=-2.057117D+01
              MO Center= -1.6D+00, -1.8D+00, -9.3D-01, r^2= 1.5D-02
   Bfn.  Coefficient  Atom+Function         Bfn.  Coefficient  Atom+Function  
  ----- ------------  ---------------      ----- ------------  ---------------
   133      0.994683   9 O  s         

 Vector    8  Occ=2.000000D+00  E=-1.136121D+01
              MO Center=  2.1D+00, -7.5D-02,  2.1D-02, r^2= 3.1D-02
   Bfn.  Coefficient  Atom+Function         Bfn.  Coefficient  Atom+Function  
  ----- ------------  ---------------      ----- ------------  ---------------
    16      0.994777   2 C  s                 1      0.044304   1 C  s         
    17      0.027075   2 C  s         

 Vector    9  Occ=2.000000D+00  E=-1.134252D+01
              MO Center=  8.9D-01, -5.4D-01, -2.3D-01, r^2= 3.1D-02
   Bfn.  Coefficient  Atom+Function         Bfn.  Coefficient  Atom+Function  
  ----- ------------  ---------------      ----- ------------  ---------------
     1      0.994748   1 C  s                16     -0.044943   2 C  s         
     2      0.026821   1 C  s         

 Vector   10  Occ=2.000000D+00  E=-1.129371D+01
              MO Center= -2.5D+00, -9.8D-01,  2.0D+00, r^2= 2.8D-02
   Bfn.  Coefficient  Atom+Function         Bfn.  Coefficient  Atom+Function  
  ----- ------------  ---------------      ----- ------------  ---------------
    69      0.995812   5 C  s                70      0.027472   5 C  s         

 Vector   11  Occ=2.000000D+00  E=-1.129333D+01
              MO Center= -2.1D+00,  2.1D+00, -9.5D-01, r^2= 2.8D-02
   Bfn.  Coefficient  Atom+Function         Bfn.  Coefficient  Atom+Function  
  ----- ------------  ---------------      ----- ------------  ---------------
    84      0.995813   6 C  s                85      0.027469   6 C  s         

 Vector   12  Occ=2.000000D+00  E=-1.058882D+01
              MO Center=  3.5D+00, -9.1D-01, -5.4D-01, r^2= 6.5D-02
   Bfn.  Coefficient  Atom+Function         Bfn.  Coefficient  Atom+Function  
  ----- ------------  ---------------      ----- ------------  ---------------
    32      1.030586   3 Cl s                31     -0.286727   3 Cl s         
    36      0.026034   3 Cl s         

 Vector   13  Occ=2.000000D+00  E=-1.058771D+01
              MO Center=  2.4D+00,  1.4D+00,  9.2D-01, r^2= 6.5D-02
   Bfn.  Coefficient  Atom+Function         Bfn.  Coefficient  Atom+Function  
  ----- ------------  ---------------      ----- ------------  ---------------
    51      1.030582   4 Cl s                50     -0.286728   4 Cl s         
    55      0.026015   4 Cl s         

 Vector   14  Occ=2.000000D+00  E=-8.058311D+00
              MO Center=  3.5D+00, -9.1D-01, -5.4D-01, r^2= 5.7D-02
   Bfn.  Coefficient  Atom+Function         Bfn.  Coefficient  Atom+Function  
  ----- ------------  ---------------      ----- ------------  ---------------
    33      0.798286   3 Cl px               34     -0.489323   3 Cl py        
    35     -0.329710   3 Cl pz        

 Vector   15  Occ=2.000000D+00  E=-8.057195D+00
              MO Center=  2.4D+00,  1.4D+00,  9.2D-01, r^2= 5.7D-02
   Bfn.  Coefficient  Atom+Function         Bfn.  Coefficient  Atom+Function  
  ----- ------------  ---------------      ----- ------------  ---------------
    53      0.833525   4 Cl py               54      0.516339   4 Cl pz        
    52      0.155031   4 Cl px        

 Vector   16  Occ=2.000000D+00  E=-8.054735D+00
              MO Center=  3.5D+00, -9.1D-01, -5.4D-01, r^2= 5.7D-02
   Bfn.  Coefficient  Atom+Function         Bfn.  Coefficient  Atom+Function  
  ----- ------------  ---------------      ----- ------------  ---------------
    34      0.681942   3 Cl py               33      0.590145   3 Cl px        
    35      0.416923   3 Cl pz        

 Vector   17  Occ=2.000000D+00  E=-8.054573D+00
              MO Center=  3.5D+00, -9.1D-01, -5.4D-01, r^2= 5.7D-02
   Bfn.  Coefficient  Atom+Function         Bfn.  Coefficient  Atom+Function  
  ----- ------------  ---------------      ----- ------------  ---------------
    35      0.839354   3 Cl pz               34     -0.531324   3 Cl py        

 Vector   18  Occ=2.000000D+00  E=-8.053604D+00
              MO Center=  2.4D+00,  1.4D+00,  9.2D-01, r^2= 5.7D-02
   Bfn.  Coefficient  Atom+Function         Bfn.  Coefficient  Atom+Function  
  ----- ------------  ---------------      ----- ------------  ---------------
    52      0.980655   4 Cl px               54     -0.113562   4 Cl pz        
    53     -0.112115   4 Cl py        

 Vector   19  Occ=2.000000D+00  E=-8.053519D+00
              MO Center=  2.4D+00,  1.4D+00,  9.2D-01, r^2= 5.7D-02
   Bfn.  Coefficient  Atom+Function         Bfn.  Coefficient  Atom+Function  
  ----- ------------  ---------------      ----- ------------  ---------------
    54      0.840981   4 Cl pz               53     -0.527845   4 Cl py        
    52      0.037036   4 Cl px        

 Vector   20  Occ=2.000000D+00  E=-7.681017D+00
              MO Center= -1.7D+00, -3.9D-01, -3.7D-01, r^2= 8.8D-02
   Bfn.  Coefficient  Atom+Function         Bfn.  Coefficient  Atom+Function  
  ----- ------------  ---------------      ----- ------------  ---------------
   100      1.031273   7 P  s                99     -0.276189   7 P  s         

 Vector   21  Occ=2.000000D+00  E=-5.579614D+00
              MO Center= -1.7D+00, -3.9D-01, -3.7D-01, r^2= 8.2D-02
   Bfn.  Coefficient  Atom+Function         Bfn.  Coefficient  Atom+Function  
  ----- ------------  ---------------      ----- ------------  ---------------
   101      0.875671   7 P  px              103      0.470009   7 P  pz        
   102     -0.039680   7 P  py        

 Vector   22  Occ=2.000000D+00  E=-5.579334D+00
              MO Center= -1.7D+00, -3.9D-01, -3.7D-01, r^2= 8.2D-02
   Bfn.  Coefficient  Atom+Function         Bfn.  Coefficient  Atom+Function  
  ----- ------------  ---------------      ----- ------------  ---------------
   103      0.813697   7 P  pz              101     -0.452620   7 P  px        
   102     -0.349848   7 P  py        

 Vector   23  Occ=2.000000D+00  E=-5.578594D+00
              MO Center= -1.7D+00, -3.9D-01, -3.7D-01, r^2= 8.2D-02
   Bfn.  Coefficient  Atom+Function         Bfn.  Coefficient  Atom+Function  
  ----- ------------  ---------------      ----- ------------  ---------------
   102      0.930251   7 P  py              103      0.326053   7 P  pz        
   101     -0.132840   7 P  px        

 Vector   24  Occ=2.000000D+00  E=-1.469027D+00
              MO Center= -1.1D+00, -1.8D-03, -5.0D-02, r^2= 2.3D+00
   Bfn.  Coefficient  Atom+Function         Bfn.  Coefficient  Atom+Function  
  ----- ------------  ---------------      ----- ------------  ---------------
   123      0.338366   8 O  s               119      0.318717   8 O  s         
   104      0.234028   7 P  s               168      0.204335  11 O  s         
   164      0.188428  11 O  s               153      0.187228  10 O  s         
   149      0.184565  10 O  s               118     -0.146038   8 O  s         
   100     -0.126055   7 P  s               138      0.103028   9 O  s         

 Vector   25  Occ=2.000000D+00  E=-1.413712D+00
              MO Center= -1.3D+00,  1.5D-01, -8.1D-02, r^2= 2.8D+00
   Bfn.  Coefficient  Atom+Function         Bfn.  Coefficient  Atom+Function  
  ----- ------------  ---------------      ----- ------------  ---------------
   119      0.310547   8 O  s               123      0.306350   8 O  s         
   149     -0.243945  10 O  s               153     -0.241051  10 O  s         
   168     -0.231861  11 O  s               164     -0.229884  11 O  s         
   118     -0.138015   8 O  s               148      0.109396  10 O  s         
     2      0.104632   1 C  s               163      0.103458  11 O  s         

 Vector   26  Occ=2.000000D+00  E=-1.390604D+00
              MO Center= -2.3D+00,  3.0D-01, -1.5D-01, r^2= 2.2D+00
   Bfn.  Coefficient  Atom+Function         Bfn.  Coefficient  Atom+Function  
  ----- ------------  ---------------      ----- ------------  ---------------
   164     -0.334350  11 O  s               149      0.328698  10 O  s         
   153      0.324685  10 O  s               168     -0.323770  11 O  s         
   163      0.148513  11 O  s               148     -0.146660  10 O  s         
   107     -0.111868   7 P  pz               70     -0.082321   5 C  s         
    85      0.076744   6 C  s               103      0.058192   7 P  pz        

 Vector   27  Occ=2.000000D+00  E=-1.329574D+00
              MO Center= -1.7D+00, -1.4D+00, -7.8D-01, r^2= 1.1D+00
   Bfn.  Coefficient  Atom+Function         Bfn.  Coefficient  Atom+Function  
  ----- ------------  ---------------      ----- ------------  ---------------
   134      0.443291   9 O  s               138      0.425421   9 O  s         
   133     -0.200427   9 O  s               106     -0.179922   7 P  py        
   104      0.157258   7 P  s               164     -0.093905  11 O  s         
   149     -0.091478  10 O  s               136      0.090242   9 O  py        
   102      0.089308   7 P  py              168     -0.082859  11 O  s         

 Vector   28  Occ=2.000000D+00  E=-1.216738D+00
              MO Center=  2.5D+00,  5.2D-02,  8.9D-02, r^2= 2.2D+00
   Bfn.  Coefficient  Atom+Function         Bfn.  Coefficient  Atom+Function  
  ----- ------------  ---------------      ----- ------------  ---------------
    36      0.387692   3 Cl s                55      0.373830   4 Cl s         
    17      0.242639   2 C  s                32     -0.199659   3 Cl s         
    21      0.193236   2 C  s                51     -0.192359   4 Cl s         
    40      0.129869   3 Cl s                16     -0.126046   2 C  s         
    59      0.121088   4 Cl s                 2      0.096210   1 C  s         

 Vector   29  Occ=2.000000D+00  E=-1.117095D+00
              MO Center=  2.8D+00,  2.3D-01,  1.9D-01, r^2= 2.7D+00
   Bfn.  Coefficient  Atom+Function         Bfn.  Coefficient  Atom+Function  
  ----- ------------  ---------------      ----- ------------  ---------------
    55     -0.515654   4 Cl s                36      0.494927   3 Cl s         
    51      0.261363   4 Cl s                32     -0.250984   3 Cl s         
    59     -0.211382   4 Cl s                40      0.204762   3 Cl s         
    19     -0.117432   2 C  py               20     -0.075051   2 C  pz        
    50     -0.057372   4 Cl s                31      0.055073   3 Cl s         

 Vector   30  Occ=2.000000D+00  E=-1.022004D+00
              MO Center=  1.3D+00, -2.1D-01, -2.9D-02, r^2= 3.5D+00
   Bfn.  Coefficient  Atom+Function         Bfn.  Coefficient  Atom+Function  
  ----- ------------  ---------------      ----- ------------  ---------------
     2      0.296540   1 C  s                36     -0.265371   3 Cl s         
    55     -0.244110   4 Cl s                18     -0.195095   2 C  px        
     6      0.167430   1 C  s                21      0.163681   2 C  s         
   120      0.163180   8 O  px               17      0.156764   2 C  s         
     1     -0.145957   1 C  s                32      0.132368   3 Cl s         

 Vector   31  Occ=2.000000D+00  E=-9.680972D-01
              MO Center= -2.0D+00,  4.6D-01,  2.3D-01, r^2= 5.8D+00
   Bfn.  Coefficient  Atom+Function         Bfn.  Coefficient  Atom+Function  
  ----- ------------  ---------------      ----- ------------  ---------------
    85      0.234686   6 C  s                70      0.225472   5 C  s         
    89      0.209108   6 C  s               104     -0.206277   7 P  s         
    74      0.204557   5 C  s               151      0.179642  10 O  py        
   167      0.158392  11 O  pz               84     -0.120630   6 C  s         
    69     -0.115993   5 C  s               155      0.102769  10 O  py        

 Vector   32  Occ=2.000000D+00  E=-9.485365D-01
              MO Center= -2.3D+00,  5.2D-01,  4.1D-01, r^2= 5.4D+00
   Bfn.  Coefficient  Atom+Function         Bfn.  Coefficient  Atom+Function  
  ----- ------------  ---------------      ----- ------------  ---------------
    70      0.244737   5 C  s                85     -0.242571   6 C  s         
    89     -0.239526   6 C  s                74      0.238313   5 C  s         
   153      0.150683  10 O  s               151     -0.149136  10 O  py        
   167      0.135464  11 O  pz               69     -0.126747   5 C  s         
    84      0.125559   6 C  s               168     -0.120180  11 O  s         

 Vector   33  Occ=2.000000D+00  E=-8.335991D-01
              MO Center= -6.0D-01, -9.2D-02,  1.1D-01, r^2= 5.5D+00
   Bfn.  Coefficient  Atom+Function         Bfn.  Coefficient  Atom+Function  
  ----- ------------  ---------------      ----- ------------  ---------------
   104      0.330483   7 P  s               120     -0.294368   8 O  px        
   124     -0.189872   8 O  px                3      0.187754   1 C  px        
   168     -0.164270  11 O  s                21      0.149698   2 C  s         
    36     -0.149518   3 Cl s                17      0.141530   2 C  s         
   100     -0.141662   7 P  s                74      0.129295   5 C  s         

 Vector   34  Occ=2.000000D+00  E=-7.877016D-01
              MO Center=  6.3D-01, -3.3D-01, -1.2D-01, r^2= 3.6D+00
   Bfn.  Coefficient  Atom+Function         Bfn.  Coefficient  Atom+Function  
  ----- ------------  ---------------      ----- ------------  ---------------
   121      0.202610   8 O  py                4      0.198367   1 C  py        
   190     -0.188849  18 H  s                55     -0.180411   4 Cl s         
   123      0.163204   8 O  s                 2     -0.155183   1 C  s         
    17      0.155593   2 C  s                 3      0.153085   1 C  px        
   122      0.147202   8 O  pz               21      0.145387   2 C  s         

 Vector   35  Occ=2.000000D+00  E=-7.382017D-01
              MO Center= -1.2D+00, -2.0D-02, -7.7D-02, r^2= 5.6D+00
   Bfn.  Coefficient  Atom+Function         Bfn.  Coefficient  Atom+Function  
  ----- ------------  ---------------      ----- ------------  ---------------
   120     -0.256948   8 O  px              105      0.243767   7 P  px        
   167      0.208426  11 O  pz              151      0.174769  10 O  py        
   124     -0.165231   8 O  px              152     -0.150823  10 O  pz        
   104     -0.149239   7 P  s                 4     -0.137582   1 C  py        
   171      0.132821  11 O  pz               72      0.121171   5 C  py        

 Vector   36  Occ=2.000000D+00  E=-7.217180D-01
              MO Center= -1.9D+00,  2.0D-01,  2.9D-02, r^2= 3.7D+00
   Bfn.  Coefficient  Atom+Function         Bfn.  Coefficient  Atom+Function  
  ----- ------------  ---------------      ----- ------------  ---------------
   107      0.253397   7 P  pz              151      0.188259  10 O  py        
   167     -0.185597  11 O  pz              165      0.177007  11 O  px        
   122      0.159862   8 O  pz              150     -0.160042  10 O  px        
   106     -0.136377   7 P  py              166     -0.124754  11 O  py        
   168     -0.121036  11 O  s                88     -0.118242   6 C  pz        

 Vector   37  Occ=2.000000D+00  E=-6.904654D-01
              MO Center=  2.7D-01, -1.7D-02,  7.2D-02, r^2= 7.6D+00
   Bfn.  Coefficient  Atom+Function         Bfn.  Coefficient  Atom+Function  
  ----- ------------  ---------------      ----- ------------  ---------------
    57      0.210531   4 Cl py               18     -0.184890   2 C  px        
   121      0.169915   8 O  py              138      0.167303   9 O  s         
   136     -0.163464   9 O  py                3      0.158277   1 C  px        
   106      0.154792   7 P  py               38     -0.153560   3 Cl py        
    59      0.154214   4 Cl s                21     -0.149695   2 C  s         

 Vector   38  Occ=2.000000D+00  E=-6.728293D-01
              MO Center= -8.0D-01,  3.0D-01, -1.3D-01, r^2= 8.0D+00
   Bfn.  Coefficient  Atom+Function         Bfn.  Coefficient  Atom+Function  
  ----- ------------  ---------------      ----- ------------  ---------------
   166      0.211409  11 O  py              150     -0.196766  10 O  px        
    18      0.179477   2 C  px              152      0.161474  10 O  pz        
   170      0.158065  11 O  py               86     -0.149413   6 C  px        
    73      0.144872   5 C  pz              154     -0.142047  10 O  px        
    57     -0.127701   4 Cl py               38      0.125402   3 Cl py        

 Vector   39  Occ=2.000000D+00  E=-6.554245D-01
              MO Center= -1.6D+00,  2.8D-01, -2.1D-01, r^2= 5.3D+00
   Bfn.  Coefficient  Atom+Function         Bfn.  Coefficient  Atom+Function  
  ----- ------------  ---------------      ----- ------------  ---------------
   151     -0.223113  10 O  py              122      0.219154   8 O  pz        
    87      0.175203   6 C  py              167      0.169887  11 O  pz        
   155     -0.165271  10 O  py              126      0.163366   8 O  pz        
    72      0.157681   5 C  py              136      0.146929   9 O  py        
   150     -0.143766  10 O  px              152     -0.131772  10 O  pz        

 Vector   40  Occ=2.000000D+00  E=-6.472951D-01
              MO Center= -1.5D+00, -3.0D-02,  7.1D-01, r^2= 6.0D+00
   Bfn.  Coefficient  Atom+Function         Bfn.  Coefficient  Atom+Function  
  ----- ------------  ---------------      ----- ------------  ---------------
   165      0.286191  11 O  px               71      0.234083   5 C  px        
   169      0.201346  11 O  px              150      0.184485  10 O  px        
   120      0.148737   8 O  px               86      0.135881   6 C  px        
   182      0.131877  14 H  s                57     -0.128291   4 Cl py        
   154      0.126238  10 O  px              123     -0.120267   8 O  s         

 Vector   41  Occ=2.000000D+00  E=-6.264994D-01
              MO Center= -4.1D-01, -1.7D-01, -2.6D-01, r^2= 7.5D+00
   Bfn.  Coefficient  Atom+Function         Bfn.  Coefficient  Atom+Function  
  ----- ------------  ---------------      ----- ------------  ---------------
   122      0.203744   8 O  pz              136     -0.195252   9 O  py        
   151     -0.187252  10 O  py               37     -0.175986   3 Cl px        
    18      0.163008   2 C  px                4     -0.155755   1 C  py        
   126      0.149282   8 O  pz              104     -0.143811   7 P  s         
    86      0.135824   6 C  px              106      0.134680   7 P  py        

 Vector   42  Occ=2.000000D+00  E=-6.193608D-01
              MO Center= -1.4D+00,  5.0D-01, -2.0D-01, r^2= 5.9D+00
   Bfn.  Coefficient  Atom+Function         Bfn.  Coefficient  Atom+Function  
  ----- ------------  ---------------      ----- ------------  ---------------
   152      0.247249  10 O  pz               88      0.184821   6 C  pz        
   122      0.184466   8 O  pz              156      0.183079  10 O  pz        
   167      0.176207  11 O  pz              166     -0.167316  11 O  py        
   121     -0.158140   8 O  py               73     -0.152257   5 C  pz        
    87     -0.148200   6 C  py              186     -0.139002  16 H  s         

 Vector   43  Occ=2.000000D+00  E=-6.117499D-01
              MO Center= -1.6D+00,  2.3D-01,  4.3D-01, r^2= 6.1D+00
   Bfn.  Coefficient  Atom+Function         Bfn.  Coefficient  Atom+Function  
  ----- ------------  ---------------      ----- ------------  ---------------
    73      0.204771   5 C  pz              122      0.191133   8 O  pz        
   166      0.191484  11 O  py               86      0.182411   6 C  px        
   150      0.170092  10 O  px              167     -0.165488  11 O  pz        
   170      0.144344  11 O  py              165     -0.140457  11 O  px        
   126      0.139640   8 O  pz              121     -0.133042   8 O  py        

 Vector   44  Occ=2.000000D+00  E=-5.939076D-01
              MO Center=  6.7D-01, -3.5D-01, -1.1D-01, r^2= 8.6D+00
   Bfn.  Coefficient  Atom+Function         Bfn.  Coefficient  Atom+Function  
  ----- ------------  ---------------      ----- ------------  ---------------
    37      0.291759   3 Cl px               57     -0.232804   4 Cl py        
   136     -0.232198   9 O  py              106      0.176178   7 P  py        
    40      0.147753   3 Cl s               120     -0.147767   8 O  px        
    20      0.145483   2 C  pz               19      0.143626   2 C  py        
   140     -0.141873   9 O  py               38     -0.138406   3 Cl py        

 Vector   45  Occ=2.000000D+00  E=-5.635847D-01
              MO Center=  7.8D-01, -1.3D-01, -6.1D-02, r^2= 5.4D+00
   Bfn.  Coefficient  Atom+Function         Bfn.  Coefficient  Atom+Function  
  ----- ------------  ---------------      ----- ------------  ---------------
    58      0.247172   4 Cl pz              121     -0.225316   8 O  py        
   122     -0.210441   8 O  pz               19     -0.195208   2 C  py        
     4      0.185028   1 C  py               37     -0.178330   3 Cl px        
   190     -0.172541  18 H  s               125     -0.168582   8 O  py        
     5      0.166074   1 C  pz               23     -0.164308   2 C  py        

 Vector   46  Occ=2.000000D+00  E=-5.529860D-01
              MO Center=  1.5D+00,  4.5D-02,  4.5D-02, r^2= 5.6D+00
   Bfn.  Coefficient  Atom+Function         Bfn.  Coefficient  Atom+Function  
  ----- ------------  ---------------      ----- ------------  ---------------
    39      0.309583   3 Cl pz              121      0.269389   8 O  py        
    57     -0.242590   4 Cl py               58      0.235855   4 Cl pz        
   125      0.208520   8 O  py               20      0.197767   2 C  pz        
    38     -0.170914   3 Cl py               43      0.150523   3 Cl pz        
    24      0.145036   2 C  pz              122     -0.129458   8 O  pz        

 Vector   47  Occ=2.000000D+00  E=-5.429500D-01
              MO Center= -2.3D+00, -4.7D-01,  6.0D-01, r^2= 5.0D+00
   Bfn.  Coefficient  Atom+Function         Bfn.  Coefficient  Atom+Function  
  ----- ------------  ---------------      ----- ------------  ---------------
    72      0.236420   5 C  py              166     -0.212324  11 O  py        
   135     -0.199121   9 O  px              152      0.170440  10 O  pz        
   170     -0.169383  11 O  py               71     -0.165288   5 C  px        
   180     -0.160056  13 H  s               139     -0.157770   9 O  px        
   136     -0.156857   9 O  py              178      0.151879  12 H  s         

 Vector   48  Occ=2.000000D+00  E=-5.273247D-01
              MO Center= -1.7D+00,  7.3D-01, -7.8D-01, r^2= 5.5D+00
   Bfn.  Coefficient  Atom+Function         Bfn.  Coefficient  Atom+Function  
  ----- ------------  ---------------      ----- ------------  ---------------
   152      0.296876  10 O  pz               88     -0.262661   6 C  pz        
   156      0.232022  10 O  pz              137     -0.197261   9 O  pz        
   122      0.161111   8 O  pz              186      0.161818  16 H  s         
   141     -0.157352   9 O  pz              107     -0.154241   7 P  pz        
   153     -0.145757  10 O  s               150      0.139827  10 O  px        

 Vector   49  Occ=2.000000D+00  E=-5.118777D-01
              MO Center= -2.0D+00, -5.6D-01,  6.6D-01, r^2= 4.5D+00
   Bfn.  Coefficient  Atom+Function         Bfn.  Coefficient  Atom+Function  
  ----- ------------  ---------------      ----- ------------  ---------------
   165      0.334539  11 O  px              135      0.281172   9 O  px        
   169      0.270597  11 O  px               71     -0.251233   5 C  px        
   139      0.214835   9 O  px              182     -0.155628  14 H  s         
   120      0.138996   8 O  px               75     -0.136740   5 C  px        
   178      0.130440  12 H  s               183     -0.130712  14 H  s         

 Vector   50  Occ=2.000000D+00  E=-5.070231D-01
              MO Center= -1.6D+00, -9.6D-01, -7.6D-01, r^2= 3.7D+00
   Bfn.  Coefficient  Atom+Function         Bfn.  Coefficient  Atom+Function  
  ----- ------------  ---------------      ----- ------------  ---------------
   137      0.424584   9 O  pz              141      0.335952   9 O  pz        
   135      0.244344   9 O  px              139      0.196940   9 O  px        
   136     -0.144529   9 O  py              121      0.131571   8 O  py        
   116     -0.128109   7 P  dyz             152      0.127158  10 O  pz        
   151     -0.119669  10 O  py              140     -0.113357   9 O  py        

 Vector   51  Occ=2.000000D+00  E=-5.002496D-01
              MO Center=  1.3D-01, -7.6D-02, -2.9D-01, r^2= 9.7D+00
   Bfn.  Coefficient  Atom+Function         Bfn.  Coefficient  Atom+Function  
  ----- ------------  ---------------      ----- ------------  ---------------
    56      0.322984   4 Cl px               37      0.256090   3 Cl px        
   150      0.231394  10 O  px              135     -0.221031   9 O  px        
   137      0.209217   9 O  pz              154      0.195131  10 O  px        
    38      0.189591   3 Cl py              139     -0.182119   9 O  px        
     6      0.179180   1 C  s                60      0.171490   4 Cl px        

 Vector   52  Occ=2.000000D+00  E=-4.953923D-01
              MO Center= -8.6D-01,  7.0D-01, -3.6D-01, r^2= 8.5D+00
   Bfn.  Coefficient  Atom+Function         Bfn.  Coefficient  Atom+Function  
  ----- ------------  ---------------      ----- ------------  ---------------
   150      0.353513  10 O  px              154      0.298514  10 O  px        
    56     -0.233801   4 Cl px               86     -0.217513   6 C  px        
    37     -0.190085   3 Cl px              188      0.143627  17 H  s         
   184     -0.130180  15 H  s                60     -0.125739   4 Cl px        
    39     -0.124513   3 Cl pz              166     -0.123829  11 O  py        

 Vector   53  Occ=2.000000D+00  E=-4.918508D-01
              MO Center= -5.9D-01, -5.5D-01,  4.3D-01, r^2= 9.0D+00
   Bfn.  Coefficient  Atom+Function         Bfn.  Coefficient  Atom+Function  
  ----- ------------  ---------------      ----- ------------  ---------------
   135      0.263094   9 O  px              166     -0.263195  11 O  py        
    56      0.247316   4 Cl px               37      0.220322   3 Cl px        
   170     -0.217035  11 O  py              139      0.215781   9 O  px        
    38      0.179528   3 Cl py              165     -0.175345  11 O  px        
   167     -0.170358  11 O  pz              169     -0.150696  11 O  px        

 Vector   54  Occ=2.000000D+00  E=-4.831247D-01
              MO Center=  2.9D+00,  3.0D-01,  2.3D-01, r^2= 3.4D+00
   Bfn.  Coefficient  Atom+Function         Bfn.  Coefficient  Atom+Function  
  ----- ------------  ---------------      ----- ------------  ---------------
    58     -0.456090   4 Cl pz               39      0.428935   3 Cl pz        
    57      0.283876   4 Cl py               38     -0.270051   3 Cl py        
    62     -0.253191   4 Cl pz               43      0.238812   3 Cl pz        
    54      0.175266   4 Cl pz               35     -0.164742   3 Cl pz        
    61      0.157822   4 Cl py               42     -0.150372   3 Cl py        

 Vector   55  Occ=2.000000D+00  E=-4.629565D-01
              MO Center=  2.8D+00,  2.8D-01,  2.2D-01, r^2= 3.7D+00
   Bfn.  Coefficient  Atom+Function         Bfn.  Coefficient  Atom+Function  
  ----- ------------  ---------------      ----- ------------  ---------------
    56      0.509076   4 Cl px               38     -0.413763   3 Cl py        
    60      0.287664   4 Cl px               39     -0.252703   3 Cl pz        
    42     -0.224946   3 Cl py               52     -0.194644   4 Cl px        
    57     -0.179668   4 Cl py               37     -0.178634   3 Cl px        
    34      0.158191   3 Cl py               43     -0.136753   3 Cl pz        

 Vector   56  Occ=2.000000D+00  E=-3.609217D-01
              MO Center=  1.8D+00, -1.1D-01,  3.4D-03, r^2= 3.1D+00
   Bfn.  Coefficient  Atom+Function         Bfn.  Coefficient  Atom+Function  
  ----- ------------  ---------------      ----- ------------  ---------------
    20      0.297806   2 C  pz                5      0.273560   1 C  pz        
    39     -0.265188   3 Cl pz               24      0.250342   2 C  pz        
    58     -0.251063   4 Cl pz                9      0.206315   1 C  pz        
    19     -0.185260   2 C  py               43     -0.185845   3 Cl pz        
    62     -0.184796   4 Cl pz              122     -0.177884   8 O  pz        

 Vector   57  Occ=0.000000D+00  E= 1.490200D-01
              MO Center=  1.4D+00, -3.0D-01, -1.4D-01, r^2= 2.7D+00
   Bfn.  Coefficient  Atom+Function         Bfn.  Coefficient  Atom+Function  
  ----- ------------  ---------------      ----- ------------  ---------------
     9      0.616619   1 C  pz               24     -0.618362   2 C  pz        
     8     -0.399545   1 C  py               23      0.362504   2 C  py        
     5      0.340550   1 C  pz               20     -0.322177   2 C  pz        
   126     -0.220236   8 O  pz                4     -0.218995   1 C  py        
    19      0.194052   2 C  py               43      0.169600   3 Cl pz        

 Vector   58  Occ=0.000000D+00  E= 1.638500D-01
              MO Center=  2.8D+00,  3.0D-02,  6.6D-02, r^2= 4.4D+00
   Bfn.  Coefficient  Atom+Function         Bfn.  Coefficient  Atom+Function  
  ----- ------------  ---------------      ----- ------------  ---------------
    21      1.486361   2 C  s                22      0.794820   2 C  px        
    40     -0.678143   3 Cl s                41      0.661813   3 Cl px        
    61      0.626341   4 Cl py               59     -0.548332   4 Cl s         
    42     -0.502535   3 Cl py               62      0.390805   4 Cl pz        
    43     -0.335328   3 Cl pz               18      0.265245   2 C  px        

 Vector   59  Occ=0.000000D+00  E= 1.817163D-01
              MO Center= -1.3D-01, -1.1D-01, -5.5D-02, r^2= 7.9D+00
   Bfn.  Coefficient  Atom+Function         Bfn.  Coefficient  Atom+Function  
  ----- ------------  ---------------      ----- ------------  ---------------
   108      1.111027   7 P  s               123     -0.565457   8 O  s         
   153     -0.533456  10 O  s               138     -0.527760   9 O  s         
    23      0.511620   2 C  py               61      0.470319   4 Cl py        
   168     -0.439938  11 O  s               191      0.418562  18 H  s         
    59     -0.409272   4 Cl s                62      0.306104   4 Cl pz        

 Vector   60  Occ=0.000000D+00  E= 2.124890D-01
              MO Center= -3.1D-01, -9.3D-02, -2.2D-01, r^2= 1.0D+01
   Bfn.  Coefficient  Atom+Function         Bfn.  Coefficient  Atom+Function  
  ----- ------------  ---------------      ----- ------------  ---------------
   108      0.773634   7 P  s                23     -0.699879   2 C  py        
   153     -0.634387  10 O  s                59      0.526607   4 Cl s         
    41      0.515221   3 Cl px               61     -0.515915   4 Cl py        
    40     -0.473858   3 Cl s                24     -0.469592   2 C  pz        
   109     -0.468212   7 P  px              138     -0.456360   9 O  s         

 Vector   61  Occ=0.000000D+00  E= 2.414713D-01
              MO Center= -1.1D+00, -9.5D-02,  4.9D-01, r^2= 8.9D+00
   Bfn.  Coefficient  Atom+Function         Bfn.  Coefficient  Atom+Function  
  ----- ------------  ---------------      ----- ------------  ---------------
    74      1.098730   5 C  s                89      0.964908   6 C  s         
   179     -0.747892  12 H  s               123      0.640057   8 O  s         
   185     -0.625921  15 H  s               109     -0.582858   7 P  px        
   183     -0.576015  14 H  s                 6     -0.508700   1 C  s         
   111     -0.443999   7 P  pz              108     -0.440577   7 P  s         

 Vector   62  Occ=0.000000D+00  E= 2.466647D-01
              MO Center= -2.0D+00,  3.3D-01, -6.3D-02, r^2= 7.1D+00
   Bfn.  Coefficient  Atom+Function         Bfn.  Coefficient  Atom+Function  
  ----- ------------  ---------------      ----- ------------  ---------------
    89      1.264337   6 C  s               168      0.922677  11 O  s         
    74     -0.825414   5 C  s               187     -0.731212  16 H  s         
   189     -0.701032  17 H  s               110     -0.612503   7 P  py        
   109      0.570667   7 P  px              138     -0.561060   9 O  s         
   111     -0.458061   7 P  pz              181      0.386671  13 H  s         

 Vector   63  Occ=0.000000D+00  E= 2.486323D-01
              MO Center= -1.5D+00, -5.7D-02, -2.2D-01, r^2= 6.2D+00
   Bfn.  Coefficient  Atom+Function         Bfn.  Coefficient  Atom+Function  
  ----- ------------  ---------------      ----- ------------  ---------------
    74      0.731761   5 C  s               153     -0.710925  10 O  s         
   110      0.575837   7 P  py              179     -0.543150  12 H  s         
   111     -0.535100   7 P  pz              185      0.519932  15 H  s         
   109      0.470085   7 P  px              123     -0.450961   8 O  s         
    91     -0.406818   6 C  py              181     -0.399283  13 H  s         

 Vector   64  Occ=0.000000D+00  E= 2.853987D-01
              MO Center= -1.3D+00, -9.2D-02,  8.3D-01, r^2= 7.9D+00
   Bfn.  Coefficient  Atom+Function         Bfn.  Coefficient  Atom+Function  
  ----- ------------  ---------------      ----- ------------  ---------------
    74      1.444760   5 C  s               183     -1.294971  14 H  s         
    89     -1.131352   6 C  s               185      0.801805  15 H  s         
   189      0.692021  17 H  s               181     -0.686393  13 H  s         
   191      0.676231  18 H  s                 6     -0.614120   1 C  s         
    75      0.609782   5 C  px              153      0.424337  10 O  s         

 Vector   65  Occ=0.000000D+00  E= 2.930248D-01
              MO Center= -1.8D+00,  1.8D-01,  4.9D-01, r^2= 8.4D+00
   Bfn.  Coefficient  Atom+Function         Bfn.  Coefficient  Atom+Function  
  ----- ------------  ---------------      ----- ------------  ---------------
    89      1.628216   6 C  s                74      1.326481   5 C  s         
   181     -0.961020  13 H  s               185     -0.903372  15 H  s         
   189     -0.799389  17 H  s               168     -0.594903  11 O  s         
    77     -0.506713   5 C  pz              183     -0.500962  14 H  s         
   187     -0.479284  16 H  s               109      0.344206   7 P  px        

 Vector   66  Occ=0.000000D+00  E= 3.116728D-01
              MO Center= -2.3D+00,  1.1D+00, -1.3D-02, r^2= 9.7D+00
   Bfn.  Coefficient  Atom+Function         Bfn.  Coefficient  Atom+Function  
  ----- ------------  ---------------      ----- ------------  ---------------
   187      1.405355  16 H  s               179      1.207009  12 H  s         
    91     -0.833964   6 C  py               75      0.707711   5 C  px        
    92      0.617108   6 C  pz              185     -0.557093  15 H  s         
    90      0.412479   6 C  px              181     -0.387725  13 H  s         
     6     -0.374618   1 C  s               183     -0.373213  14 H  s         

 Vector   67  Occ=0.000000D+00  E= 3.147016D-01
              MO Center= -1.6D+00,  2.0D-01,  6.3D-02, r^2= 1.2D+01
   Bfn.  Coefficient  Atom+Function         Bfn.  Coefficient  Atom+Function  
  ----- ------------  ---------------      ----- ------------  ---------------
   179      1.160670  12 H  s               187     -1.098706  16 H  s         
   191     -1.099792  18 H  s                92     -0.919787   6 C  pz        
   189      0.658481  17 H  s                 6      0.652201   1 C  s         
    75      0.648745   5 C  px                8     -0.561635   1 C  py        
     7     -0.445616   1 C  px              181     -0.400087  13 H  s         

 Vector   68  Occ=0.000000D+00  E= 3.249430D-01
              MO Center= -1.2D+00, -6.8D-01,  6.5D-01, r^2= 9.2D+00
   Bfn.  Coefficient  Atom+Function         Bfn.  Coefficient  Atom+Function  
  ----- ------------  ---------------      ----- ------------  ---------------
   183      1.242386  14 H  s               191      1.218249  18 H  s         
   181     -0.887383  13 H  s                 6     -0.766893   1 C  s         
    77     -0.676586   5 C  pz              189      0.667594  17 H  s         
   187     -0.643781  16 H  s                76     -0.552095   5 C  py        
    92     -0.551220   6 C  pz               75     -0.521461   5 C  px        

 Vector   69  Occ=0.000000D+00  E= 3.429962D-01
              MO Center= -1.8D+00,  1.3D+00,  5.8D-02, r^2= 6.9D+00
   Bfn.  Coefficient  Atom+Function         Bfn.  Coefficient  Atom+Function  
  ----- ------------  ---------------      ----- ------------  ---------------
   189      1.392674  17 H  s               185     -1.314593  15 H  s         
    90      1.203583   6 C  px              191     -0.552505  18 H  s         
    77      0.542147   5 C  pz              179     -0.488941  12 H  s         
   168      0.427286  11 O  s               108      0.360447   7 P  s         
    21      0.305616   2 C  s                76     -0.284080   5 C  py        

 Vector   70  Occ=0.000000D+00  E= 3.485189D-01
              MO Center= -2.1D+00, -5.0D-01,  8.8D-01, r^2= 6.0D+00
   Bfn.  Coefficient  Atom+Function         Bfn.  Coefficient  Atom+Function  
  ----- ------------  ---------------      ----- ------------  ---------------
   181      1.194307  13 H  s                76      1.042125   5 C  py        
   185     -0.606018  15 H  s               183     -0.555182  14 H  s         
   171     -0.532671  11 O  pz              109      0.525166   7 P  px        
   111     -0.489270   7 P  pz              179      0.438711  12 H  s         
   189      0.440037  17 H  s               110      0.424688   7 P  py        

 Vector   71  Occ=0.000000D+00  E= 3.613637D-01
              MO Center= -1.9D+00,  4.4D-01, -4.8D-01, r^2= 7.9D+00
   Bfn.  Coefficient  Atom+Function         Bfn.  Coefficient  Atom+Function  
  ----- ------------  ---------------      ----- ------------  ---------------
   111      0.870861   7 P  pz              181      0.807403  13 H  s         
    91     -0.788456   6 C  py               92     -0.741389   6 C  pz        
     7      0.710212   1 C  px               89      0.703135   6 C  s         
   155     -0.694280  10 O  py               21     -0.606697   2 C  s         
   108     -0.577313   7 P  s                77      0.560231   5 C  pz        

 Vector   72  Occ=0.000000D+00  E= 3.789973D-01
              MO Center= -1.9D+00, -2.2D-01,  6.1D-01, r^2= 6.7D+00
   Bfn.  Coefficient  Atom+Function         Bfn.  Coefficient  Atom+Function  
  ----- ------------  ---------------      ----- ------------  ---------------
   110     -0.957193   7 P  py              179     -0.910967  12 H  s         
    74      0.874959   5 C  s                75     -0.653506   5 C  px        
   109      0.628309   7 P  px               91     -0.591324   6 C  py        
   171     -0.577083  11 O  pz              104     -0.549747   7 P  s         
   191     -0.512899  18 H  s                76      0.474873   5 C  py        

 Vector   73  Occ=0.000000D+00  E= 4.184434D-01
              MO Center=  6.5D-01, -3.1D-01, -1.7D-01, r^2= 6.8D+00
   Bfn.  Coefficient  Atom+Function         Bfn.  Coefficient  Atom+Function  
  ----- ------------  ---------------      ----- ------------  ---------------
     7      1.403152   1 C  px               23      1.234862   2 C  py        
   123      1.211236   8 O  s                 8     -1.147024   1 C  py        
   191     -1.121335  18 H  s                40      0.916235   3 Cl s         
     9     -0.813429   1 C  pz               59     -0.813373   4 Cl s         
    24      0.797640   2 C  pz               41     -0.730461   3 Cl px        

 Vector   74  Occ=0.000000D+00  E= 4.641779D-01
              MO Center=  1.5D+00, -1.1D-01, -2.2D-01, r^2= 7.3D+00
   Bfn.  Coefficient  Atom+Function         Bfn.  Coefficient  Atom+Function  
  ----- ------------  ---------------      ----- ------------  ---------------
     6      3.835645   1 C  s                21     -3.293558   2 C  s         
    22      3.009506   2 C  px                7      2.340361   1 C  px        
     8      1.137443   1 C  py               23      1.102630   2 C  py        
   111     -0.839399   7 P  pz               59     -0.775017   4 Cl s         
     9      0.693415   1 C  pz              109      0.610166   7 P  px        

 Vector   75  Occ=0.000000D+00  E= 4.732123D-01
              MO Center=  2.6D+00,  1.8D-01,  6.6D-02, r^2= 5.6D+00
   Bfn.  Coefficient  Atom+Function         Bfn.  Coefficient  Atom+Function  
  ----- ------------  ---------------      ----- ------------  ---------------
    21      1.341605   2 C  s                40     -1.316705   3 Cl s         
    59     -1.198425   4 Cl s                 6     -0.997331   1 C  s         
    36      0.858052   3 Cl s                55      0.811006   4 Cl s         
   108     -0.620377   7 P  s                 7     -0.453530   1 C  px        
   104      0.435262   7 P  s               111      0.279460   7 P  pz        

 Vector   76  Occ=0.000000D+00  E= 4.842337D-01
              MO Center= -2.2D+00, -3.1D-01, -5.3D-01, r^2= 4.2D+00
   Bfn.  Coefficient  Atom+Function         Bfn.  Coefficient  Atom+Function  
  ----- ------------  ---------------      ----- ------------  ---------------
   109      1.283835   7 P  px              108     -1.037416   7 P  s         
   105     -1.015012   7 P  px              104      0.754357   7 P  s         
    21     -0.571369   2 C  s                 6      0.504146   1 C  s         
   153      0.494700  10 O  s               107     -0.459968   7 P  pz        
   168      0.410839  11 O  s                 8      0.394860   1 C  py        

 Vector   77  Occ=0.000000D+00  E= 5.233217D-01
              MO Center= -4.2D-01, -1.4D-01, -6.3D-01, r^2= 6.6D+00
   Bfn.  Coefficient  Atom+Function         Bfn.  Coefficient  Atom+Function  
  ----- ------------  ---------------      ----- ------------  ---------------
     6      1.504725   1 C  s                22      1.164999   2 C  px        
   108     -1.126412   7 P  s               109     -0.985135   7 P  px        
    21     -0.940539   2 C  s               111      0.892657   7 P  pz        
   110     -0.855335   7 P  py              107     -0.769979   7 P  pz        
   105      0.673920   7 P  px                8      0.622054   1 C  py        

 Vector   78  Occ=0.000000D+00  E= 5.534597D-01
              MO Center= -8.5D-01,  1.9D-02,  2.9D-01, r^2= 7.3D+00
   Bfn.  Coefficient  Atom+Function         Bfn.  Coefficient  Atom+Function  
  ----- ------------  ---------------      ----- ------------  ---------------
   108      2.731565   7 P  s               111      1.431845   7 P  pz        
   104     -1.208600   7 P  s               110      0.733379   7 P  py        
   107     -0.679895   7 P  pz               77      0.643765   5 C  pz        
   123     -0.590852   8 O  s               168     -0.522530  11 O  s         
     7      0.472862   1 C  px               59     -0.450124   4 Cl s         

 Vector   79  Occ=0.000000D+00  E= 5.654379D-01
              MO Center=  2.4D+00,  3.5D-01,  2.8D-01, r^2= 6.9D+00
   Bfn.  Coefficient  Atom+Function         Bfn.  Coefficient  Atom+Function  
  ----- ------------  ---------------      ----- ------------  ---------------
    40      1.273135   3 Cl s                59     -1.224002   4 Cl s         
    55      0.780534   4 Cl s                36     -0.744411   3 Cl s         
    22     -0.594325   2 C  px               60      0.444009   4 Cl px        
     8     -0.423929   1 C  py               21      0.382542   2 C  s         
   191     -0.381678  18 H  s                57      0.302901   4 Cl py        

 Vector   80  Occ=0.000000D+00  E= 5.844437D-01
              MO Center= -4.4D-01, -2.9D-01,  2.5D-02, r^2= 8.4D+00
   Bfn.  Coefficient  Atom+Function         Bfn.  Coefficient  Atom+Function  
  ----- ------------  ---------------      ----- ------------  ---------------
   110      1.793911   7 P  py              106     -0.891622   7 P  py        
   138      0.693175   9 O  s                91      0.521643   6 C  py        
   168     -0.429234  11 O  s                43     -0.405312   3 Cl pz        
    76      0.404214   5 C  py              109     -0.400119   7 P  px        
   181      0.399055  13 H  s                 7     -0.393343   1 C  px        

 Vector   81  Occ=0.000000D+00  E= 5.952068D-01
              MO Center=  2.6D+00,  7.4D-02,  1.2D-01, r^2= 6.9D+00
   Bfn.  Coefficient  Atom+Function         Bfn.  Coefficient  Atom+Function  
  ----- ------------  ---------------      ----- ------------  ---------------
    43      0.695496   3 Cl pz              110      0.643175   7 P  py        
    39     -0.608998   3 Cl pz               62      0.574285   4 Cl pz        
    61     -0.565579   4 Cl py               42     -0.529482   3 Cl py        
    58     -0.528546   4 Cl pz               38      0.498886   3 Cl py        
    57      0.485823   4 Cl py              106     -0.306254   7 P  py        

 Vector   82  Occ=0.000000D+00  E= 6.051750D-01
              MO Center=  3.1D+00,  3.0D-01,  2.4D-01, r^2= 6.0D+00
   Bfn.  Coefficient  Atom+Function         Bfn.  Coefficient  Atom+Function  
  ----- ------------  ---------------      ----- ------------  ---------------
[...]
    80      0.659483   5 C  dxz              94      0.635016   6 C  dxy       
   174      0.593371  11 O  dxz              97     -0.456821   6 C  dyz       
    81     -0.448623   5 C  dyy             188      0.404676  17 H  s         
   153     -0.359601  10 O  s               173     -0.341043  11 O  dxy       

 Vector  170  Occ=0.000000D+00  E= 2.684325D+00
              MO Center= -1.9D+00,  8.8D-01, -3.8D-01, r^2= 4.4D+00
   Bfn.  Coefficient  Atom+Function         Bfn.  Coefficient  Atom+Function  
  ----- ------------  ---------------      ----- ------------  ---------------
   168     -0.891299  11 O  s                97      0.813509   6 C  dyz       
    94      0.682604   6 C  dxy             123     -0.571485   8 O  s         
   173      0.542711  11 O  dxy              80     -0.506953   5 C  dxz       
   158      0.481924  10 O  dxy              93      0.468987   6 C  dxx       
   104      0.445479   7 P  s               184     -0.383646  15 H  s         

 Vector  171  Occ=0.000000D+00  E= 2.720622D+00
              MO Center= -1.5D+00, -1.0D-01,  3.7D-01, r^2= 4.3D+00
   Bfn.  Coefficient  Atom+Function         Bfn.  Coefficient  Atom+Function  
  ----- ------------  ---------------      ----- ------------  ---------------
   123      1.441640   8 O  s               108     -1.310342   7 P  s         
   153      1.238541  10 O  s               124     -0.978530   8 O  px        
    80     -0.763144   5 C  dxz             104     -0.712973   7 P  s         
   173      0.620479  11 O  dxy             168      0.587398  11 O  s         
   119     -0.565953   8 O  s               174     -0.567228  11 O  dxz       

 Vector  172  Occ=0.000000D+00  E= 2.771512D+00
              MO Center=  6.9D-01, -2.4D-01, -5.9D-02, r^2= 2.0D+00
   Bfn.  Coefficient  Atom+Function         Bfn.  Coefficient  Atom+Function  
  ----- ------------  ---------------      ----- ------------  ---------------
    12      1.360415   1 C  dxz              11     -0.823372   1 C  dxy       
    27      0.744162   2 C  dxz             129      0.740118   8 O  dxz       
   132     -0.436090   8 O  dzz             128     -0.386270   8 O  dxy       
   108     -0.375542   7 P  s                26     -0.325367   2 C  dxy       
   130      0.311185   8 O  dyy              29      0.305154   2 C  dyz       

 Vector  173  Occ=0.000000D+00  E= 2.873161D+00
              MO Center= -1.1D+00, -3.1D-02,  8.9D-03, r^2= 4.8D+00
   Bfn.  Coefficient  Atom+Function         Bfn.  Coefficient  Atom+Function  
  ----- ------------  ---------------      ----- ------------  ---------------
   168      1.625810  11 O  s               153      1.247673  10 O  s         
   105      1.130152   7 P  px               21      0.954758   2 C  s         
   174     -0.870548  11 O  dxz             123     -0.850023   8 O  s         
     7     -0.777979   1 C  px              124      0.738708   8 O  px        
   114      0.730643   7 P  dxz               6     -0.683951   1 C  s         

 Vector  174  Occ=0.000000D+00  E= 2.926518D+00
              MO Center= -2.1D+00,  1.4D-01, -1.5D-01, r^2= 3.5D+00
   Bfn.  Coefficient  Atom+Function         Bfn.  Coefficient  Atom+Function  
  ----- ------------  ---------------      ----- ------------  ---------------
   168      2.167310  11 O  s               153     -1.535473  10 O  s         
   107     -1.216716   7 P  pz              161      0.993844  10 O  dyz       
   114      0.895545   7 P  dxz              74     -0.828048   5 C  s         
   174     -0.823882  11 O  dxz               6      0.803274   1 C  s         
   116     -0.798553   7 P  dyz              21     -0.738049   2 C  s         

 Vector  175  Occ=0.000000D+00  E= 2.997352D+00
              MO Center=  3.0D-01, -9.5D-02, -1.6D-01, r^2= 3.8D+00
   Bfn.  Coefficient  Atom+Function         Bfn.  Coefficient  Atom+Function  
  ----- ------------  ---------------      ----- ------------  ---------------
     6      3.141002   1 C  s               123     -2.335061   8 O  s         
    21     -2.206386   2 C  s               153      1.224024  10 O  s         
    22      1.150339   2 C  px               14      1.046477   1 C  dyz       
     8      0.999123   1 C  py              119      0.782701   8 O  s         
    25     -0.701494   2 C  dxx               9      0.599955   1 C  pz        

 Vector  176  Occ=0.000000D+00  E= 3.051474D+00
              MO Center= -1.9D+00,  1.9D-01, -5.6D-01, r^2= 4.6D+00
   Bfn.  Coefficient  Atom+Function         Bfn.  Coefficient  Atom+Function  
  ----- ------------  ---------------      ----- ------------  ---------------
   153      1.718023  10 O  s                89     -1.376960   6 C  s         
   138     -1.369569   9 O  s                 6     -1.125580   1 C  s         
   155      1.095333  10 O  py               74     -0.935342   5 C  s         
   108      0.889619   7 P  s               146     -0.810332   9 O  dyz       
    21      0.804313   2 C  s               106     -0.791208   7 P  py        

 Vector  177  Occ=0.000000D+00  E= 3.139974D+00
              MO Center= -1.6D+00, -4.4D-01,  5.6D-01, r^2= 5.0D+00
   Bfn.  Coefficient  Atom+Function         Bfn.  Coefficient  Atom+Function  
  ----- ------------  ---------------      ----- ------------  ---------------
    74      1.481322   5 C  s               171     -1.317583  11 O  pz        
    21      1.307429   2 C  s               176      1.304670  11 O  dyz       
     6     -1.296488   1 C  s               168     -1.086419  11 O  s         
     7     -0.991273   1 C  px               82     -0.994924   5 C  dyz       
    22     -0.894620   2 C  px              138     -0.824563   9 O  s         

 Vector  178  Occ=0.000000D+00  E= 3.162463D+00
              MO Center= -1.5D+00, -5.1D-01, -8.5D-01, r^2= 4.0D+00
   Bfn.  Coefficient  Atom+Function         Bfn.  Coefficient  Atom+Function  
  ----- ------------  ---------------      ----- ------------  ---------------
   138      2.046117   9 O  s               106      1.507745   7 P  py        
   140      1.187741   9 O  py               89     -1.072287   6 C  s         
   123     -1.051557   8 O  s               155      1.037846  10 O  py        
   161      1.008295  10 O  dyz             146      0.993395   9 O  dyz       
   116     -0.942023   7 P  dyz             145      0.779421   9 O  dyy       

 Vector  179  Occ=0.000000D+00  E= 3.194443D+00
              MO Center= -2.0D-02, -1.7D-01, -6.2D-02, r^2= 4.4D+00
   Bfn.  Coefficient  Atom+Function         Bfn.  Coefficient  Atom+Function  
  ----- ------------  ---------------      ----- ------------  ---------------
     7      1.552717   1 C  px              123      1.316046   8 O  s         
    21     -1.206236   2 C  s                11      1.141989   1 C  dxy       
    22      0.994354   2 C  px                6      0.830403   1 C  s         
    26     -0.834469   2 C  dxy             124      0.814168   8 O  px        
   155      0.712921  10 O  py                3      0.677832   1 C  px        

 Vector  180  Occ=0.000000D+00  E= 3.286309D+00
              MO Center=  5.4D-01, -2.5D-01, -2.7D-02, r^2= 2.2D+00
   Bfn.  Coefficient  Atom+Function         Bfn.  Coefficient  Atom+Function  
  ----- ------------  ---------------      ----- ------------  ---------------
     6      2.257447   1 C  s               123     -1.734632   8 O  s         
   124     -1.539086   8 O  px              128      1.302540   8 O  dxy       
   129      1.059375   8 O  dxz              21     -0.951364   2 C  s         
     8      0.867413   1 C  py               10      0.838279   1 C  dxx       
    11     -0.798008   1 C  dxy              26     -0.719311   2 C  dxy       

 Vector  181  Occ=0.000000D+00  E= 3.878667D+00
              MO Center= -1.7D+00, -3.9D-01, -3.7D-01, r^2= 1.3D+00
   Bfn.  Coefficient  Atom+Function         Bfn.  Coefficient  Atom+Function  
  ----- ------------  ---------------      ----- ------------  ---------------
   104      6.917044   7 P  s               115     -3.198657   7 P  dyy       
   117     -3.190220   7 P  dzz             112     -3.160031   7 P  dxx       
   100     -0.685641   7 P  s               138     -0.594541   9 O  s         
   123      0.504432   8 O  s               145      0.356579   9 O  dyy       
   174     -0.350053  11 O  dxz               7      0.341900   1 C  px        

 Vector  182  Occ=0.000000D+00  E= 4.179138D+00
              MO Center= -2.0D+00, -7.8D-02,  1.6D-01, r^2= 3.4D+00
   Bfn.  Coefficient  Atom+Function         Bfn.  Coefficient  Atom+Function  
  ----- ------------  ---------------      ----- ------------  ---------------
   168      3.611655  11 O  s               153     -2.094762  10 O  s         
   123     -2.001903   8 O  s               138      1.695686   9 O  s         
   175     -1.329006  11 O  dyy             172     -1.286361  11 O  dxx       
   177     -1.173525  11 O  dzz             157      0.797342  10 O  dxx       
   130      0.753874   8 O  dyy             132      0.717551   8 O  dzz       

 Vector  183  Occ=0.000000D+00  E= 4.294086D+00
              MO Center= -1.8D+00, -6.4D-01, -1.1D+00, r^2= 3.4D+00
   Bfn.  Coefficient  Atom+Function         Bfn.  Coefficient  Atom+Function  
  ----- ------------  ---------------      ----- ------------  ---------------
   138      4.446245   9 O  s               153      3.455368  10 O  s         
   108     -2.170164   7 P  s               142     -1.457322   9 O  dxx       
   147     -1.421192   9 O  dzz             145     -1.178685   9 O  dyy       
   157     -1.134773  10 O  dxx             162     -1.067167  10 O  dzz       
   160     -0.920992  10 O  dyy              85      0.841031   6 C  s         

 Vector  184  Occ=0.000000D+00  E= 4.344173D+00
              MO Center= -1.4D+00, -7.1D-02, -5.1D-01, r^2= 4.0D+00
   Bfn.  Coefficient  Atom+Function         Bfn.  Coefficient  Atom+Function  
  ----- ------------  ---------------      ----- ------------  ---------------
   153     -3.485826  10 O  s               123      3.368857   8 O  s         
   138      2.618929   9 O  s               168     -1.627712  11 O  s         
   157      1.188563  10 O  dxx             162      1.126274  10 O  dzz       
   110      1.090514   7 P  py              160      1.067037  10 O  dyy       
   132     -1.050371   8 O  dzz             130     -1.044556   8 O  dyy       

 Vector  185  Occ=0.000000D+00  E= 4.404175D+00
              MO Center=  2.1D+00, -6.7D-02,  3.5D-02, r^2= 1.9D+00
   Bfn.  Coefficient  Atom+Function         Bfn.  Coefficient  Atom+Function  
  ----- ------------  ---------------      ----- ------------  ---------------
    17      2.353543   2 C  s                36      1.913918   3 Cl s         
    55      1.819329   4 Cl s                21      1.747917   2 C  s         
    25     -1.537532   2 C  dxx              30     -1.482066   2 C  dzz       
    28     -1.424088   2 C  dyy               2      1.112437   1 C  s         
    49     -0.838973   3 Cl dzz              47     -0.819585   3 Cl dyy       

 Vector  186  Occ=0.000000D+00  E= 4.505155D+00
              MO Center= -1.2D+00, -1.4D-01,  6.5D-01, r^2= 4.4D+00
   Bfn.  Coefficient  Atom+Function         Bfn.  Coefficient  Atom+Function  
  ----- ------------  ---------------      ----- ------------  ---------------
   123      4.745190   8 O  s               168      3.584421  11 O  s         
   108     -2.474318   7 P  s               153      1.398368  10 O  s         
   130     -1.367348   8 O  dyy             132     -1.366174   8 O  dzz       
   110     -1.320880   7 P  py              127     -1.276666   8 O  dxx       
    70      1.261659   5 C  s               172     -1.000548  11 O  dxx       

 Vector  187  Occ=0.000000D+00  E= 4.656657D+00
              MO Center=  4.2D-01,  2.9D-01, -1.5D-01, r^2= 5.0D+00
   Bfn.  Coefficient  Atom+Function         Bfn.  Coefficient  Atom+Function  
  ----- ------------  ---------------      ----- ------------  ---------------
   123      2.196804   8 O  s                 2      2.128399   1 C  s         
    55     -2.123762   4 Cl s                10     -1.656675   1 C  dxx       
    13     -1.380006   1 C  dyy              15     -1.334684   1 C  dzz       
   168      1.309717  11 O  s                85      1.238045   6 C  s         
    89      1.178164   6 C  s               108     -1.130504   7 P  s         

 Vector  188  Occ=0.000000D+00  E= 4.660472D+00
              MO Center= -1.4D+00,  1.4D+00, -6.8D-01, r^2= 5.0D+00
   Bfn.  Coefficient  Atom+Function         Bfn.  Coefficient  Atom+Function  
  ----- ------------  ---------------      ----- ------------  ---------------
    85      2.393661   6 C  s                89      2.075015   6 C  s         
    96     -1.696014   6 C  dyy              98     -1.561594   6 C  dzz       
    93     -1.531726   6 C  dxx             138     -1.443540   9 O  s         
   153     -1.255178  10 O  s                 2     -1.091395   1 C  s         
    55      1.054203   4 Cl s                10      0.868797   1 C  dxx       

 Vector  189  Occ=0.000000D+00  E= 4.683367D+00
              MO Center= -2.3D+00, -6.2D-01,  1.5D+00, r^2= 3.2D+00
   Bfn.  Coefficient  Atom+Function         Bfn.  Coefficient  Atom+Function  
  ----- ------------  ---------------      ----- ------------  ---------------
   168     -2.490737  11 O  s                70      2.461127   5 C  s         
    74      2.254375   5 C  s                83     -1.702217   5 C  dzz       
    81     -1.670936   5 C  dyy              78     -1.591057   5 C  dxx       
   153     -1.444239  10 O  s               123     -1.386045   8 O  s         
   110      0.849966   7 P  py              108      0.823704   7 P  s         

 Vector  190  Occ=0.000000D+00  E= 4.722876D+00
              MO Center=  3.0D+00, -4.6D-02,  1.0D-02, r^2= 2.8D+00
   Bfn.  Coefficient  Atom+Function         Bfn.  Coefficient  Atom+Function  
  ----- ------------  ---------------      ----- ------------  ---------------
    36      4.262898   3 Cl s                55     -3.349049   4 Cl s         
    44     -1.943308   3 Cl dxx              47     -1.925992   3 Cl dyy       
    49     -1.926990   3 Cl dzz              66      1.535773   4 Cl dyy       
    68      1.520179   4 Cl dzz              63      1.493053   4 Cl dxx       
   123     -0.697856   8 O  s                32     -0.627324   3 Cl s         

 Vector  191  Occ=0.000000D+00  E= 4.797811D+00
              MO Center=  2.2D+00,  1.1D-01,  1.5D-01, r^2= 2.8D+00
   Bfn.  Coefficient  Atom+Function         Bfn.  Coefficient  Atom+Function  
  ----- ------------  ---------------      ----- ------------  ---------------
    55      3.010888   4 Cl s                36      2.516547   3 Cl s         
    17     -1.731512   2 C  s                21     -1.465319   2 C  s         
    66     -1.389776   4 Cl dyy              68     -1.340592   4 Cl dzz       
    63     -1.330620   4 Cl dxx              25      1.321870   2 C  dxx       
    28      1.163386   2 C  dyy              44     -1.161426   3 Cl dxx       


 center of mass
 --------------
 x =   0.14426313 y =  -0.02000458 z =  -0.03046178

 moments of inertia (a.u.)
 ------------------
        1585.966553291824         -30.345322711428         -47.819771489626
         -30.345322711428        4858.482780865682         -52.647912702612
         -47.819771489626         -52.647912702612        5109.021687212357

     Multipole analysis of the density
     ---------------------------------

     L   x y z        total         alpha         beta         nuclear
     -   - - -        -----         -----         ----         -------
     0   0 0 0     -0.000000    -56.000000    -56.000000    112.000000

     1   1 0 0     -0.678220     -0.339117     -0.339117      0.000013
     1   0 1 0      0.984820      0.492411      0.492411     -0.000002
     1   0 0 1      1.207197      0.603586      0.603586      0.000025

     2   2 0 0    -66.826890  -1094.462481  -1094.462481   2122.098072
     2   1 1 0     -5.728716     -2.864278     -2.864278     -0.000160
     2   1 0 1     -7.372951     -3.728990     -3.728990      0.085029
     2   0 2 0    -61.220322   -280.677296   -280.677296    500.134271
     2   0 1 1     -6.613849     -3.299251     -3.299251     -0.015348
     2   0 0 2    -61.468922   -215.087277   -215.087277    368.705632


 Task  times  cpu:       65.3s     wall:       65.9s


                                NWChem Input Module
                                -------------------


 Summary of allocated global arrays
-----------------------------------
  No active global arrays



                         GA Statistics for process    0
                         ------------------------------

       create   destroy   get      put      acc     scatter   gather  read&inc
calls:  257      257     1.43e+04 3612      152        0        0     1.11e+04 
number of processes/call 1.13e+00 1.21e+00 4.00e+00 0.00e+00 0.00e+00
bytes total:             1.07e+08 2.49e+07 4.44e+07 0.00e+00 0.00e+00 8.87e+04
bytes remote:            7.25e+07 9.19e+06 3.28e+07 0.00e+00 0.00e+00 0.00e+00
Max memory consumed for GA by this process: 2971616 bytes

MA_summarize_allocated_blocks: starting scan ...
MA_summarize_allocated_blocks: scan completed: 0 heap blocks, 0 stack blocks
MA usage statistics:

	allocation statistics:
					      heap	     stack
					      ----	     -----
	current number of blocks	         0	         0
	maximum number of blocks	        22	        26
	current total bytes		         0	         0
	maximum total bytes		    114664	  46934248
	maximum total K-bytes		       115	     46935
	maximum total M-bytes		         1	        47


                                     CITATION
                                     --------
                Please cite the following reference when publishing
                           results obtained with NWChem:

                 M. Valiev, E.J. Bylaska, N. Govind, K. Kowalski,
              T.P. Straatsma, H.J.J. van Dam, D. Wang, J. Nieplocha,
                        E. Apra, T.L. Windus, W.A. de Jong
                 "NWChem: a comprehensive and scalable open-source
                  solution for large scale molecular simulations"
                      Comput. Phys. Commun. 181, 1477 (2010)
                           doi:10.1016/j.cpc.2010.04.018

                                      AUTHORS
                                      -------
          E. Apra, E. J. Bylaska, W. A. de Jong, N. Govind, K. Kowalski,
       T. P. Straatsma, M. Valiev, H. J. J. van Dam, D. Wang, T. L. Windus,
        J. Hammond, J. Autschbach, K. Bhaskaran-Nair, J. Brabec, K. Lopata,
    S. A. Fischer, S. Krishnamoorthy, M. Jacquelin, W. Ma, M. Klemm, O. Villa,
      Y. Chen, V. Anisimov, F. Aquino, S. Hirata, M. T. Hackler, V. Konjkov,
            D. Mejia-Rodriguez, T. Risthaus, M. Malagoli, A. Marenich,
   A. Otero-de-la-Roza, J. Mullin, P. Nichols, R. Peverati, J. Pittner, Y. Zhao,
        P.-D. Fan, A. Fonari, M. J. Williamson, R. J. Harrison, J. R. Rehr,
      M. Dupuis, D. Silverstein, D. M. A. Smith, J. Nieplocha, V. Tipparaju,
    M. Krishnan, B. E. Van Kuiken, A. Vazquez-Mayagoitia, L. Jensen, M. Swart,
      Q. Wu, T. Van Voorhis, A. A. Auer, M. Nooijen, L. D. Crosby, E. Brown,
      G. Cisneros, G. I. Fann, H. Fruchtl, J. Garza, K. Hirao, R. A. Kendall,
      J. A. Nichols, K. Tsemekhman, K. Wolinski, J. Anchell, D. E. Bernholdt,
      P. Borowski, T. Clark, D. Clerc, H. Dachsel, M. J. O. Deegan, K. Dyall,
    D. Elwood, E. Glendening, M. Gutowski, A. C. Hess, J. Jaffe, B. G. Johnson,
     J. Ju, R. Kobayashi, R. Kutteh, Z. Lin, R. Littlefield, X. Long, B. Meng,
      T. Nakajima, S. Niu, L. Pollack, M. Rosing, K. Glaesemann, G. Sandrone,
      M. Stave, H. Taylor, G. Thomas, J. H. van Lenthe, A. T. Wong, Z. Zhang.

 Total times  cpu:       65.3s     wall:       65.9s
