 argument  1 = /home/list1234/source/nwchem-6.8.1-release/QA/tests/prop_cg_nh3_b3lyp/prop_cg_nh3_b3lyp.nw



============================== echo of input deck ==============================
echo

start prop_nh3_dat

# This calculation tests the property code in the case where
# the DFT part uses the quasi Newton-Raphson solver.

title "property calculation for (NH3) - DFT(B3LYP)/aug-cc-pVDZ"

geometry
  symmetry C3v
  n      0.00000000     0.00000000     0.11528732
  h      0.66613072     0.66613072    -0.29294900
  h     -0.90995149     0.24382077    -0.29294900
  h      0.24382077    -0.90995149    -0.29294900
end

basis spherical
 n   library aug-cc-pvdz
 h   library aug-cc-pvdz
end

dft
  cgmin
  xc b3lyp
  mult 1
end

property
  shielding
end

task dft property

dft
  cgmin
  odft
  xc b3lyp
  mult 1
end

property
  spinspin
end

task dft property

charge 1
dft
  cgmin
  odft
  xc b3lyp
  mult 2
end

property
  hyperfine
end

task dft property

================================================================================


                                         
                                         


              Northwest Computational Chemistry Package (NWChem) 6.8
              ------------------------------------------------------


                    Environmental Molecular Sciences Laboratory
                       Pacific Northwest National Laboratory
                                Richland, WA 99352

                              Copyright (c) 1994-2018
                       Pacific Northwest National Laboratory
                            Battelle Memorial Institute

             NWChem is an open-source computational chemistry package
                        distributed under the terms of the
                      Educational Community License (ECL) 2.0
             A copy of the license is included with this distribution
                              in the LICENSE.TXT file

                                  ACKNOWLEDGMENT
                                  --------------

            This software and its documentation were developed at the
            EMSL at Pacific Northwest National Laboratory, a multiprogram
            national laboratory, operated for the U.S. Department of Energy
            by Battelle under Contract Number DE-AC05-76RL01830. Support
            for this work was provided by the Department of Energy Office
            of Biological and Environmental Research, Office of Basic
            Energy Sciences, and the Office of Advanced Scientific Computing.


           Job information
           ---------------

    hostname        = list1234-B360M-H
    program         = /home/list1234/source/nwchem-6.8.1-release/bin/LINUX64/nwchem
    date            = Sun Jun 30 07:12:23 2019

    compiled        = Sun_Jun_30_05:21:11_2019
    source          = /home/list1234/source/nwchem-6.8.1-release
    nwchem branch   = Development
    nwchem revision = N/A
    ga revision     = 5.6.5
    use scalapack   = T
    input           = /home/list1234/source/nwchem-6.8.1-release/QA/tests/prop_cg_nh3_b3lyp/prop_cg_nh3_b3lyp.nw
    prefix          = prop_nh3_dat.
    data base       = ./prop_nh3_dat.db
    status          = startup
    nproc           =        4
    time left       =     -1s



           Memory information
           ------------------

    heap     =   86247168 doubles =    658.0 Mbytes
    stack    =   86247165 doubles =    658.0 Mbytes
    global   =  172494336 doubles =   1316.0 Mbytes (distinct from heap & stack)
    total    =  344988669 doubles =   2632.1 Mbytes
    verify   = yes
    hardfail = no 


           Directory information
           ---------------------

  0 permanent = .
  0 scratch   = .




                                NWChem Input Module
                                -------------------


              property calculation for (NH3) - DFT(B3LYP)/aug-cc-pVDZ
              -------------------------------------------------------

 Scaling coordinates for geometry "geometry" by  1.889725989
 (inverse scale =  0.529177249)

 Turning off AUTOSYM since
 SYMMETRY directive was detected!


          ------
          auto-z
          ------
  Looking for out-of-plane bends
  no constraints, skipping    0.0000000000000000     
  no constraints, skipping    0.0000000000000000     


                             Geometry "geometry" -> ""
                             -------------------------

 Output coordinates in angstroms (scale by  1.889725989 to convert to a.u.)

  No.       Tag          Charge          X              Y              Z
 ---- ---------------- ---------- -------------- -------------- --------------
    1 n                    7.0000    -0.00000000    -0.00000000     0.12247090
    2 h                    1.0000     0.66613072     0.66613072    -0.28576542
    3 h                    1.0000    -0.90995149     0.24382077    -0.28576542
    4 h                    1.0000     0.24382077    -0.90995149    -0.28576542

      Atomic Mass 
      ----------- 

      n                 14.003070
      h                  1.007825


 Effective nuclear repulsion energy (a.u.)      11.7966495381

            Nuclear Dipole moment (a.u.) 
            ----------------------------
        X                 Y               Z
 ---------------- ---------------- ----------------
     0.0000000000    -0.0000000000     0.0000000000

      Symmetry information
      --------------------

 Group name             C3v       
 Group number             17
 Group order               6
 No. of unique centers     2

      Symmetry unique atoms

     1    2



                                Z-matrix (autoz)
                                -------- 

 Units are Angstrom for bonds and degrees for angles

      Type          Name      I     J     K     L     M      Value
      ----------- --------  ----- ----- ----- ----- ----- ----------
    1 Stretch                  1     2                       1.02670
    2 Stretch                  1     3                       1.02670
    3 Stretch                  1     4                       1.02670
    4 Bend                     2     1     3               105.23916
    5 Bend                     2     1     4               105.23916
    6 Bend                     3     1     4               105.23916


            XYZ format geometry
            -------------------
     4
 geometry
 n                    -0.00000000    -0.00000000     0.12247090
 h                     0.66613072     0.66613072    -0.28576542
 h                    -0.90995149     0.24382077    -0.28576542
 h                     0.24382077    -0.90995149    -0.28576542

 ==============================================================================
                                internuclear distances
 ------------------------------------------------------------------------------
       center one      |      center two      | atomic units |  angstroms
 ------------------------------------------------------------------------------
    2 h                |   1 n                |     1.94019  |     1.02670
    3 h                |   1 n                |     1.94019  |     1.02670
    4 h                |   1 n                |     1.94019  |     1.02670
 ------------------------------------------------------------------------------
                         number of included internuclear distances:          3
 ==============================================================================



 ==============================================================================
                                 internuclear angles
 ------------------------------------------------------------------------------
        center 1       |       center 2       |       center 3       |  degrees
 ------------------------------------------------------------------------------
    2 h                |   1 n                |   3 h                |   105.24
    2 h                |   1 n                |   4 h                |   105.24
    3 h                |   1 n                |   4 h                |   105.24
 ------------------------------------------------------------------------------
                            number of included internuclear angles:          3
 ==============================================================================



                      Basis "ao basis" -> "" (spherical)
                      -----
  n (Nitrogen)
  ------------
            Exponent  Coefficients 
       -------------- ---------------------------------------------------------
  1 S  9.04600000E+03  0.000700
  1 S  1.35700000E+03  0.005389
  1 S  3.09300000E+02  0.027406
  1 S  8.77300000E+01  0.103207
  1 S  2.85600000E+01  0.278723
  1 S  1.02100000E+01  0.448540
  1 S  3.83800000E+00  0.278238
  1 S  7.46600000E-01  0.015440

  2 S  9.04600000E+03 -0.000153
  2 S  1.35700000E+03 -0.001208
  2 S  3.09300000E+02 -0.005992
  2 S  8.77300000E+01 -0.024544
  2 S  2.85600000E+01 -0.067459
  2 S  1.02100000E+01 -0.158078
  2 S  3.83800000E+00 -0.121831
  2 S  7.46600000E-01  0.549003

  3 S  2.24800000E-01  1.000000

  4 S  6.12400000E-02  1.000000

  5 P  1.35500000E+01  0.039919
  5 P  2.91700000E+00  0.217169
  5 P  7.97300000E-01  0.510319

  6 P  2.18500000E-01  1.000000

  7 P  5.61100000E-02  1.000000

  8 D  8.17000000E-01  1.000000

  9 D  2.30000000E-01  1.000000

  h (Hydrogen)
  ------------
            Exponent  Coefficients 
       -------------- ---------------------------------------------------------
  1 S  1.30100000E+01  0.019685
  1 S  1.96200000E+00  0.137977
  1 S  4.44600000E-01  0.478148

  2 S  1.22000000E-01  1.000000

  3 S  2.97400000E-02  1.000000

  4 P  7.27000000E-01  1.000000

  5 P  1.41000000E-01  1.000000



 Summary of "ao basis" -> "" (spherical)
 ------------------------------------------------------------------------------
       Tag                 Description            Shells   Functions and Types
 ---------------- ------------------------------  ------  ---------------------
 n                        aug-cc-pvdz                9       23   4s3p2d
 h                        aug-cc-pvdz                5        9   3s2p


                              NWChem Property Module
                              ----------------------


              property calculation for (NH3) - DFT(B3LYP)/aug-cc-pVDZ

  itol2e modified to match energy
  convergence criterion.

                                 NWChem DFT Module
                                 -----------------


              property calculation for (NH3) - DFT(B3LYP)/aug-cc-pVDZ




 Summary of "ao basis" -> "ao basis" (spherical)
 ------------------------------------------------------------------------------
       Tag                 Description            Shells   Functions and Types
 ---------------- ------------------------------  ------  ---------------------
 n                        aug-cc-pvdz                9       23   4s3p2d
 h                        aug-cc-pvdz                5        9   3s2p


  Caching 1-el integrals 
  itol2e modified to match energy
  convergence criterion.

            General Information
            -------------------
          SCF calculation type: DFT
          Wavefunction type:  closed shell.
          No. of atoms     :     4
          No. of electrons :    10
           Alpha electrons :     5
            Beta electrons :     5
          Charge           :     0
          Spin multiplicity:     1
          Use of symmetry is: off; symmetry adaption is: off
          Maximum number of iterations:  30
          AO basis - number of functions:    50
                     number of shells:    24
          Convergence on energy requested:  1.00D-07
          Convergence on density requested:  1.00D-05
          Convergence on gradient requested:  5.00D-04

              XC Information
              --------------
                         B3LYP Method XC Potential
                     Hartree-Fock (Exact) Exchange  0.200          
                        Slater Exchange Functional  0.800 local    
                    Becke 1988 Exchange Functional  0.720 non-local
              Lee-Yang-Parr Correlation Functional  0.810          
                  VWN I RPA Correlation Functional  0.190 local    

             Grid Information
             ----------------
          Grid used for XC integration:  fine      
          Radial quadrature: Mura-Knowles        
          Angular quadrature: Lebedev. 
          Tag              B.-S. Rad. Rad. Pts. Rad. Cut. Ang. Pts.
          ---              ---------- --------- --------- ---------
          n                   0.65       70          10.0       590
          h                   0.35       60          12.0       590
          Grid pruning is: on 
          Number of quadrature shells:   250
          Spatial weights used:  Erf1

          Convergence Information
          -----------------------
          Convergence aids based upon iterative change in 
          total energy or number of iterations. 
          Levelshifting, if invoked, occurs when the 
          HOMO/LUMO gap drops below (HL_TOL):  1.00D-02
          DIIS, if invoked, will attempt to extrapolate 
          using up to (NFOCK): 10 stored Fock matrices.

                    Damping( 0%)  Levelshifting(0.5)       DIIS
                  --------------- ------------------- ---------------
          dE  on:    start            ASAP                start   
          dE off:    2 iters         30 iters            30 iters 


      Screening Tolerance Information
      -------------------------------
          Density screening/tol_rho:  1.00D-11
          AO Gaussian exp screening on grid/accAOfunc:  16
          CD Gaussian exp screening on grid/accCDfunc:  20
          XC Gaussian exp screening on grid/accXCfunc:  20
          Schwarz screening/accCoul:  1.00D-08


      Superposition of Atomic Density Guess
      -------------------------------------

 Sum of atomic energies:         -55.80071540

      Non-variational initial energy
      ------------------------------

 Total energy =     -56.179467
 1-e energy   =     -97.881049
 2-e energy   =      29.904933
 HOMO         =      -0.386981
 LUMO         =       0.013324



 ----------------------------------------------
         Quadratically convergent ROKS

 Convergence threshold     :          5.000E-04
 Maximum no. of iterations :           30
 Final Fock-matrix accuracy:          1.000E-08
 ----------------------------------------------


 Grid_pts file          = ./prop_nh3_dat.gridpts.0
 Record size in doubles =  12289        No. of grid_pts per rec  =   3070
 Max. records in memory =     15        Max. recs in file   = 253312716


              iter       energy          gnorm     gmax       time
             ----- ------------------- --------- --------- --------
                 1      -56.5452768644  6.62D-01  2.10D-01      0.3
                 2      -56.5670859708  2.62D-01  1.00D-01      0.6
                 3      -56.5704401470  5.36D-02  1.79D-02      0.8
                 4      -56.5705956185  5.21D-04  1.67D-04      1.7
                 5      -56.5705956434  3.17D-05  1.00D-05      2.3


         Total DFT energy =      -56.570595643397
      One electron energy =      -99.318933412703
           Coulomb energy =       37.429576508266
    Exchange-Corr. energy =       -6.477888277069
 Nuclear repulsion energy =       11.796649538108

 Numeric. integr. density =       10.000000289760

     Total iterative time =      2.1s



                       DFT Final Molecular Orbital Analysis
                       ------------------------------------

 Vector    1  Occ=2.000000D+00  E=-1.432276D+01
              MO Center=  5.1D-11,  5.1D-11,  1.2D-01, r^2= 2.0D-02
   Bfn.  Coefficient  Atom+Function         Bfn.  Coefficient  Atom+Function  
  ----- ------------  ---------------      ----- ------------  ---------------
     1      1.006027  1 N  s          

 Vector    2  Occ=2.000000D+00  E=-8.564010D-01
              MO Center= -9.7D-09, -9.7D-09, -8.5D-02, r^2= 6.9D-01
   Bfn.  Coefficient  Atom+Function         Bfn.  Coefficient  Atom+Function  
  ----- ------------  ---------------      ----- ------------  ---------------
     2      0.419295  1 N  s                  3      0.250426  1 N  s          
    24      0.200166  2 H  s                 33      0.200166  3 H  s          
    42      0.200166  4 H  s          

 Vector    3  Occ=2.000000D+00  E=-4.609961D-01
              MO Center=  1.3D-01,  1.3D-01, -6.0D-02, r^2= 9.9D-01
   Bfn.  Coefficient  Atom+Function         Bfn.  Coefficient  Atom+Function  
  ----- ------------  ---------------      ----- ------------  ---------------
    24      0.398434  2 H  s                  5      0.336052  1 N  px         
     6      0.336050  1 N  py                25      0.266090  2 H  s          
    33     -0.199218  3 H  s                 42     -0.199216  4 H  s          

 Vector    4  Occ=2.000000D+00  E=-4.609961D-01
              MO Center= -1.3D-01, -1.3D-01, -6.0D-02, r^2= 9.9D-01
   Bfn.  Coefficient  Atom+Function         Bfn.  Coefficient  Atom+Function  
  ----- ------------  ---------------      ----- ------------  ---------------
    33     -0.345054  3 H  s                 42      0.345055  4 H  s          
     5      0.336050  1 N  px                 6     -0.336052  1 N  py         
    34     -0.230440  3 H  s                 43      0.230441  4 H  s          

 Vector    5  Occ=2.000000D+00  E=-2.785316D-01
              MO Center=  9.1D-09,  9.1D-09,  2.5D-01, r^2= 1.0D+00
   Bfn.  Coefficient  Atom+Function         Bfn.  Coefficient  Atom+Function  
  ----- ------------  ---------------      ----- ------------  ---------------
     7      0.543137  1 N  pz                10      0.339431  1 N  pz         
     3      0.298111  1 N  s                  2      0.153226  1 N  s          

 Vector    6  Occ=0.000000D+00  E=-1.897557D-02
              MO Center=  2.3D-06,  2.3D-06, -5.8D-01, r^2= 9.1D+00
   Bfn.  Coefficient  Atom+Function         Bfn.  Coefficient  Atom+Function  
  ----- ------------  ---------------      ----- ------------  ---------------
     4      0.838747  1 N  s                 26     -0.482122  2 H  s          
    35     -0.482119  3 H  s                 44     -0.482119  4 H  s          
     3      0.362035  1 N  s                 25     -0.231679  2 H  s          
    34     -0.231680  3 H  s                 43     -0.231680  4 H  s          

 Vector    7  Occ=0.000000D+00  E= 2.625881D-02
              MO Center= -5.1D-01, -5.1D-01, -5.5D-01, r^2= 1.4D+01
   Bfn.  Coefficient  Atom+Function         Bfn.  Coefficient  Atom+Function  
  ----- ------------  ---------------      ----- ------------  ---------------
    35      2.670235  3 H  s                 44     -2.670235  4 H  s          
    11      0.463573  1 N  px                12     -0.463573  1 N  py         
    34      0.281169  3 H  s                 43     -0.281168  4 H  s          

 Vector    8  Occ=0.000000D+00  E= 2.625887D-02
              MO Center=  5.1D-01,  5.1D-01, -5.5D-01, r^2= 1.4D+01
   Bfn.  Coefficient  Atom+Function         Bfn.  Coefficient  Atom+Function  
  ----- ------------  ---------------      ----- ------------  ---------------
    26      3.083324  2 H  s                 35     -1.541661  3 H  s          
    44     -1.541662  4 H  s                 11     -0.463575  1 N  px         
    12     -0.463575  1 N  py                25      0.324669  2 H  s          
    34     -0.162333  3 H  s                 43     -0.162334  4 H  s          

 Vector    9  Occ=0.000000D+00  E= 8.636637D-02
              MO Center= -2.7D-07, -2.7D-07,  6.2D-01, r^2= 9.5D+00
   Bfn.  Coefficient  Atom+Function         Bfn.  Coefficient  Atom+Function  
  ----- ------------  ---------------      ----- ------------  ---------------
     4      3.123926  1 N  s                 13     -1.635864  1 N  pz         
    25     -0.792673  2 H  s                 34     -0.792678  3 H  s          
    43     -0.792678  4 H  s                 26     -0.551965  2 H  s          
    35     -0.551973  3 H  s                 44     -0.551973  4 H  s          
     3      0.329116  1 N  s                  7      0.240271  1 N  pz         

 Vector   10  Occ=0.000000D+00  E= 1.162640D-01
              MO Center= -4.7D-06, -4.7D-06, -4.0D-01, r^2= 1.1D+01
   Bfn.  Coefficient  Atom+Function         Bfn.  Coefficient  Atom+Function  
  ----- ------------  ---------------      ----- ------------  ---------------
     4      3.968488  1 N  s                 26     -0.814503  2 H  s          
    35     -0.814522  3 H  s                 44     -0.814522  4 H  s          
    25     -0.562139  2 H  s                 34     -0.562152  3 H  s          
    43     -0.562152  4 H  s                 39     -0.282221  3 H  px         
    49     -0.282221  4 H  py                 2     -0.253497  1 N  s          

 Vector   11  Occ=0.000000D+00  E= 1.388519D-01
              MO Center= -2.2D-01, -2.2D-01,  2.5D-01, r^2= 9.8D+00
   Bfn.  Coefficient  Atom+Function         Bfn.  Coefficient  Atom+Function  
  ----- ------------  ---------------      ----- ------------  ---------------
    26      3.286419  2 H  s                 25      2.179112  2 H  s          
    11     -2.020797  1 N  px                12     -2.020795  1 N  py         
    35     -1.643206  3 H  s                 44     -1.643204  4 H  s          
    34     -1.089556  3 H  s                 43     -1.089555  4 H  s          
     8     -0.263344  1 N  px                 9     -0.263344  1 N  py         

 Vector   12  Occ=0.000000D+00  E= 1.388520D-01
              MO Center=  2.2D-01,  2.2D-01,  2.5D-01, r^2= 9.8D+00
   Bfn.  Coefficient  Atom+Function         Bfn.  Coefficient  Atom+Function  
  ----- ------------  ---------------      ----- ------------  ---------------
    35      2.846116  3 H  s                 44     -2.846117  4 H  s          
    11      2.020793  1 N  px                12     -2.020795  1 N  py         
    34      1.887165  3 H  s                 43     -1.887166  4 H  s          
     8      0.263344  1 N  px                 9     -0.263344  1 N  py         
    39      0.199555  3 H  px                49     -0.199555  4 H  py         

 Vector   13  Occ=0.000000D+00  E= 1.612766D-01
              MO Center= -4.7D-01, -4.7D-01, -4.7D-01, r^2= 6.4D+00
   Bfn.  Coefficient  Atom+Function         Bfn.  Coefficient  Atom+Function  
  ----- ------------  ---------------      ----- ------------  ---------------
    35      2.041479  3 H  s                 44     -2.041466  4 H  s          
    11      0.647008  1 N  px                12     -0.647001  1 N  py         
    39      0.511028  3 H  px                49     -0.511026  4 H  py         
    41      0.300523  3 H  pz                50     -0.300521  4 H  pz         
     5     -0.253396  1 N  px                 6      0.253393  1 N  py         

 Vector   14  Occ=0.000000D+00  E= 1.612766D-01
              MO Center=  4.7D-01,  4.7D-01, -4.7D-01, r^2= 6.4D+00
   Bfn.  Coefficient  Atom+Function         Bfn.  Coefficient  Atom+Function  
  ----- ------------  ---------------      ----- ------------  ---------------
    26      2.357284  2 H  s                 35     -1.178631  3 H  s          
    44     -1.178653  4 H  s                 11     -0.646998  1 N  px         
    12     -0.647005  1 N  py                30     -0.406358  2 H  px         
    31     -0.406356  2 H  py                32      0.347012  2 H  pz         
    40      0.270237  3 H  py                48      0.270237  4 H  px         

 Vector   15  Occ=0.000000D+00  E= 2.273280D-01
              MO Center=  1.3D-06,  1.3D-06, -1.3D-01, r^2= 5.2D+00
   Bfn.  Coefficient  Atom+Function         Bfn.  Coefficient  Atom+Function  
  ----- ------------  ---------------      ----- ------------  ---------------
     4      4.522764  1 N  s                 25     -1.638692  2 H  s          
    34     -1.638689  3 H  s                 43     -1.638689  4 H  s          
     3      0.480969  1 N  s                 32     -0.412016  2 H  pz         
    41     -0.412012  3 H  pz                50     -0.412012  4 H  pz         
    26     -0.357382  2 H  s                 35     -0.357382  3 H  s          

 Vector   16  Occ=0.000000D+00  E= 2.331869D-01
              MO Center=  6.9D-02,  6.9D-02, -1.5D-01, r^2= 4.6D+00
   Bfn.  Coefficient  Atom+Function         Bfn.  Coefficient  Atom+Function  
  ----- ------------  ---------------      ----- ------------  ---------------
    32      0.860028  2 H  pz                40     -0.730818  3 H  py         
    48     -0.730818  4 H  px                11      0.565575  1 N  px         
    12      0.565575  1 N  py                25      0.464533  2 H  s          
    26     -0.450947  2 H  s                 41     -0.430016  3 H  pz         
    50     -0.430016  4 H  pz                39     -0.300297  3 H  px         

 Vector   17  Occ=0.000000D+00  E= 2.331870D-01
              MO Center= -6.9D-02, -6.9D-02, -1.5D-01, r^2= 4.6D+00
   Bfn.  Coefficient  Atom+Function         Bfn.  Coefficient  Atom+Function  
  ----- ------------  ---------------      ----- ------------  ---------------
    41      0.744807  3 H  pz                50     -0.744807  4 H  pz         
    30      0.639839  2 H  px                31     -0.639839  2 H  py         
    11     -0.565576  1 N  px                12      0.565576  1 N  py         
    40     -0.482258  3 H  py                48      0.482258  4 H  px         
    34      0.402304  3 H  s                 43     -0.402304  4 H  s          

 Vector   18  Occ=0.000000D+00  E= 3.477544D-01
              MO Center=  3.8D-07,  3.8D-07, -1.3D-01, r^2= 6.7D+00
   Bfn.  Coefficient  Atom+Function         Bfn.  Coefficient  Atom+Function  
  ----- ------------  ---------------      ----- ------------  ---------------
     4      5.832123  1 N  s                 25     -2.091115  2 H  s          
    34     -2.091115  3 H  s                 43     -2.091115  4 H  s          
    13     -1.987646  1 N  pz                10     -1.122147  1 N  pz         
    32      0.730485  2 H  pz                41      0.730482  3 H  pz         
    50      0.730482  4 H  pz                 3      0.531351  1 N  s          

 Vector   19  Occ=0.000000D+00  E= 4.181531D-01
              MO Center=  2.7D-07,  2.7D-07, -2.9D-01, r^2= 5.0D+00
   Bfn.  Coefficient  Atom+Function         Bfn.  Coefficient  Atom+Function  
  ----- ------------  ---------------      ----- ------------  ---------------
    40      1.473974  3 H  py                48     -1.473974  4 H  px         
    30      1.079025  2 H  px                31     -1.079025  2 H  py         
    39      0.394951  3 H  px                49     -0.394951  4 H  py         

 Vector   20  Occ=0.000000D+00  E= 4.237059D-01
              MO Center= -1.8D-02, -1.8D-02,  2.2D-02, r^2= 6.5D+00
   Bfn.  Coefficient  Atom+Function         Bfn.  Coefficient  Atom+Function  
  ----- ------------  ---------------      ----- ------------  ---------------
    11      2.051457  1 N  px                12      2.051457  1 N  py         
    26     -2.054576  2 H  s                 32     -1.215123  2 H  pz         
    35      1.027287  3 H  s                 44      1.027287  4 H  s          
    25     -0.930864  2 H  s                 40     -0.917168  3 H  py         
    48     -0.917168  4 H  px                39     -0.763505  3 H  px         

 Vector   21  Occ=0.000000D+00  E= 4.237060D-01
              MO Center=  1.8D-02,  1.8D-02,  2.2D-02, r^2= 6.5D+00
   Bfn.  Coefficient  Atom+Function         Bfn.  Coefficient  Atom+Function  
  ----- ------------  ---------------      ----- ------------  ---------------
    11      2.051459  1 N  px                12     -2.051459  1 N  py         
    35      1.779317  3 H  s                 44     -1.779317  4 H  s          
    41      1.052330  3 H  pz                50     -1.052330  4 H  pz         
    30     -0.884694  2 H  px                31      0.884694  2 H  py         
    40      0.828450  3 H  py                48     -0.828450  4 H  px         

 Vector   22  Occ=0.000000D+00  E= 4.837829D-01
              MO Center=  8.5D-07,  8.5D-07, -3.3D-01, r^2= 5.8D+00
   Bfn.  Coefficient  Atom+Function         Bfn.  Coefficient  Atom+Function  
  ----- ------------  ---------------      ----- ------------  ---------------
     3      4.644833  1 N  s                  4      3.912914  1 N  s          
    25     -1.986135  2 H  s                 34     -1.986133  3 H  s          
    43     -1.986133  4 H  s                 39     -1.231621  3 H  px         
    49     -1.231621  4 H  py                30      0.901609  2 H  px         
    31      0.901609  2 H  py                32     -0.753993  2 H  pz         

 Vector   23  Occ=0.000000D+00  E= 5.179392D-01
              MO Center=  4.3D-01,  4.3D-01, -3.0D-01, r^2= 4.5D+00
   Bfn.  Coefficient  Atom+Function         Bfn.  Coefficient  Atom+Function  
  ----- ------------  ---------------      ----- ------------  ---------------
    25      6.895109  2 H  s                 34     -3.447578  3 H  s          
    43     -3.447530  4 H  s                 30     -2.744335  2 H  px         
    31     -2.744332  2 H  py                39     -1.988051  3 H  px         
    49     -1.988026  4 H  py                 8     -1.374012  1 N  px         
     9     -1.374001  1 N  py                26      1.184368  2 H  s          

 Vector   24  Occ=0.000000D+00  E= 5.179393D-01
              MO Center= -4.3D-01, -4.3D-01, -3.0D-01, r^2= 4.5D+00
   Bfn.  Coefficient  Atom+Function         Bfn.  Coefficient  Atom+Function  
  ----- ------------  ---------------      ----- ------------  ---------------
    34      5.971302  3 H  s                 43     -5.971329  4 H  s          
    39      3.180964  3 H  px                49     -3.180980  4 H  py         
     8      1.373997  1 N  px                 9     -1.374008  1 N  py         
    40     -1.114740  3 H  py                48      1.114740  4 H  px         
    35      1.025689  3 H  s                 44     -1.025693  4 H  s          

 Vector   25  Occ=0.000000D+00  E= 5.396777D-01
              MO Center=  3.8D-05,  3.8D-05, -1.8D-01, r^2= 4.4D+00
   Bfn.  Coefficient  Atom+Function         Bfn.  Coefficient  Atom+Function  
  ----- ------------  ---------------      ----- ------------  ---------------
    25      8.290332  2 H  s                 34     -4.145177  3 H  s          
    43     -4.145152  4 H  s                 30     -2.245208  2 H  px         
    31     -2.245205  2 H  py                39     -1.780403  3 H  px         
    49     -1.780394  4 H  py                 8     -1.158289  1 N  px         
     9     -1.158285  1 N  py                11     -0.864950  1 N  px         

 Vector   26  Occ=0.000000D+00  E= 5.396779D-01
              MO Center= -3.8D-05, -3.8D-05, -1.8D-01, r^2= 4.4D+00
   Bfn.  Coefficient  Atom+Function         Bfn.  Coefficient  Atom+Function  
  ----- ------------  ---------------      ----- ------------  ---------------
    34      7.179649  3 H  s                 43     -7.179663  4 H  s          
    39      2.513571  3 H  px                49     -2.513578  4 H  py         
    40     -1.243690  3 H  py                48      1.243688  4 H  px         
     8      1.158288  1 N  px                 9     -1.158292  1 N  py         
    11      0.864947  1 N  px                12     -0.864950  1 N  py         

 Vector   27  Occ=0.000000D+00  E= 6.796088D-01
              MO Center=  2.7D-07,  2.7D-07,  3.1D-01, r^2= 3.5D+00
   Bfn.  Coefficient  Atom+Function         Bfn.  Coefficient  Atom+Function  
  ----- ------------  ---------------      ----- ------------  ---------------
     4      3.988571  1 N  s                 25     -1.812502  2 H  s          
    34     -1.812508  3 H  s                 43     -1.812508  4 H  s          
    21     -1.353575  1 N  d  0               3      1.110334  1 N  s          
    32     -0.625812  2 H  pz                41     -0.625812  3 H  pz         
    50     -0.625812  4 H  pz                26     -0.284613  2 H  s          

 Vector   28  Occ=0.000000D+00  E= 7.494592D-01
              MO Center=  9.7D-03,  9.7D-03,  7.1D-02, r^2= 3.1D+00
   Bfn.  Coefficient  Atom+Function         Bfn.  Coefficient  Atom+Function  
  ----- ------------  ---------------      ----- ------------  ---------------
    25      2.341542  2 H  s                 19     -1.212143  1 N  d -2       
    34     -1.170772  3 H  s                 43     -1.170770  4 H  s          
    32      0.996032  2 H  pz                40     -0.911087  3 H  py         
    48     -0.911088  4 H  px                20     -0.849322  1 N  d -1       
    22      0.849323  1 N  d  1              39     -0.731645  3 H  px         

 Vector   29  Occ=0.000000D+00  E= 7.494593D-01
              MO Center= -9.7D-03, -9.7D-03,  7.1D-02, r^2= 3.1D+00
   Bfn.  Coefficient  Atom+Function         Bfn.  Coefficient  Atom+Function  
  ----- ------------  ---------------      ----- ------------  ---------------
    34      2.027834  3 H  s                 43     -2.027835  4 H  s          
    23     -1.212143  1 N  d  2              30      0.873166  2 H  px         
    31     -0.873167  2 H  py                41      0.862589  3 H  pz         
    50     -0.862589  4 H  pz                20     -0.849323  1 N  d -1       
    22     -0.849322  1 N  d  1              40     -0.807486  3 H  py         

 Vector   30  Occ=0.000000D+00  E= 8.960980D-01
              MO Center=  1.5D-07,  1.5D-07, -1.8D-01, r^2= 2.9D+00
   Bfn.  Coefficient  Atom+Function         Bfn.  Coefficient  Atom+Function  
  ----- ------------  ---------------      ----- ------------  ---------------
     4      3.540748  1 N  s                 25     -2.101204  2 H  s          
    34     -2.101203  3 H  s                 43     -2.101203  4 H  s          
     3      1.957697  1 N  s                 13     -0.960158  1 N  pz         
    24      0.792202  2 H  s                 33      0.792202  3 H  s          
    42      0.792202  4 H  s                 21      0.608123  1 N  d  0       

 Vector   31  Occ=0.000000D+00  E= 9.683286D-01
              MO Center= -3.7D-02, -3.7D-02,  1.8D-01, r^2= 2.5D+00
   Bfn.  Coefficient  Atom+Function         Bfn.  Coefficient  Atom+Function  
  ----- ------------  ---------------      ----- ------------  ---------------
    25      4.433300  2 H  s                 34     -2.216655  3 H  s          
    43     -2.216647  4 H  s                  8     -1.640528  1 N  px         
     9     -1.640524  1 N  py                30     -1.105622  2 H  px         
    31     -1.105622  2 H  py                32      0.841944  2 H  pz         
    19      0.767132  1 N  d -2              39     -0.700224  3 H  px         

 Vector   32  Occ=0.000000D+00  E= 9.683286D-01
              MO Center=  3.7D-02,  3.7D-02,  1.8D-01, r^2= 2.5D+00
   Bfn.  Coefficient  Atom+Function         Bfn.  Coefficient  Atom+Function  
  ----- ------------  ---------------      ----- ------------  ---------------
    34      3.839351  3 H  s                 43     -3.839355  4 H  s          
     8      1.640525  1 N  px                 9     -1.640528  1 N  py         
    39      1.339680  3 H  px                49     -1.339681  4 H  py         
    23      0.767131  1 N  d  2              41      0.729145  3 H  pz         
    50     -0.729146  4 H  pz                33     -0.487639  3 H  s          

 Vector   33  Occ=0.000000D+00  E= 1.090849D+00
              MO Center=  1.1D-07,  1.1D-07,  7.7D-02, r^2= 2.5D+00
   Bfn.  Coefficient  Atom+Function         Bfn.  Coefficient  Atom+Function  
  ----- ------------  ---------------      ----- ------------  ---------------
     4      3.338035  1 N  s                 10     -2.528691  1 N  pz         
    25     -1.327814  2 H  s                 34     -1.327814  3 H  s          
    43     -1.327814  4 H  s                  7      0.998504  1 N  pz         
    13     -0.863730  1 N  pz                 3      0.671097  1 N  s          
    32      0.643238  2 H  pz                41      0.643238  3 H  pz         

 Vector   34  Occ=0.000000D+00  E= 1.551486D+00
              MO Center= -3.1D-02, -3.1D-02,  9.9D-02, r^2= 2.5D+00
   Bfn.  Coefficient  Atom+Function         Bfn.  Coefficient  Atom+Function  
  ----- ------------  ---------------      ----- ------------  ---------------
    25      5.026950  2 H  s                 34     -2.513484  3 H  s          
    43     -2.513465  4 H  s                  8     -2.317067  1 N  px         
     9     -2.317057  1 N  py                19     -1.258293  1 N  d -2       
    24      1.178242  2 H  s                 11     -1.153068  1 N  px         
    12     -1.153063  1 N  py                26      1.050600  2 H  s          

 Vector   35  Occ=0.000000D+00  E= 1.551486D+00
              MO Center=  3.1D-02,  3.1D-02,  9.9D-02, r^2= 2.5D+00
   Bfn.  Coefficient  Atom+Function         Bfn.  Coefficient  Atom+Function  
  ----- ------------  ---------------      ----- ------------  ---------------
    34      4.353461  3 H  s                 43     -4.353472  4 H  s          
     8      2.317057  1 N  px                 9     -2.317067  1 N  py         
    23     -1.258293  1 N  d  2              11      1.153063  1 N  px         
    12     -1.153068  1 N  py                39      1.047666  3 H  px         
    49     -1.047668  4 H  py                33      1.020387  3 H  s          

 Vector   36  Occ=0.000000D+00  E= 1.678139D+00
              MO Center= -4.2D-08, -4.2D-08, -2.9D-01, r^2= 1.8D+00
   Bfn.  Coefficient  Atom+Function         Bfn.  Coefficient  Atom+Function  
  ----- ------------  ---------------      ----- ------------  ---------------
    37      0.659053  3 H  py                45     -0.659053  4 H  px         
    40     -0.626924  3 H  py                48      0.626924  4 H  px         
    27      0.482460  2 H  px                28     -0.482460  2 H  py         
    30     -0.458941  2 H  px                31      0.458941  2 H  py         
    36      0.176593  3 H  px                46     -0.176593  4 H  py         

 Vector   37  Occ=0.000000D+00  E= 1.796641D+00
              MO Center=  2.0D-01,  2.0D-01, -1.2D-01, r^2= 1.9D+00
   Bfn.  Coefficient  Atom+Function         Bfn.  Coefficient  Atom+Function  
  ----- ------------  ---------------      ----- ------------  ---------------
    25      4.312461  2 H  s                 34     -2.156229  3 H  s          
    43     -2.156224  4 H  s                 19     -1.522937  1 N  d -2       
    30     -1.274879  2 H  px                31     -1.274878  2 H  py         
     8     -1.169488  1 N  px                 9     -1.169487  1 N  py         
    39     -1.072103  3 H  px                49     -1.072101  4 H  py         

 Vector   38  Occ=0.000000D+00  E= 1.796641D+00
              MO Center= -2.0D-01, -2.0D-01, -1.2D-01, r^2= 1.9D+00
   Bfn.  Coefficient  Atom+Function         Bfn.  Coefficient  Atom+Function  
  ----- ------------  ---------------      ----- ------------  ---------------
    34      3.734696  3 H  s                 43     -3.734699  4 H  s          
    23     -1.522936  1 N  d  2              39      1.391949  3 H  px         
    49     -1.391951  4 H  py                 8      1.169485  1 N  px         
     9     -1.169487  1 N  py                40     -0.837958  3 H  py         
    48      0.837957  4 H  px                38      0.769725  3 H  pz         

 Vector   39  Occ=0.000000D+00  E= 1.844554D+00
              MO Center= -1.2D-06, -1.2D-06, -2.7D-01, r^2= 1.8D+00
   Bfn.  Coefficient  Atom+Function         Bfn.  Coefficient  Atom+Function  
  ----- ------------  ---------------      ----- ------------  ---------------
     3      3.747673  1 N  s                  4      2.171587  1 N  s          
    25     -1.447559  2 H  s                 34     -1.447576  3 H  s          
    43     -1.447576  4 H  s                 21     -1.159318  1 N  d  0       
     2     -0.931474  1 N  s                 29     -0.677670  2 H  pz         
    38     -0.677673  3 H  pz                47     -0.677673  4 H  pz         

 Vector   40  Occ=0.000000D+00  E= 2.027530D+00
              MO Center=  9.7D-02,  9.7D-02, -1.8D-01, r^2= 1.6D+00
   Bfn.  Coefficient  Atom+Function         Bfn.  Coefficient  Atom+Function  
  ----- ------------  ---------------      ----- ------------  ---------------
    25      1.387005  2 H  s                  8     -0.910713  1 N  px         
     9     -0.910712  1 N  py                34     -0.693503  3 H  s          
    43     -0.693502  4 H  s                 20      0.688834  1 N  d -1       
    22     -0.688834  1 N  d  1              24      0.661142  2 H  s          
    37      0.600954  3 H  py                45      0.600954  4 H  px         

 Vector   41  Occ=0.000000D+00  E= 2.027530D+00
              MO Center= -9.7D-02, -9.7D-02, -1.8D-01, r^2= 1.6D+00
   Bfn.  Coefficient  Atom+Function         Bfn.  Coefficient  Atom+Function  
  ----- ------------  ---------------      ----- ------------  ---------------
    34      1.201180  3 H  s                 43     -1.201180  4 H  s          
     8      0.910712  1 N  px                 9     -0.910712  1 N  py         
    20      0.688834  1 N  d -1              22      0.688833  1 N  d  1       
    36      0.587110  3 H  px                46     -0.587110  4 H  py         
    33      0.572565  3 H  s                 42     -0.572566  4 H  s          

 Vector   42  Occ=0.000000D+00  E= 2.075759D+00
              MO Center=  9.7D-02,  9.7D-02, -1.9D-01, r^2= 1.7D+00
   Bfn.  Coefficient  Atom+Function         Bfn.  Coefficient  Atom+Function  
  ----- ------------  ---------------      ----- ------------  ---------------
    25      4.229317  2 H  s                  8     -2.215494  1 N  px         
     9     -2.215488  1 N  py                34     -2.114666  3 H  s          
    43     -2.114658  4 H  s                 30     -1.294593  2 H  px         
    31     -1.294593  2 H  py                24      0.940809  2 H  s          
    39     -0.897841  3 H  px                49     -0.897838  4 H  py         

 Vector   43  Occ=0.000000D+00  E= 2.075759D+00
              MO Center= -9.7D-02, -9.7D-02, -1.9D-01, r^2= 1.7D+00
   Bfn.  Coefficient  Atom+Function         Bfn.  Coefficient  Atom+Function  
  ----- ------------  ---------------      ----- ------------  ---------------
    34      3.662696  3 H  s                 43     -3.662701  4 H  s          
     8      2.215489  1 N  px                 9     -2.215494  1 N  py         
    39      1.523659  3 H  px                49     -1.523661  4 H  py         
    33      0.814765  3 H  s                 42     -0.814766  4 H  s          
    20      0.749226  1 N  d -1              22      0.749225  1 N  d  1       

 Vector   44  Occ=0.000000D+00  E= 2.087333D+00
              MO Center=  8.2D-07,  8.2D-07, -1.3D-01, r^2= 2.1D+00
   Bfn.  Coefficient  Atom+Function         Bfn.  Coefficient  Atom+Function  
  ----- ------------  ---------------      ----- ------------  ---------------
     3      7.294448  1 N  s                  4      2.898837  1 N  s          
     2     -2.445246  1 N  s                 25     -2.103030  2 H  s          
    34     -2.103020  3 H  s                 43     -2.103020  4 H  s          
    10     -1.472528  1 N  pz                 1     -1.201563  1 N  s          
    39     -0.903726  3 H  px                49     -0.903726  4 H  py         

 Vector   45  Occ=0.000000D+00  E= 2.351433D+00
              MO Center= -4.0D-08, -4.0D-08, -2.1D-02, r^2= 1.6D+00
   Bfn.  Coefficient  Atom+Function         Bfn.  Coefficient  Atom+Function  
  ----- ------------  ---------------      ----- ------------  ---------------
     3      3.629107  1 N  s                  4      2.576169  1 N  s          
    25     -1.550885  2 H  s                 34     -1.550885  3 H  s          
    43     -1.550885  4 H  s                 10     -1.145185  1 N  pz         
    16      0.818455  1 N  d  0              36     -0.639015  3 H  px         
    46     -0.639015  4 H  py                24     -0.574004  2 H  s          

 Vector   46  Occ=0.000000D+00  E= 2.558617D+00
              MO Center= -4.1D-02, -4.1D-02,  1.2D-02, r^2= 1.2D+00
   Bfn.  Coefficient  Atom+Function         Bfn.  Coefficient  Atom+Function  
  ----- ------------  ---------------      ----- ------------  ---------------
    25      1.377029  2 H  s                 14      0.937707  1 N  d -2       
    34     -0.688515  3 H  s                 43     -0.688514  4 H  s          
     8     -0.665275  1 N  px                 9     -0.665275  1 N  py         
    15      0.552413  1 N  d -1              17     -0.552414  1 N  d  1       
    37      0.549165  3 H  py                45      0.549165  4 H  px         

 Vector   47  Occ=0.000000D+00  E= 2.558617D+00
              MO Center=  4.1D-02,  4.1D-02,  1.2D-02, r^2= 1.2D+00
   Bfn.  Coefficient  Atom+Function         Bfn.  Coefficient  Atom+Function  
  ----- ------------  ---------------      ----- ------------  ---------------
    34      1.192542  3 H  s                 43     -1.192542  4 H  s          
    18      0.937707  1 N  d  2               8      0.665275  1 N  px         
     9     -0.665275  1 N  py                15      0.552413  1 N  d -1       
    17      0.552413  1 N  d  1              27     -0.460459  2 H  px         
    28      0.460459  2 H  py                23     -0.420919  1 N  d  2       

 Vector   48  Occ=0.000000D+00  E= 2.727221D+00
              MO Center= -2.4D-08, -2.4D-08, -1.8D-01, r^2= 1.5D+00
   Bfn.  Coefficient  Atom+Function         Bfn.  Coefficient  Atom+Function  
  ----- ------------  ---------------      ----- ------------  ---------------
     3      4.991685  1 N  s                  4      2.370854  1 N  s          
    25     -1.625365  2 H  s                 34     -1.625364  3 H  s          
    43     -1.625364  4 H  s                 10     -1.593167  1 N  pz         
    24     -1.076016  2 H  s                 33     -1.076016  3 H  s          
    42     -1.076016  4 H  s                 16     -0.976033  1 N  d  0       

 Vector   49  Occ=0.000000D+00  E= 3.133608D+00
              MO Center=  6.0D-02,  6.0D-02,  3.4D-02, r^2= 1.3D+00
   Bfn.  Coefficient  Atom+Function         Bfn.  Coefficient  Atom+Function  
  ----- ------------  ---------------      ----- ------------  ---------------
    25      3.637350  2 H  s                  8     -2.390957  1 N  px         
     9     -2.390955  1 N  py                24      2.027231  2 H  s          
    34     -1.818676  3 H  s                 43     -1.818673  4 H  s          
    14     -1.106640  1 N  d -2              33     -1.013616  3 H  s          
    42     -1.013615  4 H  s                 30     -0.781494  2 H  px         

 Vector   50  Occ=0.000000D+00  E= 3.133608D+00
              MO Center= -6.0D-02, -6.0D-02,  3.4D-02, r^2= 1.3D+00
   Bfn.  Coefficient  Atom+Function         Bfn.  Coefficient  Atom+Function  
  ----- ------------  ---------------      ----- ------------  ---------------
    34      3.150037  3 H  s                 43     -3.150038  4 H  s          
     8      2.390955  1 N  px                 9     -2.390957  1 N  py         
    33      1.755633  3 H  s                 42     -1.755634  4 H  s          
    18     -1.106640  1 N  d  2              39      0.945641  3 H  px         
    49     -0.945641  4 H  py                36      0.930741  3 H  px         


          -----------------------------------------
          Chemical Shielding Tensors (GIAO, in ppm)
          -----------------------------------------


 Grid_pts file          = ./prop_nh3_dat.gridpts.0
 Record size in doubles =  12289        No. of grid_pts per rec  =   3070
 Max. records in memory =     15        Max. recs in file   = 253312716

    0 giaofock schwarz done =     100.00%
    0 giaofock schwarz done =     100.00%
                                NWChem CPHF Module
                                ------------------


  scftype          =     RHF 
  nclosed          =        5
  nopen            =        0
  variables        =      225
  # of vectors     =        3
  tolerance        = 0.10D-03
  level shift      = 0.00D+00
  max iterations   =       50
  max subspace     =       30

 SCF residual:    3.1727449050150630E-005


Iterative solution of linear equations
  No. of variables      225
  No. of equations        3
  Maximum subspace       30
        Iterations       50
       Convergence  1.0D-04
        Start time      3.5


   iter   nsub   residual    time
   ----  ------  --------  ---------
     1      3    1.24D-01       4.0
     2      6    7.07D-03       4.5
     3      9    1.16D-04       4.9
     4     12    5.77D-06       5.4

 Wrote CPHF data to ./prop_nh3_dat.shieldcphf

 Calc. par tensor-> nonrel
      Atom:    1  N 
        Diamagnetic
    297.4728      0.0000     -0.0000
      0.0000    297.4728     -0.0000
     -0.0000     -0.0000    267.8703

        Paramagnetic
    -20.6919     -0.0000     -0.0000
     -0.0000    -20.6919     -0.0000
     -0.0000     -0.0000    -28.5776

        Total Shielding Tensor
    276.7809      0.0000     -0.0000
      0.0000    276.7809     -0.0000
     -0.0000     -0.0000    239.2926

           isotropic =     264.2848
          anisotropy =      18.7442

          Principal Components and Axis System
                 1           2           3
              276.7809    276.7809    239.2926

      1         0.7071      0.7071      0.0000
      2         0.7071     -0.7071      0.0000
      3        -0.0000     -0.0000      1.0000



      Atom:    2  H 
        Diamagnetic
     31.8726      4.2263     -2.0031
      4.2263     31.8726     -2.0031
     -2.0031     -2.0031     24.3355

        Paramagnetic
      1.6378      1.9523     -1.0960
      1.9523      1.6378     -1.0960
     -1.0960     -1.0960      3.3730

        Total Shielding Tensor
     33.5105      6.1786     -3.0991
      6.1786     33.5105     -3.0991
     -3.0991     -3.0991     27.7085

           isotropic =      31.5765
          anisotropy =      14.3170

          Principal Components and Axis System
                 1           2           3
               41.1212     27.3319     26.2764

      1         0.6721      0.7071      0.2196
      2         0.6721     -0.7071      0.2196
      3        -0.3106      0.0000      0.9505



      Atom:    3  H 
        Diamagnetic
     35.5327     -2.1131      2.7363
     -2.1131     28.2126     -0.7332
      2.7363     -0.7332     24.3355

        Paramagnetic
      3.3286     -0.9761      1.4972
     -0.9761     -0.0529     -0.4012
      1.4972     -0.4012      3.3731

        Total Shielding Tensor
     38.8612     -3.0893      4.2335
     -3.0893     28.1597     -1.1344
      4.2335     -1.1344     27.7085

           isotropic =      31.5765
          anisotropy =      14.3170

          Principal Components and Axis System
                 1           2           3
               41.1212     27.3319     26.2764

      1         0.9182      0.2588     -0.3000
      2        -0.2460      0.9659      0.0804
      3         0.3106     -0.0000      0.9505



      Atom:    4  H 
        Diamagnetic
     28.2126     -2.1131     -0.7332
     -2.1131     35.5327      2.7363
     -0.7332      2.7363     24.3355

        Paramagnetic
     -0.0529     -0.9761     -0.4012
     -0.9761      3.3286      1.4972
     -0.4012      1.4972      3.3731

        Total Shielding Tensor
     28.1597     -3.0893     -1.1344
     -3.0893     38.8612      4.2335
     -1.1344      4.2335     27.7085

           isotropic =      31.5765
          anisotropy =      14.3170

          Principal Components and Axis System
                 1           2           3
               41.1212     27.3319     26.2764

      1        -0.2460      0.9659      0.0804
      2         0.9182      0.2588     -0.3000
      3         0.3106     -0.0000      0.9505




 Task  times  cpu:        5.5s     wall:        5.5s


                                NWChem Input Module
                                -------------------


                              NWChem Property Module
                              ----------------------


              property calculation for (NH3) - DFT(B3LYP)/aug-cc-pVDZ

  itol2e modified to match energy
  convergence criterion.

                                 NWChem DFT Module
                                 -----------------


              property calculation for (NH3) - DFT(B3LYP)/aug-cc-pVDZ




 Summary of "ao basis" -> "ao basis" (spherical)
 ------------------------------------------------------------------------------
       Tag                 Description            Shells   Functions and Types
 ---------------- ------------------------------  ------  ---------------------
 n                        aug-cc-pvdz                9       23   4s3p2d
 h                        aug-cc-pvdz                5        9   3s2p


  Caching 1-el integrals 
  itol2e modified to match energy
  convergence criterion.

            General Information
            -------------------
          SCF calculation type: DFT
          Wavefunction type:  spin polarized.
          No. of atoms     :     4
          No. of electrons :    10
           Alpha electrons :     5
            Beta electrons :     5
          Charge           :     0
          Spin multiplicity:     1
          Use of symmetry is: off; symmetry adaption is: off
          Maximum number of iterations:  30
          AO basis - number of functions:    50
                     number of shells:    24
          Convergence on energy requested:  1.00D-07
          Convergence on density requested:  1.00D-05
          Convergence on gradient requested:  5.00D-04

              XC Information
              --------------
                         B3LYP Method XC Potential
                     Hartree-Fock (Exact) Exchange  0.200          
                        Slater Exchange Functional  0.800 local    
                    Becke 1988 Exchange Functional  0.720 non-local
              Lee-Yang-Parr Correlation Functional  0.810          
                  VWN I RPA Correlation Functional  0.190 local    

             Grid Information
             ----------------
          Grid used for XC integration:  fine      
          Radial quadrature: Mura-Knowles        
          Angular quadrature: Lebedev. 
          Tag              B.-S. Rad. Rad. Pts. Rad. Cut. Ang. Pts.
          ---              ---------- --------- --------- ---------
          n                   0.65       70          10.0       590
          h                   0.35       60          12.0       590
          Grid pruning is: on 
          Number of quadrature shells:   250
          Spatial weights used:  Erf1

          Convergence Information
          -----------------------
          Convergence aids based upon iterative change in 
          total energy or number of iterations. 
          Levelshifting, if invoked, occurs when the 
          HOMO/LUMO gap drops below (HL_TOL):  1.00D-02
          DIIS, if invoked, will attempt to extrapolate 
          using up to (NFOCK): 10 stored Fock matrices.

                    Damping( 0%)  Levelshifting(0.5)       DIIS
                  --------------- ------------------- ---------------
          dE  on:    start            ASAP                start   
          dE off:    2 iters         30 iters            30 iters 


      Screening Tolerance Information
      -------------------------------
          Density screening/tol_rho:  1.00D-11
          AO Gaussian exp screening on grid/accAOfunc:  16
          CD Gaussian exp screening on grid/accCDfunc:  20
          XC Gaussian exp screening on grid/accXCfunc:  20
          Schwarz screening/accCoul:  1.00D-08

  movecs_read: failing reading from ./prop_nh3_dat.movecs
   Duplicating RHF/ROHF vectors for UHF

 Loading old vectors from job with title :

property calculation for (NH3) - DFT(B3LYP)/aug-cc-pVDZ



 ----------------------------------------------
         Quadratically convergent UKS

 Convergence threshold     :          5.000E-04
 Maximum no. of iterations :           30
 Integral*density screening:          1.000E-08
 ----------------------------------------------


 Grid_pts file          = ./prop_nh3_dat.gridpts.0
 Record size in doubles =  12289        No. of grid_pts per rec  =   3070
 Max. records in memory =     15        Max. recs in file   = 253312716


              iter       energy          gnorm     gmax       time
             ----- ------------------- --------- --------- --------
                 1      -56.5705956433  2.24D-05  5.01D-06      5.8


         Total DFT energy =      -56.570595643296
      One electron energy =      -99.318933412703
           Coulomb energy =       38.956010349377
    Exchange-Corr. energy =       -8.004322118079
 Nuclear repulsion energy =       11.796649538108

 Numeric. integr. density =       10.000000289760

     Total iterative time =      0.2s



                    DFT Final Alpha Molecular Orbital Analysis
                    ------------------------------------------

 Vector    1  Occ=1.000000D+00  E=-1.432276D+01
              MO Center=  5.1D-11,  5.1D-11,  1.2D-01, r^2= 2.0D-02
   Bfn.  Coefficient  Atom+Function         Bfn.  Coefficient  Atom+Function  
  ----- ------------  ---------------      ----- ------------  ---------------
     1      1.006027  1 N  s                  3     -0.025263  1 N  s          

 Vector    2  Occ=1.000000D+00  E=-8.564010D-01
              MO Center= -9.7D-09, -9.7D-09, -8.5D-02, r^2= 6.9D-01
   Bfn.  Coefficient  Atom+Function         Bfn.  Coefficient  Atom+Function  
  ----- ------------  ---------------      ----- ------------  ---------------
     2      0.419295  1 N  s                  3      0.250426  1 N  s          
    24      0.200166  2 H  s                 33      0.200166  3 H  s          
    42      0.200166  4 H  s                  7     -0.098420  1 N  pz         
     4      0.032211  1 N  s                 36      0.031549  3 H  px         
    46      0.031549  4 H  py         

 Vector    3  Occ=1.000000D+00  E=-4.609961D-01
              MO Center=  1.3D-01,  1.3D-01, -6.0D-02, r^2= 9.9D-01
   Bfn.  Coefficient  Atom+Function         Bfn.  Coefficient  Atom+Function  
  ----- ------------  ---------------      ----- ------------  ---------------
    24      0.398434  2 H  s                  5      0.336051  1 N  px         
     6      0.336050  1 N  py                25      0.266090  2 H  s          
    33     -0.199218  3 H  s                 42     -0.199216  4 H  s          
    34     -0.133045  3 H  s                 43     -0.133044  4 H  s          
     8      0.085865  1 N  px                 9      0.085865  1 N  py         

 Vector    4  Occ=1.000000D+00  E=-4.609961D-01
              MO Center= -1.3D-01, -1.3D-01, -6.0D-02, r^2= 9.9D-01
   Bfn.  Coefficient  Atom+Function         Bfn.  Coefficient  Atom+Function  
  ----- ------------  ---------------      ----- ------------  ---------------
    33     -0.345054  3 H  s                 42      0.345055  4 H  s          
     5      0.336050  1 N  px                 6     -0.336051  1 N  py         
    34     -0.230440  3 H  s                 43      0.230441  4 H  s          
     8      0.085865  1 N  px                 9     -0.085865  1 N  py         
    39     -0.039590  3 H  px                49      0.039590  4 H  py         

 Vector    5  Occ=1.000000D+00  E=-2.785316D-01
              MO Center=  9.1D-09,  9.1D-09,  2.5D-01, r^2= 1.0D+00
   Bfn.  Coefficient  Atom+Function         Bfn.  Coefficient  Atom+Function  
  ----- ------------  ---------------      ----- ------------  ---------------
     7      0.543137  1 N  pz                10      0.339431  1 N  pz         
     3      0.298111  1 N  s                  2      0.153226  1 N  s          
     4      0.108947  1 N  s                 24     -0.103722  2 H  s          
    33     -0.103722  3 H  s                 42     -0.103722  4 H  s          
    13      0.086882  1 N  pz                25     -0.057621  2 H  s          

 Vector    6  Occ=0.000000D+00  E=-1.897538D-02
              MO Center=  2.6D-06,  2.6D-06, -5.8D-01, r^2= 9.1D+00
   Bfn.  Coefficient  Atom+Function         Bfn.  Coefficient  Atom+Function  
  ----- ------------  ---------------      ----- ------------  ---------------
     4      0.838720  1 N  s                 26     -0.482118  2 H  s          
    35     -0.482114  3 H  s                 44     -0.482114  4 H  s          
     3      0.362030  1 N  s                 25     -0.231672  2 H  s          
    34     -0.231673  3 H  s                 43     -0.231673  4 H  s          
     2      0.135377  1 N  s                 10     -0.120803  1 N  pz         

 Vector    7  Occ=0.000000D+00  E= 2.625906D-02
              MO Center= -5.1D-01, -5.1D-01, -5.5D-01, r^2= 1.4D+01
   Bfn.  Coefficient  Atom+Function         Bfn.  Coefficient  Atom+Function  
  ----- ------------  ---------------      ----- ------------  ---------------
    35      2.670224  3 H  s                 44     -2.670224  4 H  s          
    11      0.463566  1 N  px                12     -0.463566  1 N  py         
    34      0.281162  3 H  s                 43     -0.281162  4 H  s          
     8      0.135233  1 N  px                 9     -0.135233  1 N  py         
     5      0.104087  1 N  px                 6     -0.104087  1 N  py         

 Vector    8  Occ=0.000000D+00  E= 2.625914D-02
              MO Center=  5.1D-01,  5.1D-01, -5.5D-01, r^2= 1.4D+01
   Bfn.  Coefficient  Atom+Function         Bfn.  Coefficient  Atom+Function  
  ----- ------------  ---------------      ----- ------------  ---------------
    26      3.083311  2 H  s                 35     -1.541655  3 H  s          
    44     -1.541655  4 H  s                 11     -0.463568  1 N  px         
    12     -0.463568  1 N  py                25      0.324661  2 H  s          
    34     -0.162329  3 H  s                 43     -0.162329  4 H  s          
     8     -0.135234  1 N  px                 9     -0.135234  1 N  py         

 Vector    9  Occ=0.000000D+00  E= 8.636675D-02
              MO Center= -3.2D-07, -3.2D-07,  6.2D-01, r^2= 9.5D+00
   Bfn.  Coefficient  Atom+Function         Bfn.  Coefficient  Atom+Function  
  ----- ------------  ---------------      ----- ------------  ---------------
     4      3.123852  1 N  s                 13     -1.635863  1 N  pz         
    25     -0.792658  2 H  s                 34     -0.792662  3 H  s          
    43     -0.792662  4 H  s                 26     -0.551953  2 H  s          
    35     -0.551961  3 H  s                 44     -0.551961  4 H  s          
     3      0.329107  1 N  s                  7      0.240270  1 N  pz         

 Vector   10  Occ=0.000000D+00  E= 1.162645D-01
              MO Center= -4.0D-06, -4.0D-06, -4.0D-01, r^2= 1.1D+01
   Bfn.  Coefficient  Atom+Function         Bfn.  Coefficient  Atom+Function  
  ----- ------------  ---------------      ----- ------------  ---------------
     4      3.968509  1 N  s                 26     -0.814512  2 H  s          
    35     -0.814528  3 H  s                 44     -0.814528  4 H  s          
    25     -0.562141  2 H  s                 34     -0.562153  3 H  s          
    43     -0.562153  4 H  s                 39     -0.282222  3 H  px         
    49     -0.282222  4 H  py                 2     -0.253498  1 N  s          

 Vector   11  Occ=0.000000D+00  E= 1.388522D-01
              MO Center= -2.2D-01, -2.2D-01,  2.5D-01, r^2= 9.8D+00
   Bfn.  Coefficient  Atom+Function         Bfn.  Coefficient  Atom+Function  
  ----- ------------  ---------------      ----- ------------  ---------------
    26      3.286402  2 H  s                 25      2.179110  2 H  s          
    11     -2.020789  1 N  px                12     -2.020789  1 N  py         
    35     -1.643197  3 H  s                 44     -1.643198  4 H  s          
    34     -1.089555  3 H  s                 43     -1.089555  4 H  s          
     8     -0.263344  1 N  px                 9     -0.263344  1 N  py         

 Vector   12  Occ=0.000000D+00  E= 1.388523D-01
              MO Center=  2.2D-01,  2.2D-01,  2.5D-01, r^2= 9.8D+00
   Bfn.  Coefficient  Atom+Function         Bfn.  Coefficient  Atom+Function  
  ----- ------------  ---------------      ----- ------------  ---------------
    35      2.846103  3 H  s                 44     -2.846103  4 H  s          
    11      2.020788  1 N  px                12     -2.020787  1 N  py         
    34      1.887164  3 H  s                 43     -1.887164  4 H  s          
     8      0.263344  1 N  px                 9     -0.263344  1 N  py         
    39      0.199550  3 H  px                49     -0.199550  4 H  py         

 Vector   13  Occ=0.000000D+00  E= 1.612767D-01
              MO Center= -4.7D-01, -4.7D-01, -4.7D-01, r^2= 6.4D+00
   Bfn.  Coefficient  Atom+Function         Bfn.  Coefficient  Atom+Function  
  ----- ------------  ---------------      ----- ------------  ---------------
    35      2.041499  3 H  s                 44     -2.041501  4 H  s          
    11      0.647021  1 N  px                12     -0.647022  1 N  py         
    39      0.511028  3 H  px                49     -0.511028  4 H  py         
    41      0.300522  3 H  pz                50     -0.300522  4 H  pz         
     5     -0.253395  1 N  px                 6      0.253395  1 N  py         

 Vector   14  Occ=0.000000D+00  E= 1.612767D-01
              MO Center=  4.7D-01,  4.7D-01, -4.7D-01, r^2= 6.4D+00
   Bfn.  Coefficient  Atom+Function         Bfn.  Coefficient  Atom+Function  
  ----- ------------  ---------------      ----- ------------  ---------------
    26      2.357317  2 H  s                 35     -1.178661  3 H  s          
    44     -1.178658  4 H  s                 11     -0.647020  1 N  px         
    12     -0.647019  1 N  py                30     -0.406358  2 H  px         
    31     -0.406358  2 H  py                32      0.347013  2 H  pz         
    40      0.270236  3 H  py                48      0.270236  4 H  px         

 Vector   15  Occ=0.000000D+00  E= 2.273281D-01
              MO Center=  1.3D-06,  1.3D-06, -1.3D-01, r^2= 5.2D+00
   Bfn.  Coefficient  Atom+Function         Bfn.  Coefficient  Atom+Function  
  ----- ------------  ---------------      ----- ------------  ---------------
     4      4.522764  1 N  s                 25     -1.638690  2 H  s          
    34     -1.638687  3 H  s                 43     -1.638687  4 H  s          
     3      0.480965  1 N  s                 32     -0.412017  2 H  pz         
    41     -0.412013  3 H  pz                50     -0.412013  4 H  pz         
    26     -0.357383  2 H  s                 35     -0.357384  3 H  s          

 Vector   16  Occ=0.000000D+00  E= 2.331870D-01
              MO Center=  6.9D-02,  6.9D-02, -1.5D-01, r^2= 4.6D+00
   Bfn.  Coefficient  Atom+Function         Bfn.  Coefficient  Atom+Function  
  ----- ------------  ---------------      ----- ------------  ---------------
    32      0.860028  2 H  pz                40     -0.730818  3 H  py         
    48     -0.730818  4 H  px                11      0.565576  1 N  px         
    12      0.565576  1 N  py                25      0.464533  2 H  s          
    26     -0.450949  2 H  s                 41     -0.430016  3 H  pz         
    50     -0.430016  4 H  pz                39     -0.300297  3 H  px         

 Vector   17  Occ=0.000000D+00  E= 2.331870D-01
              MO Center= -6.9D-02, -6.9D-02, -1.5D-01, r^2= 4.6D+00
   Bfn.  Coefficient  Atom+Function         Bfn.  Coefficient  Atom+Function  
  ----- ------------  ---------------      ----- ------------  ---------------
    41      0.744807  3 H  pz                50     -0.744807  4 H  pz         
    30      0.639839  2 H  px                31     -0.639839  2 H  py         
    11     -0.565577  1 N  px                12      0.565577  1 N  py         
    40     -0.482258  3 H  py                48      0.482258  4 H  px         
    34      0.402303  3 H  s                 43     -0.402303  4 H  s          

 Vector   18  Occ=0.000000D+00  E= 3.477547D-01
              MO Center=  3.3D-07,  3.3D-07, -1.3D-01, r^2= 6.7D+00
   Bfn.  Coefficient  Atom+Function         Bfn.  Coefficient  Atom+Function  
  ----- ------------  ---------------      ----- ------------  ---------------
     4      5.832132  1 N  s                 25     -2.091115  2 H  s          
    34     -2.091115  3 H  s                 43     -2.091115  4 H  s          
    13     -1.987647  1 N  pz                10     -1.122146  1 N  pz         
    32      0.730485  2 H  pz                41      0.730483  3 H  pz         
    50      0.730483  4 H  pz                 3      0.531342  1 N  s          

 Vector   19  Occ=0.000000D+00  E= 4.181531D-01
              MO Center=  2.7D-07,  2.7D-07, -2.9D-01, r^2= 5.0D+00
   Bfn.  Coefficient  Atom+Function         Bfn.  Coefficient  Atom+Function  
  ----- ------------  ---------------      ----- ------------  ---------------
    40      1.473974  3 H  py                48     -1.473974  4 H  px         
    30      1.079025  2 H  px                31     -1.079025  2 H  py         
    39      0.394951  3 H  px                49     -0.394951  4 H  py         

 Vector   20  Occ=0.000000D+00  E= 4.237060D-01
              MO Center= -1.8D-02, -1.8D-02,  2.2D-02, r^2= 6.5D+00
   Bfn.  Coefficient  Atom+Function         Bfn.  Coefficient  Atom+Function  
  ----- ------------  ---------------      ----- ------------  ---------------
    11      2.051457  1 N  px                12      2.051459  1 N  py         
    26     -2.054580  2 H  s                 32     -1.215123  2 H  pz         
    35      1.027288  3 H  s                 44      1.027290  4 H  s          
    25     -0.930858  2 H  s                 40     -0.917169  3 H  py         
    48     -0.917168  4 H  px                39     -0.763506  3 H  px         

 Vector   21  Occ=0.000000D+00  E= 4.237061D-01
              MO Center=  1.8D-02,  1.8D-02,  2.2D-02, r^2= 6.5D+00
   Bfn.  Coefficient  Atom+Function         Bfn.  Coefficient  Atom+Function  
  ----- ------------  ---------------      ----- ------------  ---------------
    11      2.051461  1 N  px                12     -2.051459  1 N  py         
    35      1.779321  3 H  s                 44     -1.779320  4 H  s          
    41      1.052330  3 H  pz                50     -1.052329  4 H  pz         
    30     -0.884695  2 H  px                31      0.884694  2 H  py         
    40      0.828451  3 H  py                48     -0.828451  4 H  px         

 Vector   22  Occ=0.000000D+00  E= 4.837831D-01
              MO Center=  8.9D-07,  8.9D-07, -3.3D-01, r^2= 5.8D+00
   Bfn.  Coefficient  Atom+Function         Bfn.  Coefficient  Atom+Function  
  ----- ------------  ---------------      ----- ------------  ---------------
     3      4.644833  1 N  s                  4      3.912928  1 N  s          
    25     -1.986139  2 H  s                 34     -1.986136  3 H  s          
    43     -1.986136  4 H  s                 39     -1.231621  3 H  px         
    49     -1.231621  4 H  py                30      0.901609  2 H  px         
    31      0.901609  2 H  py                32     -0.753992  2 H  pz         

 Vector   23  Occ=0.000000D+00  E= 5.179392D-01
              MO Center=  4.3D-01,  4.3D-01, -3.0D-01, r^2= 4.5D+00
   Bfn.  Coefficient  Atom+Function         Bfn.  Coefficient  Atom+Function  
  ----- ------------  ---------------      ----- ------------  ---------------
    25      6.895102  2 H  s                 34     -3.447553  3 H  s          
    43     -3.447548  4 H  s                 30     -2.744331  2 H  px         
    31     -2.744330  2 H  py                39     -1.988038  3 H  px         
    49     -1.988035  4 H  py                 8     -1.374006  1 N  px         
     9     -1.374005  1 N  py                26      1.184371  2 H  s          

 Vector   24  Occ=0.000000D+00  E= 5.179393D-01
              MO Center= -4.3D-01, -4.3D-01, -3.0D-01, r^2= 4.5D+00
   Bfn.  Coefficient  Atom+Function         Bfn.  Coefficient  Atom+Function  
  ----- ------------  ---------------      ----- ------------  ---------------
    34      5.971309  3 H  s                 43     -5.971311  4 H  s          
    39      3.180969  3 H  px                49     -3.180971  4 H  py         
     8      1.374001  1 N  px                 9     -1.374002  1 N  py         
    40     -1.114738  3 H  py                48      1.114738  4 H  px         
    35      1.025693  3 H  s                 44     -1.025694  4 H  s          

 Vector   25  Occ=0.000000D+00  E= 5.396777D-01
              MO Center=  3.7D-05,  3.7D-05, -1.8D-01, r^2= 4.4D+00
   Bfn.  Coefficient  Atom+Function         Bfn.  Coefficient  Atom+Function  
  ----- ------------  ---------------      ----- ------------  ---------------
    25      8.290340  2 H  s                 34     -4.145170  3 H  s          
    43     -4.145167  4 H  s                 30     -2.245209  2 H  px         
    31     -2.245209  2 H  py                39     -1.780401  3 H  px         
    49     -1.780400  4 H  py                 8     -1.158288  1 N  px         
     9     -1.158288  1 N  py                11     -0.864950  1 N  px         

 Vector   26  Occ=0.000000D+00  E= 5.396779D-01
              MO Center= -3.8D-05, -3.8D-05, -1.8D-01, r^2= 4.4D+00
   Bfn.  Coefficient  Atom+Function         Bfn.  Coefficient  Atom+Function  
  ----- ------------  ---------------      ----- ------------  ---------------
    34      7.179661  3 H  s                 43     -7.179663  4 H  s          
    39      2.513577  3 H  px                49     -2.513578  4 H  py         
    40     -1.243690  3 H  py                48      1.243689  4 H  px         
     8      1.158292  1 N  px                 9     -1.158292  1 N  py         
    11      0.864950  1 N  px                12     -0.864950  1 N  py         

 Vector   27  Occ=0.000000D+00  E= 6.796088D-01
              MO Center=  2.7D-07,  2.7D-07,  3.1D-01, r^2= 3.5D+00
   Bfn.  Coefficient  Atom+Function         Bfn.  Coefficient  Atom+Function  
  ----- ------------  ---------------      ----- ------------  ---------------
     4      3.988576  1 N  s                 25     -1.812503  2 H  s          
    34     -1.812509  3 H  s                 43     -1.812509  4 H  s          
    21     -1.353575  1 N  d  0               3      1.110336  1 N  s          
    32     -0.625812  2 H  pz                41     -0.625812  3 H  pz         
    50     -0.625812  4 H  pz                26     -0.284614  2 H  s          

 Vector   28  Occ=0.000000D+00  E= 7.494592D-01
              MO Center=  9.7D-03,  9.7D-03,  7.1D-02, r^2= 3.1D+00
   Bfn.  Coefficient  Atom+Function         Bfn.  Coefficient  Atom+Function  
  ----- ------------  ---------------      ----- ------------  ---------------
    25      2.341542  2 H  s                 19     -1.212143  1 N  d -2       
    34     -1.170771  3 H  s                 43     -1.170770  4 H  s          
    32      0.996032  2 H  pz                40     -0.911087  3 H  py         
    48     -0.911087  4 H  px                20     -0.849323  1 N  d -1       
    22      0.849323  1 N  d  1              39     -0.731644  3 H  px         

 Vector   29  Occ=0.000000D+00  E= 7.494593D-01
              MO Center= -9.7D-03, -9.7D-03,  7.1D-02, r^2= 3.1D+00
   Bfn.  Coefficient  Atom+Function         Bfn.  Coefficient  Atom+Function  
  ----- ------------  ---------------      ----- ------------  ---------------
    34      2.027834  3 H  s                 43     -2.027834  4 H  s          
    23     -1.212143  1 N  d  2              30      0.873166  2 H  px         
    31     -0.873167  2 H  py                41      0.862589  3 H  pz         
    50     -0.862589  4 H  pz                20     -0.849323  1 N  d -1       
    22     -0.849322  1 N  d  1              40     -0.807486  3 H  py         

 Vector   30  Occ=0.000000D+00  E= 8.960981D-01
              MO Center=  1.5D-07,  1.5D-07, -1.8D-01, r^2= 2.9D+00
   Bfn.  Coefficient  Atom+Function         Bfn.  Coefficient  Atom+Function  
  ----- ------------  ---------------      ----- ------------  ---------------
     4      3.540752  1 N  s                 25     -2.101206  2 H  s          
    34     -2.101204  3 H  s                 43     -2.101204  4 H  s          
     3      1.957698  1 N  s                 13     -0.960158  1 N  pz         
    24      0.792202  2 H  s                 33      0.792202  3 H  s          
    42      0.792202  4 H  s                 21      0.608122  1 N  d  0       

 Vector   31  Occ=0.000000D+00  E= 9.683286D-01
              MO Center= -3.7D-02, -3.7D-02,  1.8D-01, r^2= 2.5D+00
   Bfn.  Coefficient  Atom+Function         Bfn.  Coefficient  Atom+Function  
  ----- ------------  ---------------      ----- ------------  ---------------
    25      4.433301  2 H  s                 34     -2.216651  3 H  s          
    43     -2.216651  4 H  s                  8     -1.640526  1 N  px         
     9     -1.640526  1 N  py                30     -1.105622  2 H  px         
    31     -1.105622  2 H  py                32      0.841944  2 H  pz         
    19      0.767132  1 N  d -2              39     -0.700223  3 H  px         

 Vector   32  Occ=0.000000D+00  E= 9.683287D-01
              MO Center=  3.7D-02,  3.7D-02,  1.8D-01, r^2= 2.5D+00
   Bfn.  Coefficient  Atom+Function         Bfn.  Coefficient  Atom+Function  
  ----- ------------  ---------------      ----- ------------  ---------------
    34      3.839353  3 H  s                 43     -3.839353  4 H  s          
     8      1.640526  1 N  px                 9     -1.640526  1 N  py         
    39      1.339681  3 H  px                49     -1.339681  4 H  py         
    23      0.767131  1 N  d  2              41      0.729145  3 H  pz         
    50     -0.729145  4 H  pz                33     -0.487639  3 H  s          

 Vector   33  Occ=0.000000D+00  E= 1.090849D+00
              MO Center=  1.1D-07,  1.1D-07,  7.7D-02, r^2= 2.5D+00
   Bfn.  Coefficient  Atom+Function         Bfn.  Coefficient  Atom+Function  
  ----- ------------  ---------------      ----- ------------  ---------------
     4      3.338041  1 N  s                 10     -2.528692  1 N  pz         
    25     -1.327816  2 H  s                 34     -1.327816  3 H  s          
    43     -1.327816  4 H  s                  7      0.998504  1 N  pz         
    13     -0.863731  1 N  pz                 3      0.671098  1 N  s          
    32      0.643238  2 H  pz                41      0.643238  3 H  pz         

 Vector   34  Occ=0.000000D+00  E= 1.551486D+00
              MO Center= -3.1D-02, -3.1D-02,  9.9D-02, r^2= 2.5D+00
   Bfn.  Coefficient  Atom+Function         Bfn.  Coefficient  Atom+Function  
  ----- ------------  ---------------      ----- ------------  ---------------
    25      5.026950  2 H  s                 34     -2.513471  3 H  s          
    43     -2.513479  4 H  s                  8     -2.317060  1 N  px         
     9     -2.317064  1 N  py                19     -1.258293  1 N  d -2       
    24      1.178242  2 H  s                 11     -1.153065  1 N  px         
    12     -1.153067  1 N  py                26      1.050600  2 H  s          

[...]
    11      1.320771  1 N  px                23     -1.263374  1 N  d  2       
    12     -1.173266  1 N  py                39      1.112226  3 H  px         
    49     -1.044811  4 H  py                35      1.036997  3 H  s          

 Vector   36  Occ=0.000000D+00  E= 1.346005D+00  Symmetry=a2
              MO Center=  2.1D-09,  2.1D-09, -2.9D-01, r^2= 1.9D+00
   Bfn.  Coefficient  Atom+Function         Bfn.  Coefficient  Atom+Function  
  ----- ------------  ---------------      ----- ------------  ---------------
    40     -0.669371  3 H  py                48      0.669371  4 H  px         
    37      0.659139  3 H  py                45     -0.659139  4 H  px         
    30     -0.490013  2 H  px                31      0.490013  2 H  py         
    27      0.482524  2 H  px                28     -0.482524  2 H  py         
    39     -0.179357  3 H  px                49      0.179357  4 H  py         

 Vector   37  Occ=0.000000D+00  E= 1.465092D+00  Symmetry=e
              MO Center= -2.3D-01,  1.4D-01, -1.1D-01, r^2= 2.0D+00
   Bfn.  Coefficient  Atom+Function         Bfn.  Coefficient  Atom+Function  
  ----- ------------  ---------------      ----- ------------  ---------------
    34      4.499290  3 H  s                 25     -2.770340  2 H  s          
    39      1.848747  3 H  px                43     -1.728951  4 H  s          
     8      1.675831  1 N  px                30      1.354561  2 H  px         
    23     -1.245373  1 N  d  2              48      1.041651  4 H  px         
    19      0.959462  1 N  d -2              38      0.878061  3 H  pz         

 Vector   38  Occ=0.000000D+00  E= 1.465092D+00  Symmetry=e
              MO Center=  2.3D-01, -1.4D-01, -1.1D-01, r^2= 2.0D+00
   Bfn.  Coefficient  Atom+Function         Bfn.  Coefficient  Atom+Function  
  ----- ------------  ---------------      ----- ------------  ---------------
    43      4.197123  4 H  s                 25     -3.595877  2 H  s          
    49      1.788322  4 H  py                 9      1.675831  1 N  py         
    31      1.475412  2 H  py                19      1.245373  1 N  d -2       
    40      0.981225  3 H  py                23      0.959462  1 N  d  2       
    47      0.819091  4 H  pz                29     -0.701755  2 H  pz         

 Vector   39  Occ=0.000000D+00  E= 1.509885D+00  Symmetry=a1
              MO Center= -8.0D-15,  3.1D-15, -2.8D-01, r^2= 1.9D+00
   Bfn.  Coefficient  Atom+Function         Bfn.  Coefficient  Atom+Function  
  ----- ------------  ---------------      ----- ------------  ---------------
     3      3.777253  1 N  s                  4      2.316969  1 N  s          
    25     -1.510177  2 H  s                 34     -1.510177  3 H  s          
    43     -1.510177  4 H  s                 21     -1.190299  1 N  d  0       
     2     -0.918678  1 N  s                 29     -0.672858  2 H  pz         
    38     -0.672858  3 H  pz                47     -0.672858  4 H  pz         

 Vector   40  Occ=0.000000D+00  E= 1.679009D+00  Symmetry=e
              MO Center=  1.8D-01, -1.3D-01, -1.9D-01, r^2= 1.6D+00
   Bfn.  Coefficient  Atom+Function         Bfn.  Coefficient  Atom+Function  
  ----- ------------  ---------------      ----- ------------  ---------------
    20      0.827648  1 N  d -1               9     -0.750595  1 N  py         
    43     -0.637189  4 H  s                 27     -0.607714  2 H  px         
    46     -0.574853  4 H  py                 6     -0.571022  1 N  py         
    25      0.517344  2 H  s                 37      0.466138  3 H  py         
    15     -0.436817  1 N  d -1              42     -0.429948  4 H  s          

 Vector   41  Occ=0.000000D+00  E= 1.679009D+00  Symmetry=e
              MO Center= -1.8D-01,  1.3D-01, -1.9D-01, r^2= 1.6D+00
   Bfn.  Coefficient  Atom+Function         Bfn.  Coefficient  Atom+Function  
  ----- ------------  ---------------      ----- ------------  ---------------
    22      0.827648  1 N  d  1               8      0.750595  1 N  px         
    34      0.666570  3 H  s                 36      0.625401  3 H  px         
    28      0.594319  2 H  py                 5      0.571022  1 N  px         
    33      0.449773  3 H  s                 17     -0.436817  1 N  d  1       
    25     -0.437074  2 H  s                 45     -0.415591  4 H  px         

 Vector   42  Occ=0.000000D+00  E= 1.733418D+00  Symmetry=e
              MO Center= -3.4D-02,  7.0D-02, -1.8D-01, r^2= 1.8D+00
   Bfn.  Coefficient  Atom+Function         Bfn.  Coefficient  Atom+Function  
  ----- ------------  ---------------      ----- ------------  ---------------
    34      4.088967  3 H  s                 25     -3.653496  2 H  s          
     8      3.252899  1 N  px                39      1.678214  3 H  px         
    22      1.194659  1 N  d  1              30      1.116414  2 H  px         
    31      1.071305  2 H  py                33      0.939961  3 H  s          
    24     -0.839856  2 H  s                 45     -0.673340  4 H  px         

 Vector   43  Occ=0.000000D+00  E= 1.733418D+00  Symmetry=e
              MO Center=  3.4D-02, -7.0D-02, -1.8D-01, r^2= 1.8D+00
   Bfn.  Coefficient  Atom+Function         Bfn.  Coefficient  Atom+Function  
  ----- ------------  ---------------      ----- ------------  ---------------
    43      4.470113  4 H  s                  9      3.252899  1 N  py         
    25     -2.612185  2 H  s                 34     -1.857928  3 H  s          
    49      1.829603  4 H  py                20     -1.194659  1 N  d -1       
    42      1.027578  4 H  s                 31      0.813636  2 H  py         
    30      0.750544  2 H  px                39     -0.746949  3 H  px         

 Vector   44  Occ=0.000000D+00  E= 1.751072D+00  Symmetry=a1
              MO Center=  1.7D-12,  5.3D-14, -1.4D-01, r^2= 2.2D+00
   Bfn.  Coefficient  Atom+Function         Bfn.  Coefficient  Atom+Function  
  ----- ------------  ---------------      ----- ------------  ---------------
     3      7.390724  1 N  s                  4      3.034615  1 N  s          
     2     -2.443758  1 N  s                 25     -2.165141  2 H  s          
    34     -2.165141  3 H  s                 43     -2.165141  4 H  s          
    10     -1.477601  1 N  pz                 1     -1.204026  1 N  s          
    39     -0.938047  3 H  px                49     -0.938047  4 H  py         

 Vector   45  Occ=0.000000D+00  E= 2.008792D+00  Symmetry=a1
              MO Center= -2.9D-14, -1.0D-14, -6.2D-03, r^2= 1.6D+00
   Bfn.  Coefficient  Atom+Function         Bfn.  Coefficient  Atom+Function  
  ----- ------------  ---------------      ----- ------------  ---------------
     3      3.541730  1 N  s                  4      2.637805  1 N  s          
    25     -1.565717  2 H  s                 34     -1.565717  3 H  s          
    43     -1.565717  4 H  s                 10     -1.118914  1 N  pz         
    16      0.844438  1 N  d  0              36     -0.615837  3 H  px         
    46     -0.615837  4 H  py                24     -0.533377  2 H  s          

 Vector   46  Occ=0.000000D+00  E= 2.189401D+00  Symmetry=e
              MO Center= -3.4D-04,  6.6D-02, -5.4D-04, r^2= 1.2D+00
   Bfn.  Coefficient  Atom+Function         Bfn.  Coefficient  Atom+Function  
  ----- ------------  ---------------      ----- ------------  ---------------
    43      1.426926  4 H  s                  9      0.895536  1 N  py         
    18     -0.872154  1 N  d  2              34     -0.872931  3 H  s          
    15     -0.697343  1 N  d -1              25     -0.553996  2 H  s          
    37     -0.517208  3 H  py                27      0.444505  2 H  px         
    28     -0.437898  2 H  py                49      0.430921  4 H  py         

 Vector   47  Occ=0.000000D+00  E= 2.189401D+00  Symmetry=e
              MO Center=  3.4D-04, -6.6D-02, -5.4D-04, r^2= 1.2D+00
   Bfn.  Coefficient  Atom+Function         Bfn.  Coefficient  Atom+Function  
  ----- ------------  ---------------      ----- ------------  ---------------
    25      1.327823  2 H  s                 34     -1.143686  3 H  s          
     8     -0.895536  1 N  px                14      0.872154  1 N  d -2       
    17     -0.697343  1 N  d  1              45      0.648077  4 H  px         
    39     -0.412539  3 H  px                30     -0.401398  2 H  px         
    37      0.398715  3 H  py                19     -0.394577  1 N  d -2       

 Vector   48  Occ=0.000000D+00  E= 2.376040D+00  Symmetry=a1
              MO Center= -2.6D-15,  1.7D-14, -1.9D-01, r^2= 1.6D+00
   Bfn.  Coefficient  Atom+Function         Bfn.  Coefficient  Atom+Function  
  ----- ------------  ---------------      ----- ------------  ---------------
     3      5.232197  1 N  s                  4      2.590848  1 N  s          
    25     -1.754269  2 H  s                 34     -1.754269  3 H  s          
    43     -1.754269  4 H  s                 10     -1.665094  1 N  pz         
    24     -1.085112  2 H  s                 33     -1.085112  3 H  s          
    42     -1.085112  4 H  s                 16     -0.949448  1 N  d  0       

 Vector   49  Occ=0.000000D+00  E= 2.764744D+00  Symmetry=e
              MO Center=  2.5D-02,  8.9D-02,  2.7D-02, r^2= 1.3D+00
   Bfn.  Coefficient  Atom+Function         Bfn.  Coefficient  Atom+Function  
  ----- ------------  ---------------      ----- ------------  ---------------
    25      3.681161  2 H  s                  8     -3.008971  1 N  px         
    34     -2.679078  3 H  s                 24      1.975712  2 H  s          
     9     -1.755759  1 N  py                33     -1.437885  3 H  s          
    14     -1.055101  1 N  d -2              43     -1.002083  4 H  s          
    17     -0.909418  1 N  d  1              31     -0.817141  2 H  py         

 Vector   50  Occ=0.000000D+00  E= 2.764744D+00  Symmetry=e
              MO Center= -2.5D-02, -8.9D-02,  2.7D-02, r^2= 1.3D+00
   Bfn.  Coefficient  Atom+Function         Bfn.  Coefficient  Atom+Function  
  ----- ------------  ---------------      ----- ------------  ---------------
    43      3.672086  4 H  s                  9      3.008971  1 N  py         
    34     -2.703872  3 H  s                 42      1.970841  4 H  s          
     8     -1.755759  1 N  px                33     -1.451192  3 H  s          
    49      1.084409  4 H  py                18      1.055101  1 N  d  2       
    46      1.041211  4 H  py                25     -0.968214  2 H  s          


          ----------------------
          Hyperfine Interactions
          ----------------------


 Total Spin Density (Fermi Contact Term)
 ------------------ --------------------
     Atom            x         y         z       Density (a.u.)      Aiso(MHz)     Aiso(Gauss)
     1  14-N     -0.00000  -0.00000   0.23144       0.572328        184.921759      65.984571
     2   1-H      1.25880   1.25880  -0.54002      -0.001808         -8.083419      -2.884360
     3   1-H     -1.71956   0.46075  -0.54002      -0.001808         -8.083419      -2.884360
     4   1-H      0.46075  -1.71956  -0.54002      -0.001808         -8.083419      -2.884360


           -------------------------------------------
           Anisotropic Interaction (Spin-Dipolar Term)
           -------------------------------------------

 ------------------------------------------------------------
     Atom            x         y         z
 ------------------------------------------------------------
     1  14-N     -0.00000  -0.00000   0.23144

   Spin-Dipolar term (a.u.)
        xx             yy             zz             xy             xz             yz
 ------------------------------------------------------------------------------------------
      -1.010464      -1.010464       2.020928      -0.000000       0.000000       0.000000

   Principal Comp. of -hf- tensor (au)            Anisotropic -hfcc- (MHz)               Anisotropic -hfcc- (Gauss)
 --------------------------------------------------------------------------------------------------------------------------
     -1.010464    -1.010464     2.020928     -38.971318   -38.971318    77.942636     -13.905912   -13.905912    27.811824

   Orientation of the principal axis of Hyperfine Tensor w.r.t absolute (molecular) frame
 --------------------------------------------------------------------------------------------------------------------------
      1.000000    -0.000000     0.000000
     -0.000000     1.000000     0.000000
      0.000000     0.000000     1.000000


 ------------------------------------------------------------
     Atom            x         y         z
 ------------------------------------------------------------
     2   1-H      1.25880   1.25880  -0.54002

   Spin-Dipolar term (a.u.)
        xx             yy             zz             xy             xz             yz
 ------------------------------------------------------------------------------------------
       0.007532       0.007532      -0.015063       0.097954      -0.033983      -0.033983

   Principal Comp. of -hf- tensor (au)            Anisotropic -hfcc- (MHz)               Anisotropic -hfcc- (Gauss)
 --------------------------------------------------------------------------------------------------------------------------
     -0.090423     0.122300    -0.031878     -48.245204    65.253642   -17.008438     -17.215060    23.284083    -6.069023

   Orientation of the principal axis of Hyperfine Tensor w.r.t absolute (molecular) frame
 --------------------------------------------------------------------------------------------------------------------------
      0.707107     0.667436     0.233514
     -0.707107     0.667436     0.233514
      0.000000    -0.330239     0.943897


 ------------------------------------------------------------
     Atom            x         y         z
 ------------------------------------------------------------
     3   1-H     -1.71956   0.46075  -0.54002

   Spin-Dipolar term (a.u.)
        xx             yy             zz             xy             xz             yz
 ------------------------------------------------------------------------------------------
       0.092363      -0.077299      -0.015063      -0.048977       0.046422      -0.012439

   Principal Comp. of -hf- tensor (au)            Anisotropic -hfcc- (MHz)               Anisotropic -hfcc- (Gauss)
 --------------------------------------------------------------------------------------------------------------------------
      0.122300    -0.090423    -0.031878      65.253642   -48.245204   -17.008438      23.284083   -17.215060    -6.069023

   Orientation of the principal axis of Hyperfine Tensor w.r.t absolute (molecular) frame
 --------------------------------------------------------------------------------------------------------------------------
      0.911735     0.258819    -0.318987
     -0.244299     0.965926     0.085472
      0.330239     0.000000     0.943897


 ------------------------------------------------------------
     Atom            x         y         z
 ------------------------------------------------------------
     4   1-H      0.46075  -1.71956  -0.54002

   Spin-Dipolar term (a.u.)
        xx             yy             zz             xy             xz             yz
 ------------------------------------------------------------------------------------------
      -0.077299       0.092363      -0.015063      -0.048977      -0.012439       0.046422

   Principal Comp. of -hf- tensor (au)            Anisotropic -hfcc- (MHz)               Anisotropic -hfcc- (Gauss)
 --------------------------------------------------------------------------------------------------------------------------
     -0.090423     0.122300    -0.031878     -48.245204    65.253642   -17.008438     -17.215060    23.284083    -6.069023

   Orientation of the principal axis of Hyperfine Tensor w.r.t absolute (molecular) frame
 --------------------------------------------------------------------------------------------------------------------------
      0.965926    -0.244299     0.085472
      0.258819     0.911735    -0.318987
      0.000000     0.330239     0.943897



 Task  times  cpu:        3.0s     wall:        3.0s


                                NWChem Input Module
                                -------------------


 Summary of allocated global arrays
-----------------------------------
  No active global arrays



                         GA Statistics for process    0
                         ------------------------------

       create   destroy   get      put      acc     scatter   gather  read&inc
calls: 6513     6513     7.98e+05 8.30e+04 4.89e+05 5102        0     4431     
number of processes/call 1.12e+00 1.85e+00 1.44e+00 0.00e+00 0.00e+00
bytes total:             1.30e+09 9.59e+07 1.18e+09 0.00e+00 0.00e+00 3.54e+04
bytes remote:            5.24e+08 2.59e+07 3.62e+08 -8.96e+02 0.00e+00 0.00e+00
Max memory consumed for GA by this process: 12484600 bytes

MA_summarize_allocated_blocks: starting scan ...
heap block 'gridpts', handle 69, address 0x5558d87a9998:
	type of elements:		double precision
	number of elements:		34433402
	address of client space:	0x5558d87a9a00
	index for client space:		10451795
	total number of bytes:		275467328
MA_summarize_allocated_blocks: scan completed: 1 heap block, 0 stack blocks
MA usage statistics:

	allocation statistics:
					      heap	     stack
					      ----	     -----
	current number of blocks	         1	         0
	maximum number of blocks	        28	        60
	current total bytes		 275467328	         0
	maximum total bytes		 276963376	  27093000
	maximum total K-bytes		    276964	     27093
	maximum total M-bytes		       277	        28


                                     CITATION
                                     --------
                Please cite the following reference when publishing
                           results obtained with NWChem:

                 M. Valiev, E.J. Bylaska, N. Govind, K. Kowalski,
              T.P. Straatsma, H.J.J. van Dam, D. Wang, J. Nieplocha,
                        E. Apra, T.L. Windus, W.A. de Jong
                 "NWChem: a comprehensive and scalable open-source
                  solution for large scale molecular simulations"
                      Comput. Phys. Commun. 181, 1477 (2010)
                           doi:10.1016/j.cpc.2010.04.018

                                      AUTHORS
                                      -------
          E. Apra, E. J. Bylaska, W. A. de Jong, N. Govind, K. Kowalski,
       T. P. Straatsma, M. Valiev, H. J. J. van Dam, D. Wang, T. L. Windus,
        J. Hammond, J. Autschbach, K. Bhaskaran-Nair, J. Brabec, K. Lopata,
    S. A. Fischer, S. Krishnamoorthy, M. Jacquelin, W. Ma, M. Klemm, O. Villa,
      Y. Chen, V. Anisimov, F. Aquino, S. Hirata, M. T. Hackler, V. Konjkov,
            D. Mejia-Rodriguez, T. Risthaus, M. Malagoli, A. Marenich,
   A. Otero-de-la-Roza, J. Mullin, P. Nichols, R. Peverati, J. Pittner, Y. Zhao,
        P.-D. Fan, A. Fonari, M. J. Williamson, R. J. Harrison, J. R. Rehr,
      M. Dupuis, D. Silverstein, D. M. A. Smith, J. Nieplocha, V. Tipparaju,
    M. Krishnan, B. E. Van Kuiken, A. Vazquez-Mayagoitia, L. Jensen, M. Swart,
      Q. Wu, T. Van Voorhis, A. A. Auer, M. Nooijen, L. D. Crosby, E. Brown,
      G. Cisneros, G. I. Fann, H. Fruchtl, J. Garza, K. Hirao, R. A. Kendall,
      J. A. Nichols, K. Tsemekhman, K. Wolinski, J. Anchell, D. E. Bernholdt,
      P. Borowski, T. Clark, D. Clerc, H. Dachsel, M. J. O. Deegan, K. Dyall,
    D. Elwood, E. Glendening, M. Gutowski, A. C. Hess, J. Jaffe, B. G. Johnson,
     J. Ju, R. Kobayashi, R. Kutteh, Z. Lin, R. Littlefield, X. Long, B. Meng,
      T. Nakajima, S. Niu, L. Pollack, M. Rosing, K. Glaesemann, G. Sandrone,
      M. Stave, H. Taylor, G. Thomas, J. H. van Lenthe, A. T. Wong, Z. Zhang.

 Total times  cpu:       78.6s     wall:       78.7s
