 argument  1 = /home/list1234/source/nwchem-6.8.1-release/QA/tests/prop_uhf_h2o/prop_uhf_h2o.nw



============================== echo of input deck ==============================
echo
start prop_hf_h2o
title h2o

geometry units au nocenter
o       .00000000      .00000000      .11786656
h       .00000000     1.84118838     -.93531364
h       .00000000    -1.84118838     -.93531364
end

basis noprint
  H library sto-3g
  O library sto-3g
end
 charge 0

property
  spinspin
end

scf
 uhf
end

task scf property

dft
 xc b3lyp
 odft
end

task dft property
================================================================================


                                         
                                         


              Northwest Computational Chemistry Package (NWChem) 6.8
              ------------------------------------------------------


                    Environmental Molecular Sciences Laboratory
                       Pacific Northwest National Laboratory
                                Richland, WA 99352

                              Copyright (c) 1994-2018
                       Pacific Northwest National Laboratory
                            Battelle Memorial Institute

             NWChem is an open-source computational chemistry package
                        distributed under the terms of the
                      Educational Community License (ECL) 2.0
             A copy of the license is included with this distribution
                              in the LICENSE.TXT file

                                  ACKNOWLEDGMENT
                                  --------------

            This software and its documentation were developed at the
            EMSL at Pacific Northwest National Laboratory, a multiprogram
            national laboratory, operated for the U.S. Department of Energy
            by Battelle under Contract Number DE-AC05-76RL01830. Support
            for this work was provided by the Department of Energy Office
            of Biological and Environmental Research, Office of Basic
            Energy Sciences, and the Office of Advanced Scientific Computing.


           Job information
           ---------------

    hostname        = list1234-B360M-H
    program         = /home/list1234/source/nwchem-6.8.1-release/bin/LINUX64/nwchem
    date            = Sun Jun 30 05:48:40 2019

    compiled        = Sun_Jun_30_05:21:11_2019
    source          = /home/list1234/source/nwchem-6.8.1-release
    nwchem branch   = Development
    nwchem revision = N/A
    ga revision     = 5.6.5
    use scalapack   = T
    input           = /home/list1234/source/nwchem-6.8.1-release/QA/tests/prop_uhf_h2o/prop_uhf_h2o.nw
    prefix          = prop_hf_h2o.
    data base       = ./prop_hf_h2o.db
    status          = startup
    nproc           =        4
    time left       =     -1s



           Memory information
           ------------------

    heap     =   86247164 doubles =    658.0 Mbytes
    stack    =   86247169 doubles =    658.0 Mbytes
    global   =  172494336 doubles =   1316.0 Mbytes (distinct from heap & stack)
    total    =  344988669 doubles =   2632.1 Mbytes
    verify   = yes
    hardfail = no 


           Directory information
           ---------------------

  0 permanent = .
  0 scratch   = .




                                NWChem Input Module
                                -------------------


                                        h2o
                                        ---
 C2V symmetry detected

          ------
          auto-z
          ------
  no constraints, skipping    0.0000000000000000     
  no constraints, skipping    0.0000000000000000     


                             Geometry "geometry" -> ""
                             -------------------------

 Output coordinates in a.u. (scale by  1.000000000 to convert to a.u.)

  No.       Tag          Charge          X              Y              Z
 ---- ---------------- ---------- -------------- -------------- --------------
    1 o                    8.0000     0.00000000     0.00000000     0.11786656
    2 h                    1.0000    -1.84118838     0.00000000    -0.93531364
    3 h                    1.0000     1.84118838     0.00000000    -0.93531364

      Atomic Mass 
      ----------- 

      o                 15.994910
      h                  1.007825


 Effective nuclear repulsion energy (a.u.)       7.8147374646

            Nuclear Dipole moment (a.u.) 
            ----------------------------
        X                 Y               Z
 ---------------- ---------------- ----------------
     0.0000000000     0.0000000000    -0.9276948448

      Symmetry information
      --------------------

 Group name             C2v       
 Group number             16
 Group order               4
 No. of unique centers     2

      Symmetry unique atoms

     1    2



                                Z-matrix (autoz)
                                -------- 

 Units are Angstrom for bonds and degrees for angles

      Type          Name      I     J     K     L     M      Value
      ----------- --------  ----- ----- ----- ----- ----- ----------
    1 Stretch                  1     2                       1.12245
    2 Stretch                  1     3                       1.12245
    3 Bend                     2     1     3               120.45993


            XYZ format geometry
            -------------------
     3
 geometry
 o                     0.00000000     0.00000000     0.06237230
 h                    -0.97431500     0.00000000    -0.49494670
 h                     0.97431500     0.00000000    -0.49494670

                              NWChem Property Module
                              ----------------------


                                        h2o

                                 NWChem SCF Module
                                 -----------------


                                        h2o



  ao basis        = "ao basis"
  functions       =     7
  atoms           =     3
  alpha electrons =     5
  beta  electrons =     5
  charge          =   0.00
  wavefunction    = UHF 
  input vectors   = atomic
  output vectors  = ./prop_hf_h2o.movecs
  use symmetry    = F
  symmetry adapt  = F


 Summary of "ao basis" -> "ao basis" (cartesian)
 ------------------------------------------------------------------------------
       Tag                 Description            Shells   Functions and Types
 ---------------- ------------------------------  ------  ---------------------
 H                           sto-3g                  1        1   1s
 O                           sto-3g                  3        5   2s1p



 Forming initial guess at       0.0s


      Superposition of Atomic Density Guess
      -------------------------------------

 Sum of atomic energies:         -74.71095592

      Non-variational initial energy
      ------------------------------

 Total energy =     -74.317721
 1-e energy   =    -119.270021
 2-e energy   =      37.137562
 HOMO         =      -0.227821
 LUMO         =       0.298134


 Starting SCF solution at       0.0s



 ----------------------------------------------
         Quadratically convergent UHF

 Convergence threshold     :          1.000E-04
 Maximum no. of iterations :           30
 Integral*density screening:          1.000E-07
 ----------------------------------------------


              iter       energy          gnorm     gmax       time
             ----- ------------------- --------- --------- --------
                 1      -74.8588540098  5.14D-01  3.02D-01      0.1
                 2      -74.9121605600  1.06D-01  5.73D-02      0.1
                 3      -74.9140697122  1.31D-03  7.30D-04      0.2
                 4      -74.9140706449  7.03D-06  3.64D-06      0.2


       Final UHF  results 
       ------------------ 

         Total SCF energy =    -74.914070644876
      One electron energy =   -119.966128466019
      Two electron energy =     37.237320356572
 Nuclear repulsion energy =      7.814737464571

                       Sz =      0.0000
                 Sz(Sz+1) =      0.0000
                      S^2 =      0.0000

        Time for solution =      0.0s


          Final alpha eigenvalues
          -----------------------

              1      
    1  -20.2383
    2   -1.1860
    3   -0.5540
    4   -0.3949
    5   -0.3726
    6    0.4209
    7    0.6126

          Final beta eigenvalues
          ----------------------

              1      
    1  -20.2383
    2   -1.1860
    3   -0.5540
    4   -0.3949
    5   -0.3726
    6    0.4209
    7    0.6126

                    UHF Final Alpha Molecular Orbital Analysis
                    ------------------------------------------

 Vector    2  Occ=1.000000D+00  E=-1.186011D+00
              MO Center=  8.7D-16,  4.9D-17, -5.7D-02, r^2= 5.6D-01
   Bfn.  Coefficient  Atom+Function         Bfn.  Coefficient  Atom+Function  
  ----- ------------  ---------------      ----- ------------  ---------------
     2      0.892953  1 O  s                  1     -0.240442  1 O  s          

 Vector    3  Occ=1.000000D+00  E=-5.539740D-01
              MO Center=  9.8D-16, -5.3D-31, -2.1D-01, r^2= 1.0D+00
   Bfn.  Coefficient  Atom+Function         Bfn.  Coefficient  Atom+Function  
  ----- ------------  ---------------      ----- ------------  ---------------
     3      0.584127  1 O  px                 6     -0.451450  2 H  s          
     7      0.451450  3 H  s          

 Vector    4  Occ=1.000000D+00  E=-3.948627D-01
              MO Center= -2.7D-15, -8.3D-16,  4.3D-02, r^2= 7.4D-01
   Bfn.  Coefficient  Atom+Function         Bfn.  Coefficient  Atom+Function  
  ----- ------------  ---------------      ----- ------------  ---------------
     5      0.791067  1 O  pz                 2      0.436428  1 O  s          
     6     -0.320234  2 H  s                  7     -0.320234  3 H  s          

 Vector    5  Occ=1.000000D+00  E=-3.725552D-01
              MO Center=  1.0D-31,  7.6D-16,  6.2D-02, r^2= 4.2D-01
   Bfn.  Coefficient  Atom+Function         Bfn.  Coefficient  Atom+Function  
  ----- ------------  ---------------      ----- ------------  ---------------
     4      1.000000  1 O  py         

 Vector    6  Occ=0.000000D+00  E= 4.209272D-01
              MO Center=  4.4D-15,  1.8D-17, -4.0D-01, r^2= 1.3D+00
   Bfn.  Coefficient  Atom+Function         Bfn.  Coefficient  Atom+Function  
  ----- ------------  ---------------      ----- ------------  ---------------
     6     -0.713198  2 H  s                  7     -0.713198  3 H  s          
     2      0.669384  1 O  s                  5     -0.661755  1 O  pz         

 Vector    7  Occ=0.000000D+00  E= 6.126008D-01
              MO Center= -2.9D-15,  1.2D-31, -2.4D-01, r^2= 1.2D+00
   Bfn.  Coefficient  Atom+Function         Bfn.  Coefficient  Atom+Function  
  ----- ------------  ---------------      ----- ------------  ---------------
     3      0.945893  1 O  px                 6      0.711468  2 H  s          
     7     -0.711468  3 H  s          


                     UHF Final Beta Molecular Orbital Analysis
                     -----------------------------------------

 Vector    2  Occ=1.000000D+00  E=-1.186011D+00
              MO Center=  8.7D-16,  4.9D-17, -5.7D-02, r^2= 5.6D-01
   Bfn.  Coefficient  Atom+Function         Bfn.  Coefficient  Atom+Function  
  ----- ------------  ---------------      ----- ------------  ---------------
     2      0.892953  1 O  s                  1     -0.240442  1 O  s          

 Vector    3  Occ=1.000000D+00  E=-5.539740D-01
              MO Center=  9.8D-16, -5.3D-31, -2.1D-01, r^2= 1.0D+00
   Bfn.  Coefficient  Atom+Function         Bfn.  Coefficient  Atom+Function  
  ----- ------------  ---------------      ----- ------------  ---------------
     3      0.584127  1 O  px                 6     -0.451450  2 H  s          
     7      0.451450  3 H  s          

 Vector    4  Occ=1.000000D+00  E=-3.948627D-01
              MO Center= -2.7D-15, -8.3D-16,  4.3D-02, r^2= 7.4D-01
   Bfn.  Coefficient  Atom+Function         Bfn.  Coefficient  Atom+Function  
  ----- ------------  ---------------      ----- ------------  ---------------
     5      0.791067  1 O  pz                 2      0.436428  1 O  s          
     6     -0.320234  2 H  s                  7     -0.320234  3 H  s          

 Vector    5  Occ=1.000000D+00  E=-3.725552D-01
              MO Center=  1.0D-31,  7.6D-16,  6.2D-02, r^2= 4.2D-01
   Bfn.  Coefficient  Atom+Function         Bfn.  Coefficient  Atom+Function  
  ----- ------------  ---------------      ----- ------------  ---------------
     4      1.000000  1 O  py         

 Vector    6  Occ=0.000000D+00  E= 4.209272D-01
              MO Center=  4.4D-15,  1.8D-17, -4.0D-01, r^2= 1.3D+00
   Bfn.  Coefficient  Atom+Function         Bfn.  Coefficient  Atom+Function  
  ----- ------------  ---------------      ----- ------------  ---------------
     6     -0.713198  2 H  s                  7     -0.713198  3 H  s          
     2      0.669384  1 O  s                  5     -0.661755  1 O  pz         

 Vector    7  Occ=0.000000D+00  E= 6.126008D-01
              MO Center= -2.9D-15,  1.2D-31, -2.4D-01, r^2= 1.2D+00
   Bfn.  Coefficient  Atom+Function         Bfn.  Coefficient  Atom+Function  
  ----- ------------  ---------------      ----- ------------  ---------------
     3      0.945893  1 O  px                 6      0.711468  2 H  s          
     7     -0.711468  3 H  s          


 center of mass
 --------------
 x =   0.00000000 y =   0.00000000 z =   0.00000000

 moments of inertia (a.u.)
 ------------------
           1.985523714464           0.000000000000           0.000000000000
           0.000000000000           8.818526119040           0.000000000000
           0.000000000000           0.000000000000           6.833002404577

  Mulliken analysis of the total density
  --------------------------------------

    Atom       Charge   Shell Charges
 -----------   ------   -------------------------------------------------------
    1 O    8     8.27   2.00  1.85  4.42
    2 H    1     0.86   0.86
    3 H    1     0.86   0.86

  Mulliken analysis of the alpha density
  --------------------------------------

    Atom       Charge   Shell Charges
 -----------   ------   -------------------------------------------------------
    1 O    8     4.14   1.00  0.93  2.21
    2 H    1     0.43   0.43
    3 H    1     0.43   0.43

   Mulliken analysis of the beta density
   -------------------------------------

    Atom       Charge   Shell Charges
 -----------   ------   -------------------------------------------------------
    1 O    8     4.14   1.00  0.93  2.21
    2 H    1     0.43   0.43
    3 H    1     0.43   0.43

   Mulliken analysis of the spin density
   -------------------------------------

    Atom       Charge   Shell Charges
 -----------   ------   -------------------------------------------------------
    1 O    8     0.00   0.00  0.00  0.00
    2 H    1     0.00   0.00
    3 H    1     0.00   0.00

       Multipole analysis of the density wrt the origin
       ------------------------------------------------

     L   x y z        total         alpha         beta         nuclear
     -   - - -        -----         -----         ----         -------
     0   0 0 0      0.000000     -5.000000     -5.000000     10.000000

     1   1 0 0      0.000000      0.000000      0.000000      0.000000
     1   0 1 0      0.000000      0.000000      0.000000      0.000000
     1   0 0 1     -0.560194      0.183751      0.183751     -0.927695

     2   2 0 0     -2.770226     -4.775088     -4.775088      6.779949
     2   1 1 0     -0.000000     -0.000000     -0.000000      0.000000
     2   1 0 1     -0.000000     -0.000000     -0.000000      0.000000
     2   0 2 0     -4.613257     -2.306628     -2.306628      0.000000
     2   0 1 1      0.000000      0.000000      0.000000      0.000000
     2   0 0 2     -4.068129     -2.964446     -2.964446      1.860763


      -----------------------------------
      Indirect Spin-Spin Coupling Tensors
      -----------------------------------


      ---------------------------------------------------
      Calculating Fermi-Contact and Spin-Dipole Responses
      ---------------------------------------------------

                                NWChem CPHF Module
                                ------------------


  scftype          =     UHF 
  nalpha           =        5
  nbeta            =        5
  variables        =       20
  # of vectors     =       39
  tolerance        = 0.10D-03
  level shift      = 0.00D+00
  max iterations   =       50
  max subspace     =      390

 SCF residual:    7.0289431194002527E-006


Iterative solution of linear equations
  No. of variables       20
  No. of equations       39
  Maximum subspace      390
        Iterations       50
       Convergence  1.0D-04
        Start time      0.1


   iter   nsub   residual    time
   ----  ------  --------  ---------
     1     39    2.42D+00       0.2
     2     78    2.35D-11       0.2

      ----------------------------------------------
      Calculating Paramagnetic Spin-Orbit Responses
      ----------------------------------------------

                                NWChem CPHF Module
                                ------------------


  scftype          =     UHF 
  nalpha           =        5
  nbeta            =        5
  variables        =       20
  # of vectors     =        9
  tolerance        = 0.10D-03
  level shift      = 0.00D+00
  max iterations   =       50
  max subspace     =       90

 SCF residual:    7.0289431194002527E-006


Iterative solution of linear equations
  No. of variables       20
  No. of equations        9
  Maximum subspace       90
        Iterations       50
       Convergence  1.0D-04
        Start time      0.3


   iter   nsub   residual    time
   ----  ------  --------  ---------
     1      9    7.35D+00       0.3
     2     18    1.82D-01       0.3
     3     27    2.46D-03       0.3
     4     36    7.08D-05       0.3

      ----------------------------------
      Indirect Spin-Spin Tensors (in Hz)
      ----------------------------------

      -------------------------------------------------
      Atom    1:  17-O  and Atom    2:   1-H 

      Respective Nuclear g-factors: -.757520 & 5.585689
      -------------------------------------------------

      Fermi Contact (FC) Term (Hz):
     72.4865     -0.0000     -0.0000
     -0.0000     72.4865     -0.0000
     -0.0000     -0.0000     72.4865
        Isotropic =      72.4865

      Spin-Dipole   (SD) Term (Hz):
      1.8614     -0.0000      5.7124
      0.0000      3.4597      0.0000
     -0.6790     -0.0000      0.5635
        Isotropic =       1.9615

      FC - SD  Cross Term (Hz):
    -11.4506      0.0000    -65.2964
      0.0000     58.2943      0.0000
    -65.2964      0.0000    -46.8438
        Isotropic =       0.0000

      Paramagnetic Spin-Orbit Term (Hz):
      1.7740      0.0000     11.1870
     -0.0000     -6.3823      0.0000
     15.4524      0.0000     -5.7134
        Isotropic =      -3.4406

      Diamagnetic Spin-Orbit Term (Hz):
     -6.2380     -0.0000     -5.8545
     -0.0000      4.3582     -0.0000
     -5.9367     -0.0000      0.8745
        Isotropic =      -0.3351

      Total Spin-Spin Coupling Tensor (Hz):
     58.4334      0.0000    -54.2515
      0.0000    132.2163      0.0000
    -56.4596      0.0000     21.3673


      Isotropic Spin-Spin Coupling =      70.6723 Hz



      -------------------------------------------------
      Atom    1:  17-O  and Atom    3:   1-H 

      Respective Nuclear g-factors: -.757520 & 5.585689
      -------------------------------------------------

      Fermi Contact (FC) Term (Hz):
     72.4865     -0.0000     -0.0000
     -0.0000     72.4865     -0.0000
     -0.0000     -0.0000     72.4865
        Isotropic =      72.4865

      Spin-Dipole   (SD) Term (Hz):
      1.8614      0.0000     -5.7124
      0.0000      3.4597      0.0000
      0.6790      0.0000      0.5635
        Isotropic =       1.9615

      FC - SD  Cross Term (Hz):
    -11.4506     -0.0000     65.2964
     -0.0000     58.2943      0.0000
     65.2964      0.0000    -46.8438
        Isotropic =       0.0000

      Paramagnetic Spin-Orbit Term (Hz):
      1.7740      0.0000    -11.1870
     -0.0000     -6.3823      0.0000
    -15.4524     -0.0000     -5.7134
        Isotropic =      -3.4406

      Diamagnetic Spin-Orbit Term (Hz):
     -6.2380      0.0000      5.8545
     -0.0000      4.3582     -0.0000
      5.9367     -0.0000      0.8745
        Isotropic =      -0.3351

      Total Spin-Spin Coupling Tensor (Hz):
     58.4334     -0.0000     54.2515
     -0.0000    132.2163      0.0000
     56.4596      0.0000     21.3673


      Isotropic Spin-Spin Coupling =      70.6723 Hz



      -------------------------------------------------
      Atom    2:   1-H  and Atom    1:  17-O 

      Respective Nuclear g-factors: 5.585689 & -.757520
      -------------------------------------------------

      Fermi Contact (FC) Term (Hz):
     72.4865     -0.0000     -0.0000
     -0.0000     72.4865     -0.0000
     -0.0000     -0.0000     72.4865
        Isotropic =      72.4865

      Spin-Dipole   (SD) Term (Hz):
      1.8614      0.0000     -0.6790
     -0.0000      3.4597     -0.0000
      5.7124      0.0000      0.5635
        Isotropic =       1.9615

      FC - SD  Cross Term (Hz):
    -11.4506      0.0000    -65.2964
      0.0000     58.2943      0.0000
    -65.2964      0.0000    -46.8438
        Isotropic =       0.0000

      Paramagnetic Spin-Orbit Term (Hz):
      1.7740     -0.0000     15.4524
      0.0000     -6.3823      0.0000
     11.1870      0.0000     -5.7134
        Isotropic =      -3.4406

      Diamagnetic Spin-Orbit Term (Hz):
     -6.2380     -0.0000     -5.9367
     -0.0000      4.3582     -0.0000
     -5.8545     -0.0000      0.8745
        Isotropic =      -0.3351

      Total Spin-Spin Coupling Tensor (Hz):
     58.4334      0.0000    -56.4596
      0.0000    132.2163      0.0000
    -54.2515      0.0000     21.3673


      Isotropic Spin-Spin Coupling =      70.6723 Hz



      -------------------------------------------------
      Atom    2:   1-H  and Atom    3:   1-H 

      Respective Nuclear g-factors: 5.585689 & 5.585689
      -------------------------------------------------

      Fermi Contact (FC) Term (Hz):
   -123.2706      0.0000      0.0000
      0.0000   -123.2706      0.0000
      0.0000      0.0000   -123.2706
        Isotropic =    -123.2706

      Spin-Dipole   (SD) Term (Hz):
      0.3771     -0.0000     -3.0499
      0.0000     -1.9415      0.0000
      3.0499      0.0000      2.9600
        Isotropic =       0.4652

      FC - SD  Cross Term (Hz):
     42.5346      0.0000      0.0000
      0.0000    -46.7566     -0.0000
      0.0000     -0.0000      4.2220
        Isotropic =      -0.0000

      Paramagnetic Spin-Orbit Term (Hz):
      1.6011      0.0000     -1.3361
     -0.0000      1.0142      0.0000
      1.3361     -0.0000      3.8332
        Isotropic =       2.1495

      Diamagnetic Spin-Orbit Term (Hz):
      5.3341     -0.0000      5.3250
     -0.0000     -9.6584      0.0000
     -5.3250      0.0000    -11.8481
        Isotropic =      -5.3908

      Total Spin-Spin Coupling Tensor (Hz):
    -73.4238      0.0000      0.9389
      0.0000   -180.6129     -0.0000
     -0.9389     -0.0000   -124.1035


      Isotropic Spin-Spin Coupling =    -126.0467 Hz



      -------------------------------------------------
      Atom    3:   1-H  and Atom    1:  17-O 

      Respective Nuclear g-factors: 5.585689 & -.757520
      -------------------------------------------------

      Fermi Contact (FC) Term (Hz):
     72.4865     -0.0000     -0.0000
     -0.0000     72.4865     -0.0000
     -0.0000     -0.0000     72.4865
        Isotropic =      72.4865

      Spin-Dipole   (SD) Term (Hz):
      1.8614      0.0000      0.6790
      0.0000      3.4597      0.0000
     -5.7124      0.0000      0.5635
        Isotropic =       1.9615

      FC - SD  Cross Term (Hz):
    -11.4506     -0.0000     65.2964
     -0.0000     58.2943      0.0000
     65.2964      0.0000    -46.8438
        Isotropic =       0.0000

      Paramagnetic Spin-Orbit Term (Hz):
      1.7740     -0.0000    -15.4524
      0.0000     -6.3823     -0.0000
    -11.1870     -0.0000     -5.7134
        Isotropic =      -3.4406

      Diamagnetic Spin-Orbit Term (Hz):
     -6.2380     -0.0000      5.9367
      0.0000      4.3582     -0.0000
      5.8545     -0.0000      0.8745
        Isotropic =      -0.3351

      Total Spin-Spin Coupling Tensor (Hz):
     58.4334     -0.0000     56.4596
     -0.0000    132.2163      0.0000
     54.2515      0.0000     21.3673


      Isotropic Spin-Spin Coupling =      70.6723 Hz



      -------------------------------------------------
      Atom    3:   1-H  and Atom    2:   1-H 

      Respective Nuclear g-factors: 5.585689 & 5.585689
      -------------------------------------------------

      Fermi Contact (FC) Term (Hz):
   -123.2706      0.0000      0.0000
      0.0000   -123.2706      0.0000
      0.0000      0.0000   -123.2706
        Isotropic =    -123.2706

      Spin-Dipole   (SD) Term (Hz):
      0.3771      0.0000      3.0499
     -0.0000     -1.9415      0.0000
     -3.0499      0.0000      2.9600
        Isotropic =       0.4652

      FC - SD  Cross Term (Hz):
     42.5346      0.0000      0.0000
      0.0000    -46.7566     -0.0000
      0.0000     -0.0000      4.2220
        Isotropic =      -0.0000

      Paramagnetic Spin-Orbit Term (Hz):
      1.6011     -0.0000      1.3361
      0.0000      1.0142     -0.0000
     -1.3361      0.0000      3.8332
        Isotropic =       2.1495

      Diamagnetic Spin-Orbit Term (Hz):
      5.3341     -0.0000     -5.3250
     -0.0000     -9.6584      0.0000
      5.3250      0.0000    -11.8481
        Isotropic =      -5.3908

      Total Spin-Spin Coupling Tensor (Hz):
    -73.4238      0.0000     -0.9389
      0.0000   -180.6129     -0.0000
      0.9389     -0.0000   -124.1035


      Isotropic Spin-Spin Coupling =    -126.0467 Hz




 Task  times  cpu:        0.3s     wall:        0.3s


                                NWChem Input Module
                                -------------------


                              NWChem Property Module
                              ----------------------


                                        h2o

  itol2e modified to match energy
  convergence criterion.

                                 NWChem DFT Module
                                 -----------------


                                        h2o




 Summary of "ao basis" -> "ao basis" (cartesian)
 ------------------------------------------------------------------------------
       Tag                 Description            Shells   Functions and Types
 ---------------- ------------------------------  ------  ---------------------
 H                           sto-3g                  1        1   1s
 O                           sto-3g                  3        5   2s1p


  Caching 1-el integrals 
  itol2e modified to match energy
  convergence criterion.

            General Information
            -------------------
          SCF calculation type: DFT
          Wavefunction type:  spin polarized.
          No. of atoms     :     3
          No. of electrons :    10
           Alpha electrons :     5
            Beta electrons :     5
          Charge           :     0
          Spin multiplicity:     1
          Use of symmetry is: off; symmetry adaption is: off
          Maximum number of iterations:  30
          AO basis - number of functions:     7
                     number of shells:     5
          Convergence on energy requested:  1.00D-07
          Convergence on density requested:  1.00D-05
          Convergence on gradient requested:  5.00D-04

              XC Information
              --------------
                         B3LYP Method XC Potential
                     Hartree-Fock (Exact) Exchange  0.200          
                        Slater Exchange Functional  0.800 local    
                    Becke 1988 Exchange Functional  0.720 non-local
              Lee-Yang-Parr Correlation Functional  0.810          
                  VWN I RPA Correlation Functional  0.190 local    

             Grid Information
             ----------------
          Grid used for XC integration:  fine      
          Radial quadrature: Mura-Knowles        
          Angular quadrature: Lebedev. 
          Tag              B.-S. Rad. Rad. Pts. Rad. Cut. Ang. Pts.
          ---              ---------- --------- --------- ---------
          o                   0.60       70           5.0       590
          h                   0.35       60           7.0       590
          Grid pruning is: on 
          Number of quadrature shells:   190
          Spatial weights used:  Erf1

          Convergence Information
          -----------------------
          Convergence aids based upon iterative change in 
          total energy or number of iterations. 
          Levelshifting, if invoked, occurs when the 
          HOMO/LUMO gap drops below (HL_TOL):  1.00D-02
          DIIS, if invoked, will attempt to extrapolate 
          using up to (NFOCK): 10 stored Fock matrices.

                    Damping( 0%)  Levelshifting(0.5)       DIIS
                  --------------- ------------------- ---------------
          dE  on:    start            ASAP                start   
          dE off:    2 iters         30 iters            30 iters 


      Screening Tolerance Information
      -------------------------------
          Density screening/tol_rho:  1.00D-11
          AO Gaussian exp screening on grid/accAOfunc:  16
          CD Gaussian exp screening on grid/accCDfunc:  20
          XC Gaussian exp screening on grid/accXCfunc:  20
          Schwarz screening/accCoul:  1.00D-08


      Superposition of Atomic Density Guess
      -------------------------------------

 Sum of atomic energies:         -74.71095592

      Non-variational initial energy
      ------------------------------

 Total energy =     -74.317721
 1-e energy   =    -119.270021
 2-e energy   =      37.137562
 HOMO         =      -0.227821
 LUMO         =       0.298134

   Time after variat. SCF:      0.4
   Time prior to 1st pass:      0.4

 Grid_pts file          = ./prop_hf_h2o.gridpts.0
 Record size in doubles =  12289        No. of grid_pts per rec  =   3070
 Max. records in memory =     12        Max. recs in file   = 253312716


           Memory utilization after 1st SCF pass: 
           Heap Space remaining (MW):       51.64            51641492
          Stack Space remaining (MW):       86.25            86246948

   convergence    iter        energy       DeltaE   RMS-Dens  Diis-err    time
 ---------------- ----- ----------------- --------- --------- ---------  ------
 d= 0,ls=0.0,diis     1    -75.2240285979 -8.30D+01  9.26D-02  7.99D-02     0.4
                                                     9.26D-02  7.99D-02
 d= 0,ls=0.0,diis     2    -75.2118898658  1.21D-02  4.91D-02  9.87D-02     0.4
                                                     4.91D-02  9.87D-02
 d= 0,ls=0.0,diis     3    -75.2870526639 -7.52D-02  1.13D-03  6.69D-05     0.5
                                                     1.13D-03  6.69D-05
 d= 0,ls=0.0,diis     4    -75.2871025250 -4.99D-05  3.98D-05  9.03D-08     0.5
                                                     3.98D-05  9.03D-08
 d= 0,ls=0.0,diis     5    -75.2871025924 -6.74D-08  3.85D-06  7.11D-10     0.5
                                                     3.85D-06  7.11D-10


         Total DFT energy =      -75.287102592425
      One electron energy =     -119.927030572857
           Coulomb energy =       46.169323972689
    Exchange-Corr. energy =       -9.344133456829
 Nuclear repulsion energy =        7.814737464571

 Numeric. integr. density =       10.000000133105

     Total iterative time =      0.1s



                    DFT Final Alpha Molecular Orbital Analysis
                    ------------------------------------------

 Vector    1  Occ=1.000000D+00  E=-1.883699D+01
              MO Center=  2.6D-14,  7.4D-14,  6.2D-02, r^2= 1.5D-02
   Bfn.  Coefficient  Atom+Function         Bfn.  Coefficient  Atom+Function  
  ----- ------------  ---------------      ----- ------------  ---------------
     1      0.993732  1 O  s                  2      0.027014  1 O  s          

 Vector    2  Occ=1.000000D+00  E=-8.609986D-01
              MO Center= -1.8D-10, -4.3D-12, -1.1D-01, r^2= 5.6D-01
   Bfn.  Coefficient  Atom+Function         Bfn.  Coefficient  Atom+Function  
  ----- ------------  ---------------      ----- ------------  ---------------
     2      0.868572  1 O  s                  1     -0.237248  1 O  s          
     6      0.157581  2 H  s                  7      0.157581  3 H  s          
     5     -0.134000  1 O  pz         

 Vector    3  Occ=1.000000D+00  E=-4.025992D-01
              MO Center= -9.2D-12,  2.9D-22, -2.1D-01, r^2= 1.0D+00
   Bfn.  Coefficient  Atom+Function         Bfn.  Coefficient  Atom+Function  
  ----- ------------  ---------------      ----- ------------  ---------------
     3      0.587843  1 O  px                 6     -0.448648  2 H  s          
     7      0.448648  3 H  s          

 Vector    4  Occ=1.000000D+00  E=-1.989068D-01
              MO Center=  2.7D-11, -7.1D-12,  8.0D-02, r^2= 7.4D-01
   Bfn.  Coefficient  Atom+Function         Bfn.  Coefficient  Atom+Function  
  ----- ------------  ---------------      ----- ------------  ---------------
     5      0.766244  1 O  pz                 2      0.515069  1 O  s          
     6     -0.328420  2 H  s                  7     -0.328420  3 H  s          
     1     -0.105485  1 O  s          

 Vector    5  Occ=1.000000D+00  E=-1.304627D-01
              MO Center=  2.4D-23,  1.1D-11,  6.2D-02, r^2= 4.2D-01
   Bfn.  Coefficient  Atom+Function         Bfn.  Coefficient  Atom+Function  
  ----- ------------  ---------------      ----- ------------  ---------------
     4      1.000000  1 O  py         

 Vector    6  Occ=0.000000D+00  E= 1.944120D-01
              MO Center= -6.5D-10,  4.4D-13, -3.8D-01, r^2= 1.3D+00
   Bfn.  Coefficient  Atom+Function         Bfn.  Coefficient  Atom+Function  
  ----- ------------  ---------------      ----- ------------  ---------------
     6     -0.706667  2 H  s                  7     -0.706667  3 H  s          
     5     -0.680902  1 O  pz                 2      0.645012  1 O  s          
     1     -0.109943  1 O  s          

 Vector    7  Occ=0.000000D+00  E= 3.489943D-01
              MO Center=  8.1D-10, -2.6D-23, -2.5D-01, r^2= 1.2D+00
   Bfn.  Coefficient  Atom+Function         Bfn.  Coefficient  Atom+Function  
  ----- ------------  ---------------      ----- ------------  ---------------
     3      0.943588  1 O  px                 6      0.713238  2 H  s          
     7     -0.713238  3 H  s          


                     DFT Final Beta Molecular Orbital Analysis
                     -----------------------------------------

 Vector    1  Occ=1.000000D+00  E=-1.883699D+01
              MO Center=  2.6D-14,  7.4D-14,  6.2D-02, r^2= 1.5D-02
   Bfn.  Coefficient  Atom+Function         Bfn.  Coefficient  Atom+Function  
  ----- ------------  ---------------      ----- ------------  ---------------
     1      0.993732  1 O  s                  2      0.027014  1 O  s          

 Vector    2  Occ=1.000000D+00  E=-8.609986D-01
              MO Center= -1.8D-10, -4.3D-12, -1.1D-01, r^2= 5.6D-01
   Bfn.  Coefficient  Atom+Function         Bfn.  Coefficient  Atom+Function  
  ----- ------------  ---------------      ----- ------------  ---------------
     2      0.868572  1 O  s                  1     -0.237248  1 O  s          
     6      0.157581  2 H  s                  7      0.157581  3 H  s          
     5     -0.134000  1 O  pz         

 Vector    3  Occ=1.000000D+00  E=-4.025992D-01
              MO Center= -9.2D-12,  2.9D-22, -2.1D-01, r^2= 1.0D+00
   Bfn.  Coefficient  Atom+Function         Bfn.  Coefficient  Atom+Function  
  ----- ------------  ---------------      ----- ------------  ---------------
     3      0.587843  1 O  px                 6     -0.448648  2 H  s          
     7      0.448648  3 H  s          

 Vector    4  Occ=1.000000D+00  E=-1.989068D-01
              MO Center=  2.7D-11, -7.1D-12,  8.0D-02, r^2= 7.4D-01
   Bfn.  Coefficient  Atom+Function         Bfn.  Coefficient  Atom+Function  
  ----- ------------  ---------------      ----- ------------  ---------------
     5      0.766244  1 O  pz                 2      0.515069  1 O  s          
     6     -0.328420  2 H  s                  7     -0.328420  3 H  s          
     1     -0.105485  1 O  s          

 Vector    5  Occ=1.000000D+00  E=-1.304627D-01
              MO Center=  2.4D-23,  1.1D-11,  6.2D-02, r^2= 4.2D-01
   Bfn.  Coefficient  Atom+Function         Bfn.  Coefficient  Atom+Function  
  ----- ------------  ---------------      ----- ------------  ---------------
     4      1.000000  1 O  py         

 Vector    6  Occ=0.000000D+00  E= 1.944120D-01
              MO Center= -6.5D-10,  4.4D-13, -3.8D-01, r^2= 1.3D+00
   Bfn.  Coefficient  Atom+Function         Bfn.  Coefficient  Atom+Function  
  ----- ------------  ---------------      ----- ------------  ---------------
     6     -0.706667  2 H  s                  7     -0.706667  3 H  s          
     5     -0.680902  1 O  pz                 2      0.645012  1 O  s          
     1     -0.109943  1 O  s          

 Vector    7  Occ=0.000000D+00  E= 3.489943D-01
              MO Center=  8.1D-10, -2.6D-23, -2.5D-01, r^2= 1.2D+00
   Bfn.  Coefficient  Atom+Function         Bfn.  Coefficient  Atom+Function  
  ----- ------------  ---------------      ----- ------------  ---------------
     3      0.943588  1 O  px                 6      0.713238  2 H  s          
     7     -0.713238  3 H  s          


   alpha - beta orbital overlaps 
   ----------------------------- 


   alpha      1      2      3      4      5      6      7
    beta      1      2      3      4      5      6      7
 overlap   1.000  1.000  1.000  1.000  1.000  1.000  1.000

     --------------------------
     Expectation value of S2:  
     --------------------------
      <S2> =     -0.0000 (Exact =     0.0000)


 center of mass
 --------------
 x =   0.00000000 y =   0.00000000 z =   0.00000000

 moments of inertia (a.u.)
 ------------------
           1.985523714464           0.000000000000           0.000000000000
           0.000000000000           8.818526119040           0.000000000000
           0.000000000000           0.000000000000           6.833002404577

     Multipole analysis of the density
     ---------------------------------

     L   x y z        total         alpha         beta         nuclear
     -   - - -        -----         -----         ----         -------
     0   0 0 0     -0.000000     -5.000000     -5.000000     10.000000

     1   1 0 0      0.000000      0.000000      0.000000      0.000000
     1   0 1 0      0.000000      0.000000      0.000000      0.000000
     1   0 0 1     -0.520589      0.203553      0.203553     -0.927695

     2   2 0 0     -2.842102     -4.811026     -4.811026      6.779949
     2   1 1 0     -0.000000     -0.000000     -0.000000      0.000000
     2   1 0 1     -0.000000     -0.000000     -0.000000      0.000000
     2   0 2 0     -4.620483     -2.310241     -2.310241      0.000000
     2   0 1 1     -0.000000     -0.000000     -0.000000      0.000000
     2   0 0 2     -4.072475     -2.966619     -2.966619      1.860763


      -----------------------------------
      Indirect Spin-Spin Coupling Tensors
      -----------------------------------


      ---------------------------------------------------
      Calculating Fermi-Contact and Spin-Dipole Responses
      ---------------------------------------------------

                                NWChem CPHF Module
                                ------------------


  scftype          =     UHF 
  nalpha           =        5
  nbeta            =        5
  variables        =       20
  # of vectors     =       39
  tolerance        = 0.10D-03
  level shift      = 0.00D+00
  max iterations   =       50
  max subspace     =      390

 SCF residual:    1.0358141239643667E-006


Iterative solution of linear equations
  No. of variables       20
  No. of equations       39
  Maximum subspace      390
        Iterations       50
       Convergence  1.0D-04
        Start time      0.5


   iter   nsub   residual    time
   ----  ------  --------  ---------
     1     39    1.35D+00       0.9
     2     78    8.05D-10       1.4

      ----------------------------------------------
      Calculating Paramagnetic Spin-Orbit Responses
      ----------------------------------------------

                                NWChem CPHF Module
                                ------------------


  scftype          =     UHF 
  nalpha           =        5
  nbeta            =        5
  variables        =       20
  # of vectors     =        9
  tolerance        = 0.10D-03
  level shift      = 0.00D+00
  max iterations   =       50
  max subspace     =       90

 SCF residual:    1.0358141238022094E-006


Iterative solution of linear equations
  No. of variables       20
  No. of equations        9
  Maximum subspace       90
        Iterations       50
       Convergence  1.0D-04
        Start time      1.4


   iter   nsub   residual    time
   ----  ------  --------  ---------
     1      9    3.00D+00       1.5
     2     18    1.69D-02       1.7
     3     27    5.81D-05       1.8

      ----------------------------------
      Indirect Spin-Spin Tensors (in Hz)
      ----------------------------------

      -------------------------------------------------
      Atom    1:  17-O  and Atom    2:   1-H 

      Respective Nuclear g-factors: -.757520 & 5.585689
      -------------------------------------------------

      Fermi Contact (FC) Term (Hz):
     87.8545     -0.0000     -0.0000
     -0.0000     87.8545     -0.0000
     -0.0000     -0.0000     87.8545
        Isotropic =      87.8545

      Spin-Dipole   (SD) Term (Hz):
      0.5992     -0.0000      2.7656
      0.0000      1.8165      0.0000
     -0.5667     -0.0000      0.1882
        Isotropic =       0.8680

      FC - SD  Cross Term (Hz):
     -5.4782      0.0000    -44.0265
      0.0000     35.3832      0.0000
    -44.0265      0.0000    -29.9050
        Isotropic =      -0.0000

      Paramagnetic Spin-Orbit Term (Hz):
      2.8452     -0.0000     12.1103
     -0.0000     -6.1544      0.0000
     19.3917      0.0000     -6.2062
        Isotropic =      -3.1718

      Diamagnetic Spin-Orbit Term (Hz):
     -6.2319     -0.0000     -5.8622
      0.0000      4.3740      0.0000
     -5.9418     -0.0000      0.8747
        Isotropic =      -0.3277

      Total Spin-Spin Coupling Tensor (Hz):
     79.5887      0.0000    -35.0129
      0.0000    123.2739      0.0000
    -31.1434      0.0000     52.8063


      Isotropic Spin-Spin Coupling =      85.2230 Hz



      -------------------------------------------------
      Atom    1:  17-O  and Atom    3:   1-H 

      Respective Nuclear g-factors: -.757520 & 5.585689
      -------------------------------------------------

      Fermi Contact (FC) Term (Hz):
     87.8545     -0.0000     -0.0000
     -0.0000     87.8545     -0.0000
     -0.0000     -0.0000     87.8545
        Isotropic =      87.8545

      Spin-Dipole   (SD) Term (Hz):
      0.5992      0.0000     -2.7656
     -0.0000      1.8165      0.0000
      0.5667      0.0000      0.1882
        Isotropic =       0.8680

      FC - SD  Cross Term (Hz):
     -5.4782     -0.0000     44.0265
     -0.0000     35.3832      0.0000
     44.0265      0.0000    -29.9050
        Isotropic =      -0.0000

      Paramagnetic Spin-Orbit Term (Hz):
      2.8452      0.0000    -12.1103
      0.0000     -6.1544      0.0000
    -19.3917      0.0000     -6.2062
        Isotropic =      -3.1718

      Diamagnetic Spin-Orbit Term (Hz):
     -6.2319      0.0000      5.8622
      0.0000      4.3740      0.0000
      5.9418     -0.0000      0.8747
        Isotropic =      -0.3277

      Total Spin-Spin Coupling Tensor (Hz):
     79.5887     -0.0000     35.0129
     -0.0000    123.2739      0.0000
     31.1434      0.0000     52.8063


      Isotropic Spin-Spin Coupling =      85.2230 Hz



      -------------------------------------------------
      Atom    2:   1-H  and Atom    1:  17-O 

      Respective Nuclear g-factors: 5.585689 & -.757520
      -------------------------------------------------

      Fermi Contact (FC) Term (Hz):
     87.8545     -0.0000     -0.0000
     -0.0000     87.8545     -0.0000
     -0.0000     -0.0000     87.8545
        Isotropic =      87.8545

      Spin-Dipole   (SD) Term (Hz):
      0.5992      0.0000     -0.5667
     -0.0000      1.8165     -0.0000
      2.7656      0.0000      0.1882
        Isotropic =       0.8680

      FC - SD  Cross Term (Hz):
     -5.4782      0.0000    -44.0265
      0.0000     35.3832      0.0000
    -44.0265      0.0000    -29.9050
        Isotropic =      -0.0000

      Paramagnetic Spin-Orbit Term (Hz):
      2.8452     -0.0000     19.3917
     -0.0000     -6.1544      0.0000
     12.1103      0.0000     -6.2062
        Isotropic =      -3.1718

      Diamagnetic Spin-Orbit Term (Hz):
     -6.2319      0.0000     -5.9418
     -0.0000      4.3740     -0.0000
     -5.8622      0.0000      0.8747
        Isotropic =      -0.3277

      Total Spin-Spin Coupling Tensor (Hz):
     79.5887      0.0000    -31.1434
      0.0000    123.2739      0.0000
    -35.0129      0.0000     52.8063


      Isotropic Spin-Spin Coupling =      85.2230 Hz



      -------------------------------------------------
      Atom    2:   1-H  and Atom    3:   1-H 

      Respective Nuclear g-factors: 5.585689 & 5.585689
      -------------------------------------------------

      Fermi Contact (FC) Term (Hz):
    -42.0661      0.0000      0.0000
      0.0000    -42.0661      0.0000
      0.0000      0.0000    -42.0661
        Isotropic =     -42.0661

      Spin-Dipole   (SD) Term (Hz):
      0.3188     -0.0000     -1.4799
      0.0000     -0.9642      0.0000
      1.4799      0.0000      1.5724
        Isotropic =       0.3090

      FC - SD  Cross Term (Hz):
     18.7050     -0.0000     -0.0000
     -0.0000    -24.3491     -0.0000
     -0.0000     -0.0000      5.6440
        Isotropic =       0.0000

      Paramagnetic Spin-Orbit Term (Hz):
      1.6842      0.0000     -1.6744
     -0.0000      1.4896     -0.0000
      1.6744     -0.0000      4.6716
        Isotropic =       2.6151

      Diamagnetic Spin-Orbit Term (Hz):
      5.3416     -0.0000      5.3171
      0.0000     -9.6477      0.0000
     -5.3171      0.0000    -11.8327
        Isotropic =      -5.3796

      Total Spin-Spin Coupling Tensor (Hz):
    -16.0164      0.0000      2.1628
     -0.0000    -75.5376     -0.0000
     -2.1628     -0.0000    -42.0108


      Isotropic Spin-Spin Coupling =     -44.5216 Hz



      -------------------------------------------------
      Atom    3:   1-H  and Atom    1:  17-O 

      Respective Nuclear g-factors: 5.585689 & -.757520
      -------------------------------------------------

      Fermi Contact (FC) Term (Hz):
     87.8545     -0.0000     -0.0000
     -0.0000     87.8545     -0.0000
     -0.0000     -0.0000     87.8545
        Isotropic =      87.8545

      Spin-Dipole   (SD) Term (Hz):
      0.5992     -0.0000      0.5667
      0.0000      1.8165      0.0000
     -2.7656      0.0000      0.1882
        Isotropic =       0.8680

      FC - SD  Cross Term (Hz):
     -5.4782     -0.0000     44.0265
     -0.0000     35.3832      0.0000
     44.0265      0.0000    -29.9050
        Isotropic =      -0.0000

      Paramagnetic Spin-Orbit Term (Hz):
      2.8452      0.0000    -19.3917
      0.0000     -6.1544      0.0000
    -12.1103      0.0000     -6.2062
        Isotropic =      -3.1718

      Diamagnetic Spin-Orbit Term (Hz):
     -6.2319      0.0000      5.9418
      0.0000      4.3740     -0.0000
      5.8622      0.0000      0.8747
        Isotropic =      -0.3277

      Total Spin-Spin Coupling Tensor (Hz):
     79.5887     -0.0000     31.1434
     -0.0000    123.2739      0.0000
     35.0129      0.0000     52.8063


      Isotropic Spin-Spin Coupling =      85.2230 Hz



      -------------------------------------------------
      Atom    3:   1-H  and Atom    2:   1-H 

      Respective Nuclear g-factors: 5.585689 & 5.585689
      -------------------------------------------------

      Fermi Contact (FC) Term (Hz):
    -42.0661      0.0000      0.0000
      0.0000    -42.0661      0.0000
      0.0000      0.0000    -42.0661
        Isotropic =     -42.0661

      Spin-Dipole   (SD) Term (Hz):
      0.3188      0.0000      1.4799
     -0.0000     -0.9642      0.0000
     -1.4799      0.0000      1.5724
        Isotropic =       0.3090

      FC - SD  Cross Term (Hz):
     18.7050     -0.0000     -0.0000
     -0.0000    -24.3491     -0.0000
     -0.0000     -0.0000      5.6440
        Isotropic =       0.0000

      Paramagnetic Spin-Orbit Term (Hz):
      1.6842     -0.0000      1.6744
      0.0000      1.4896     -0.0000
     -1.6744     -0.0000      4.6716
        Isotropic =       2.6151

      Diamagnetic Spin-Orbit Term (Hz):
      5.3416      0.0000     -5.3171
     -0.0000     -9.6477      0.0000
      5.3171      0.0000    -11.8327
        Isotropic =      -5.3796

      Total Spin-Spin Coupling Tensor (Hz):
    -16.0164     -0.0000     -2.1628
      0.0000    -75.5376     -0.0000
      2.1628     -0.0000    -42.0108


      Isotropic Spin-Spin Coupling =     -44.5216 Hz




 Task  times  cpu:        1.4s     wall:        1.4s


                                NWChem Input Module
                                -------------------


 Summary of allocated global arrays
-----------------------------------
  No active global arrays



                         GA Statistics for process    0
                         ------------------------------

       create   destroy   get      put      acc     scatter   gather  read&inc
calls: 4236     4236     7.92e+04 1.13e+04 4.76e+04 3407        0      271     
number of processes/call 1.21e+00 1.69e+00 1.79e+00 0.00e+00 0.00e+00
bytes total:             7.19e+06 1.78e+06 3.82e+06 3.92e+02 0.00e+00 2.17e+03
bytes remote:            9.92e+05 4.45e+05 1.70e+06 0.00e+00 0.00e+00 0.00e+00
Max memory consumed for GA by this process: 225336 bytes

MA_summarize_allocated_blocks: starting scan ...
heap block 'gridpts', handle 88, address 0x55e0e8c16968:
	type of elements:		double precision
	number of elements:		34457336
	address of client space:	0x55e0e8c169c0
	index for client space:		11843403
	total number of bytes:		275658784
MA_summarize_allocated_blocks: scan completed: 1 heap block, 0 stack blocks
MA usage statistics:

	allocation statistics:
					      heap	     stack
					      ----	     -----
	current number of blocks	         1	         0
	maximum number of blocks	        26	        57
	current total bytes		 275658784	         0
	maximum total bytes		 276845416	  22510440
	maximum total K-bytes		    276846	     22511
	maximum total M-bytes		       277	        23


                                     CITATION
                                     --------
                Please cite the following reference when publishing
                           results obtained with NWChem:

                 M. Valiev, E.J. Bylaska, N. Govind, K. Kowalski,
              T.P. Straatsma, H.J.J. van Dam, D. Wang, J. Nieplocha,
                        E. Apra, T.L. Windus, W.A. de Jong
                 "NWChem: a comprehensive and scalable open-source
                  solution for large scale molecular simulations"
                      Comput. Phys. Commun. 181, 1477 (2010)
                           doi:10.1016/j.cpc.2010.04.018

                                      AUTHORS
                                      -------
          E. Apra, E. J. Bylaska, W. A. de Jong, N. Govind, K. Kowalski,
       T. P. Straatsma, M. Valiev, H. J. J. van Dam, D. Wang, T. L. Windus,
        J. Hammond, J. Autschbach, K. Bhaskaran-Nair, J. Brabec, K. Lopata,
    S. A. Fischer, S. Krishnamoorthy, M. Jacquelin, W. Ma, M. Klemm, O. Villa,
      Y. Chen, V. Anisimov, F. Aquino, S. Hirata, M. T. Hackler, V. Konjkov,
            D. Mejia-Rodriguez, T. Risthaus, M. Malagoli, A. Marenich,
   A. Otero-de-la-Roza, J. Mullin, P. Nichols, R. Peverati, J. Pittner, Y. Zhao,
        P.-D. Fan, A. Fonari, M. J. Williamson, R. J. Harrison, J. R. Rehr,
      M. Dupuis, D. Silverstein, D. M. A. Smith, J. Nieplocha, V. Tipparaju,
    M. Krishnan, B. E. Van Kuiken, A. Vazquez-Mayagoitia, L. Jensen, M. Swart,
      Q. Wu, T. Van Voorhis, A. A. Auer, M. Nooijen, L. D. Crosby, E. Brown,
      G. Cisneros, G. I. Fann, H. Fruchtl, J. Garza, K. Hirao, R. A. Kendall,
      J. A. Nichols, K. Tsemekhman, K. Wolinski, J. Anchell, D. E. Bernholdt,
      P. Borowski, T. Clark, D. Clerc, H. Dachsel, M. J. O. Deegan, K. Dyall,
    D. Elwood, E. Glendening, M. Gutowski, A. C. Hess, J. Jaffe, B. G. Johnson,
     J. Ju, R. Kobayashi, R. Kutteh, Z. Lin, R. Littlefield, X. Long, B. Meng,
      T. Nakajima, S. Niu, L. Pollack, M. Rosing, K. Glaesemann, G. Sandrone,
      M. Stave, H. Taylor, G. Thomas, J. H. van Lenthe, A. T. Wong, Z. Zhang.

 Total times  cpu:        1.8s     wall:        1.8s
