 argument  1 = /home/list1234/source/nwchem-6.8.1-release/QA/tests/ptatom/ptatom.nw



============================== echo of input deck ==============================
echo
start ptatom

geometry pt units au
 symmetry oh
 Pt 0       0        0
end

geometry pt-bq units au
#symmetry oh
 Pt  0       0        0
 bq  0       7        0   charge -0.25
 bq  0      -7        0   charge -0.25
 bq  7       0        0   charge -0.25
 bq -7       0        0   charge -0.25
end

BASIS "ao basis" PRINT
#BASIS SET: (8s,7p,6d) -> [6s,5p,3d]
Pt    S
     16.5595630             -0.8849447
     13.8924400              1.5011228
      5.8536080             -1.5529012
Pt    S
      1.2873200              1.0000000
Pt    S
      0.6047320              1.0000000
Pt    S
      0.1427830              1.0000000
Pt    S
      0.0509690              1.0000000
Pt    S
      0.0150000              1.0000000
Pt    P
      7.9251750              4.9530757
      7.3415380             -5.8982100
Pt    P
      1.9125150              0.3047425
      1.0715450              0.7164894
Pt    P
      0.4379170              1.0000000
Pt    P
      0.0936210              1.0000000
Pt    P
      0.0278020              1.0000000
Pt    D
      3.9395310             -0.5826439
      3.5877770              0.5922576
      1.2862310              0.4736921
      0.5198140              0.5765202
Pt    D
      0.1747150              1.0000000
Pt    D
      0.0500000              1.0000000
END
# ELEMENTS                      REFERENCES
#  ---------                       ----------
#


ECP
Pt nelec 60
Pt ul
2      1.000000000            0.000000000
Pt S
2     13.428651000          579.223861000
2      6.714326000           29.669491000
Pt P
2     10.365944000          280.860774000
2      5.182972000           26.745382000
Pt D
2      7.600479000          120.396444000
2      3.800240000           15.810921000
Pt F
2      3.309569000           24.314376000
Pt G
2      5.277289000          -24.218675000
END

dft
 max_ovl
 mult 3
 odft
 xc xpbe96 cpbe96
 iterations 1000
end

set geometry pt-bq
charge -1
dft
  vectors input atomic output pt.mos
end

task dft

set geometry pt
charge 0
dft
  vectors input pt.mos
end

task dft
================================================================================


                                         
                                         


              Northwest Computational Chemistry Package (NWChem) 6.8
              ------------------------------------------------------


                    Environmental Molecular Sciences Laboratory
                       Pacific Northwest National Laboratory
                                Richland, WA 99352

                              Copyright (c) 1994-2018
                       Pacific Northwest National Laboratory
                            Battelle Memorial Institute

             NWChem is an open-source computational chemistry package
                        distributed under the terms of the
                      Educational Community License (ECL) 2.0
             A copy of the license is included with this distribution
                              in the LICENSE.TXT file

                                  ACKNOWLEDGMENT
                                  --------------

            This software and its documentation were developed at the
            EMSL at Pacific Northwest National Laboratory, a multiprogram
            national laboratory, operated for the U.S. Department of Energy
            by Battelle under Contract Number DE-AC05-76RL01830. Support
            for this work was provided by the Department of Energy Office
            of Biological and Environmental Research, Office of Basic
            Energy Sciences, and the Office of Advanced Scientific Computing.


           Job information
           ---------------

    hostname        = list1234-B360M-H
    program         = /home/list1234/source/nwchem-6.8.1-release/bin/LINUX64/nwchem
    date            = Sun Jun 30 07:49:25 2019

    compiled        = Sun_Jun_30_05:21:11_2019
    source          = /home/list1234/source/nwchem-6.8.1-release
    nwchem branch   = Development
    nwchem revision = N/A
    ga revision     = 5.6.5
    use scalapack   = T
    input           = /home/list1234/source/nwchem-6.8.1-release/QA/tests/ptatom/ptatom.nw
    prefix          = ptatom.
    data base       = ./ptatom.db
    status          = startup
    nproc           =        4
    time left       =     -1s



           Memory information
           ------------------

    heap     =   86247168 doubles =    658.0 Mbytes
    stack    =   86247165 doubles =    658.0 Mbytes
    global   =  172494336 doubles =   1316.0 Mbytes (distinct from heap & stack)
    total    =  344988669 doubles =   2632.1 Mbytes
    verify   = yes
    hardfail = no 


           Directory information
           ---------------------

  0 permanent = .
  0 scratch   = .




                                NWChem Input Module
                                -------------------




                                Geometry "pt" -> ""
                                -------------------

 Output coordinates in a.u. (scale by  1.000000000 to convert to a.u.)

  No.       Tag          Charge          X              Y              Z
 ---- ---------------- ---------- -------------- -------------- --------------
    1 Pt                  78.0000     0.00000000     0.00000000     0.00000000

      Atomic Mass 
      ----------- 

      Pt               194.964800


 Effective nuclear repulsion energy (a.u.)       0.0000000000

            Nuclear Dipole moment (a.u.) 
            ----------------------------
        X                 Y               Z
 ---------------- ---------------- ----------------
     0.0000000000     0.0000000000     0.0000000000

      Symmetry information
      --------------------

 Group name              Oh       
 Group number             44
 Group order              48
 No. of unique centers     1

      Symmetry unique atoms

     1


            XYZ format geometry
            -------------------
     1
 pt
 Pt                    0.00000000     0.00000000     0.00000000

 D4H symmetry detected

          ------
          auto-z
          ------
  Looking for out-of-plane bends
  no constraints, skipping    0.0000000000000000     
  no constraints, skipping    0.0000000000000000     


                             Geometry "pt-bq" -> "  "
                             ------------------------

 Output coordinates in a.u. (scale by  1.000000000 to convert to a.u.)

  No.       Tag          Charge          X              Y              Z
 ---- ---------------- ---------- -------------- -------------- --------------
    1 Pt                  78.0000     0.00000000     0.00000000     0.00000000
    2 bq                  -0.2500     7.00000000     0.00000000     0.00000000
    3 bq                  -0.2500    -7.00000000     0.00000000     0.00000000
    4 bq                  -0.2500     0.00000000    -7.00000000     0.00000000
    5 bq                  -0.2500     0.00000000     7.00000000     0.00000000

      Atomic Mass 
      ----------- 

      Pt               194.964800


 Effective nuclear repulsion energy (a.u.)     -11.1428571429

            Nuclear Dipole moment (a.u.) 
            ----------------------------
        X                 Y               Z
 ---------------- ---------------- ----------------
     0.0000000000     0.0000000000     0.0000000000

      Symmetry information
      --------------------

 Group name             D4h       
 Group number             28
 Group order              16
 No. of unique centers     2

      Symmetry unique atoms

     1    2



                                Z-matrix (autoz)
                                -------- 

 Units are Angstrom for bonds and degrees for angles

      Type          Name      I     J     K     L     M      Value
      ----------- --------  ----- ----- ----- ----- ----- ----------
    1 Stretch                  1     2                       3.70424
    2 Stretch                  1     3                       3.70424
    3 Stretch                  1     4                       3.70424
    4 Stretch                  1     5                       3.70424
    5 Bend                     2     1     4                90.00000
    6 Bend                     2     1     5                90.00000
    7 Bend                     3     1     4                90.00000
    8 Bend                     3     1     5                90.00000
    9 Torsion                  2     1     4     3         180.00000
   10 Torsion                  2     1     5     3         180.00000
   11 Torsion                  2     4     1     3         180.00000
   12 Torsion                  2     5     1     3         180.00000
   13 Torsion                  4     1     2     5         180.00000
   14 Torsion                  4     1     3     5         180.00000
   15 Torsion                  4     2     1     5         180.00000
   16 Torsion                  4     3     1     5         180.00000


            XYZ format geometry
            -------------------
     5
 pt-bq
 Pt                    0.00000000     0.00000000     0.00000000
 bq                    3.70424074     0.00000000     0.00000000
 bq                   -3.70424074     0.00000000     0.00000000
 bq                    0.00000000    -3.70424074     0.00000000
 bq                    0.00000000     3.70424074     0.00000000

                      Basis "ao basis" -> "" (cartesian)
                      -----
  Pt (Platinum)
  -------------
            Exponent  Coefficients 
       -------------- ---------------------------------------------------------
  1 S  1.65595630E+01 -0.884945
  1 S  1.38924400E+01  1.501123
  1 S  5.85360800E+00 -1.552901

  2 S  1.28732000E+00  1.000000

  3 S  6.04732000E-01  1.000000

  4 S  1.42783000E-01  1.000000

  5 S  5.09690000E-02  1.000000

  6 S  1.50000000E-02  1.000000

  7 P  7.92517500E+00  4.953076
  7 P  7.34153800E+00 -5.898210

  8 P  1.91251500E+00  0.304743
  8 P  1.07154500E+00  0.716489

  9 P  4.37917000E-01  1.000000

 10 P  9.36210000E-02  1.000000

 11 P  2.78020000E-02  1.000000

 12 D  3.93953100E+00 -0.582644
 12 D  3.58777700E+00  0.592258
 12 D  1.28623100E+00  0.473692
 12 D  5.19814000E-01  0.576520

 13 D  1.74715000E-01  1.000000

 14 D  5.00000000E-02  1.000000



 Summary of "ao basis" -> "" (cartesian)
 ------------------------------------------------------------------------------
       Tag                 Description            Shells   Functions and Types
 ---------------- ------------------------------  ------  ---------------------
 Pt                      user specified             14       39   6s5p3d



 **** WARNING Zero Coefficient **** on atom "              Pt"
 angular momentum value:-1  standard basis set name: "user specified"
 input line that generated warning:
    64: 2      1.000000000            0.000000000
  
 Local ECP potential is zero and ignored
  
                 ECP       "ecp basis" -> "" (cartesian)
                -----
  Pt (Platinum) Replaces    60 electrons
  --------------------------------------
             Channel    R-exponent     Exponent     Coefficients
         ------------ ---------------------------------------------------------
  1 U-s       Both         2.00       13.428651     579.223861
  1 U-s       Both         2.00        6.714326      29.669491

  2 U-p       Both         2.00       10.365944     280.860774
  2 U-p       Both         2.00        5.182972      26.745382

  3 U-d       Both         2.00        7.600479     120.396444
  3 U-d       Both         2.00        3.800240      15.810921

  4 U-f       Both         2.00        3.309569      24.314376

  5 U-g       Both         2.00        5.277289     -24.218675

  pbe96 is a nonlocal functional; adding pw91lda local functional. 

                                 NWChem DFT Module
                                 -----------------




 Summary of "ao basis" -> "ao basis" (cartesian)
 ------------------------------------------------------------------------------
       Tag                 Description            Shells   Functions and Types
 ---------------- ------------------------------  ------  ---------------------
 Pt                      user specified             14       39   6s5p3d


      Symmetry analysis of basis
      --------------------------

        a1g        12
        a1u         0
        a2g         0
        a2u         5
        b1g         3
        b1u         0
        b2g         3
        b2u         0
        eg          6
        eu         10

  Caching 1-el integrals 

            General Information
            -------------------
          SCF calculation type: DFT
          Wavefunction type:  spin polarized.
          No. of atoms     :     5
          No. of electrons :    18
           Alpha electrons :    10
            Beta electrons :     8
          Charge           :    -1
          Spin multiplicity:     3
          Use of symmetry is: on ; symmetry adaption is: on 
          Maximum number of iterations: ***
          AO basis - number of functions:    39
                     number of shells:    14
          Convergence on energy requested:  1.00D-06
          Convergence on density requested:  1.00D-05
          Convergence on gradient requested:  5.00D-04

              XC Information
              --------------
          PerdewBurkeErnzerhof Exchange Functional  1.000          
            Perdew 1991 LDA Correlation Functional  1.000 local    
           PerdewBurkeErnz. Correlation Functional  1.000 non-local

             Grid Information
             ----------------
          Grid used for XC integration:  medium    
          Radial quadrature: Mura-Knowles        
          Angular quadrature: Lebedev. 
          Tag              B.-S. Rad. Rad. Pts. Rad. Cut. Ang. Pts.
          ---              ---------- --------- --------- ---------
          Pt                  1.35      123          13.0       590
          bq                  0.00        0           0.0         0
          Grid pruning is: on 
          Number of quadrature shells:   123
          Spatial weights used:  Erf1

          Convergence Information
          -----------------------
          Convergence aids based upon iterative change in 
          total energy or number of iterations. 
          Levelshifting, if invoked, occurs when the 
          HOMO/LUMO gap drops below (HL_TOL):  1.00D-02
          DIIS, if invoked, will attempt to extrapolate 
          using up to (NFOCK): 10 stored Fock matrices.

                    Damping( 0%)  Levelshifting(0.5)       DIIS
                  --------------- ------------------- ---------------
          dE  on:    start            ASAP                start   
          dE off:    2 iters        *** iters           *** iters 


      Screening Tolerance Information
      -------------------------------
          Density screening/tol_rho:  1.00D-10
          AO Gaussian exp screening on grid/accAOfunc:  14
          CD Gaussian exp screening on grid/accCDfunc:  20
          XC Gaussian exp screening on grid/accXCfunc:  20
          Schwarz screening/accCoul:  1.00D-08


      Superposition of Atomic Density Guess
      -------------------------------------

 Sum of atomic energies:        -133.10370649

      Non-variational initial energy
      ------------------------------

 Total energy =    -117.892808
 1-e energy   =    -204.383063
 2-e energy   =      89.061683
 HOMO         =      -0.261325
 LUMO         =      -0.164717


   Symmetry analysis of molecular orbitals - initial alpha
   -------------------------------------------------------

  Numbering of irreducible representations: 

     1 a1g         2 a1u         3 a2g         4 a2u         5 b1g     
     6 b1u         7 b2g         8 b2u         9 eg         10 eu      

  Orbital symmetries:

     1 a1g         2 a2u         3 eu          4 eu          5 a1g     
     6 eg          7 eg          8 b2g         9 b1g        10 a1g     
    11 a1g        12 a2u        13 eu         14 eu         15 a1g     
    16 eg         17 eg         18 b2g        19 a1g        20 a2u     


   Symmetry analysis of molecular orbitals - initial beta
   ------------------------------------------------------

  Numbering of irreducible representations: 

     1 a1g         2 a1u         3 a2g         4 a2u         5 b1g     
     6 b1u         7 b2g         8 b2u         9 eg         10 eu      

  Orbital symmetries:

     1 a1g         2 a2u         3 eu          4 eu          5 a1g     
     6 eg          7 eg          8 b2g         9 b1g        10 a1g     
    11 a1g        12 a2u        13 eu         14 eu         15 a1g     
    16 eg         17 eg         18 b2g        19 a1g        20 a2u     

   Time after variat. SCF:      0.1
   Time prior to 1st pass:      0.1

 Grid_pts file          = ./ptatom.gridpts.0
 Record size in doubles =  12289        No. of grid_pts per rec  =   3070
 Max. records in memory =      8        Max. recs in file   = 253312716


           Memory utilization after 1st SCF pass: 
           Heap Space remaining (MW):       51.72            51720952
          Stack Space remaining (MW):       86.25            86246660

   convergence    iter        energy       DeltaE   RMS-Dens  Diis-err    time
 ---------------- ----- ----------------- --------- --------- ---------  ------
 d= 0,ls=0.0,diis     1   -119.2667884537 -1.17D+02  2.49D-02  6.19D-02     0.2
                                                     2.26D-02  4.96D-02
 d= 0,ls=0.5,diis     2   -119.2362071194  3.06D-02  7.80D-03  1.46D-01     0.2
                                                     7.07D-03  1.21D-01
 d= 0,ls=0.5,diis     3   -119.2848453098 -4.86D-02  4.12D-03  2.14D-02     0.2
                                                     3.47D-03  1.71D-02
 d= 0,ls=0.5,diis     4   -119.2944870017 -9.64D-03  1.57D-03  2.74D-03     0.3
                                                     1.33D-03  2.13D-03
 d= 0,ls=0.5,diis     5   -119.2959983720 -1.51D-03  8.01D-04  6.22D-04     0.3
                                                     7.21D-04  4.75D-04
  Resetting Diis
 d= 0,ls=0.5,diis     6   -119.2963804748 -3.82D-04  4.94D-04  2.09D-04     0.4
                                                     4.53D-04  1.56D-04
 d= 0,ls=0.5,diis     7   -119.2965155717 -1.35D-04  5.36D-04  7.89D-05     0.4
                                                     4.65D-04  5.77D-05
 d= 0,ls=0.5,diis     8   -119.2965766621 -6.11D-05  2.57D-04  3.58D-05     0.5
                                                     2.31D-04  2.93D-05
 d= 0,ls=0.5,diis     9   -119.2965951938 -1.85D-05  1.74D-04  8.95D-06     0.5
                                                     1.44D-04  6.54D-06
 d= 0,ls=0.5,diis    10   -119.2966017667 -6.57D-06  9.15D-05  1.23D-06     0.5
                                                     6.92D-05  8.70D-07
 d= 0,ls=0.5,diis    11   -119.2966037931 -2.03D-06  5.36D-05  4.31D-07     0.6
                                                     4.16D-05  4.06D-07
 d= 0,ls=0.5,diis    12   -119.2966048737 -1.08D-06  3.69D-05  2.33D-07     0.6
                                                     3.29D-05  3.14D-07
 d= 0,ls=0.5,diis    13   -119.2966056190 -7.45D-07  2.52D-05  1.34D-07     0.7
                                                     2.86D-05  2.65D-07
 d= 0,ls=0.5,diis    14   -119.2966061876 -5.69D-07  2.15D-05  7.22D-08     0.7
                                                     2.85D-05  2.29D-07
 d= 0,ls=0.5,diis    15   -119.2966066632 -4.76D-07  1.65D-05  5.31D-08     0.8
                                                     2.71D-05  2.14D-07
 d= 0,ls=0.5,diis    16   -119.2966070803 -4.17D-07  1.13D-05  4.67D-08     0.8
                                                     2.59D-05  2.03D-07
 d= 0,ls=0.5,diis    17   -119.2966074637 -3.83D-07  3.12D-05  3.34D-08     0.8
                                                     3.08D-05  1.89D-07
 d= 0,ls=0.5,diis    18   -119.2966077378 -2.74D-07  1.58D-05  2.44D-07     0.9
                                                     2.56D-05  2.45D-07
 d= 0,ls=0.5,diis    19   -119.2966080288 -2.91D-07  1.60D-05  3.17D-07     0.9
                                                     2.60D-05  2.51D-07
 d= 0,ls=0.5,diis    20   -119.2966082673 -2.39D-07  8.58D-06  4.67D-07     1.0
                                                     2.42D-05  2.83D-07
 d= 0,ls=0.5,diis    21   -119.2966085411 -2.74D-07  4.02D-06  4.96D-07     1.0
                                                     2.34D-05  2.79D-07
 d= 0,ls=0.5,diis    22   -119.2966088359 -2.95D-07  3.51D-06  4.64D-07     1.1
                                                     2.26D-05  2.62D-07
 d= 0,ls=0.5,diis    23   -119.2966091541 -3.18D-07  2.93D-06  3.70D-07     1.1
                                                     2.28D-05  2.31D-07
 d= 0,ls=0.5,diis    24   -119.2966094179 -2.64D-07  1.55D-05  3.66D-07     1.1
                                                     2.41D-05  2.22D-07
 d= 0,ls=0.5,diis    25   -119.2966095570 -1.39D-07  1.03D-05  5.89D-07     1.2
                                                     2.20D-05  2.73D-07
 d= 0,ls=0.5,diis    26   -119.2966097277 -1.71D-07  6.83D-06  6.95D-07     1.2
                                                     2.13D-05  2.90D-07
 d= 0,ls=0.5,diis    27   -119.2966099157 -1.88D-07  4.41D-06  7.43D-07     1.3
                                                     2.07D-05  2.92D-07
 d= 0,ls=0.5,diis    28   -119.2966101144 -1.99D-07  2.66D-06  7.54D-07     1.3
                                                     2.01D-05  2.88D-07
 d= 0,ls=0.5,diis    29   -119.2966103193 -2.05D-07  2.97D-06  7.39D-07     1.4
                                                     1.97D-05  2.78D-07
 d= 0,ls=0.5,diis    30   -119.2966105062 -1.87D-07  7.93D-07  7.47D-07     1.4
                                                     1.89D-05  2.76D-07
 d= 0,ls=0.5,diis    31   -119.2966107167 -2.10D-07  2.74D-06  6.90D-07     1.4
                                                     1.89D-05  2.55D-07
 d= 0,ls=0.5,diis    32   -119.2966108851 -1.68D-07  3.42D-06  7.03D-07     1.5
                                                     1.83D-05  2.55D-07
 d= 0,ls=0.5,diis    33   -119.2966110374 -1.52D-07  2.54D-06  7.25D-07     1.5
                                                     1.77D-05  2.57D-07
 d= 0,ls=0.5,diis    34   -119.2966111924 -1.55D-07  1.93D-06  7.24D-07     1.6
                                                     1.72D-05  2.52D-07
 d= 0,ls=0.5,diis    35   -119.2966113449 -1.53D-07  8.37D-07  7.14D-07     1.6
                                                     1.67D-05  2.45D-07
 d= 0,ls=0.5,diis    36   -119.2966115022 -1.57D-07  1.07D-06  6.81D-07     1.6
                                                     1.64D-05  2.33D-07
 d= 0,ls=0.5,diis    37   -119.2966116477 -1.46D-07  4.97D-07  6.61D-07     1.7
                                                     1.60D-05  2.24D-07
 d= 0,ls=0.5,diis    38   -119.2966117953 -1.48D-07  1.50D-06  6.25D-07     1.7
                                                     1.58D-05  2.09D-07
 d= 0,ls=0.5,diis    39   -119.2966119316 -1.36D-07  1.02D-06  6.05D-07     1.8
                                                     1.52D-05  2.01D-07
 d= 0,ls=0.5,diis    40   -119.2966120589 -1.27D-07  8.25D-07  5.83D-07     1.8
                                                     1.47D-05  1.94D-07
 d= 0,ls=0.5,diis    41   -119.2966121816 -1.23D-07  1.02D-06  5.56D-07     1.9
                                                     1.43D-05  1.84D-07
 d= 0,ls=0.5,diis    42   -119.2966122927 -1.11D-07  5.06D-07  5.43D-07     1.9
                                                     1.39D-05  1.78D-07
 d= 0,ls=0.5,diis    43   -119.2966124033 -1.11D-07  2.89D-07  5.19D-07     1.9
                                                     1.35D-05  1.70D-07
 d= 0,ls=0.5,diis    44   -119.2966125102 -1.07D-07  1.42D-06  4.93D-07     2.0
                                                     1.34D-05  1.61D-07
 d= 0,ls=0.5,diis    45   -119.2966126004 -9.02D-08  6.72D-07  4.90D-07     2.0
                                                     1.29D-05  1.59D-07
 d= 0,ls=0.5,diis    46   -119.2966126930 -9.26D-08  4.99D-07  4.72D-07     2.1
                                                     1.25D-05  1.52D-07
 d= 0,ls=0.5,diis    47   -119.2966127817 -8.87D-08  5.99D-07  4.54D-07     2.1
                                                     1.22D-05  1.46D-07
 d= 0,ls=0.5,diis    48   -119.2966128656 -8.39D-08  2.11D-07  4.38D-07     2.2
                                                     1.19D-05  1.40D-07
 d= 0,ls=0.5,diis    49   -119.2966129483 -8.27D-08  2.38D-07  4.17D-07     2.2
                                                     1.15D-05  1.32D-07
 d= 0,ls=0.5,diis    50   -119.2966130290 -8.06D-08  1.27D-06  3.94D-07     2.2
                                                     1.11D-05  1.25D-07
 d= 0,ls=0.5,diis    51   -119.2966131128 -8.38D-08  8.16D-07  3.56D-07     2.3
                                                     1.08D-05  1.14D-07
 d= 0,ls=0.5,diis    52   -119.2966131889 -7.61D-08  8.44D-07  3.29D-07     2.3
                                                     1.05D-05  1.07D-07
 d= 0,ls=0.5,diis    53   -119.2966132614 -7.25D-08  3.43D-07  3.03D-07     2.4
                                                     1.03D-05  9.92D-08
 d= 0,ls=0.5,diis    54   -119.2966133265 -6.51D-08  4.08D-07  2.85D-07     2.4
                                                     9.94D-06  9.37D-08


         Total DFT energy =     -119.296613388429
      One electron energy =     -205.731943110278
           Coulomb energy =      100.678755759107
    Exchange-Corr. energy =      -11.671997465830
 Nuclear repulsion energy =       -2.571428571429

 Numeric. integr. density =       18.000000019166

     Total iterative time =      2.3s



                  Occupations of the irreducible representations
                  ----------------------------------------------

                     irrep           alpha         beta
                     --------     --------     --------
                     a1g               3.0          2.0
                     a1u               0.0          0.0
                     a2g               0.0          0.0
                     a2u               1.0          1.0
                     b1g               1.0          0.0
                     b1u               0.0          0.0
                     b2g               1.0          1.0
                     b2u               0.0          0.0
                     eg                2.0          2.0
                     eu                2.0          2.0


                    DFT Final Alpha Molecular Orbital Analysis
                    ------------------------------------------

 Vector    1  Occ=1.000000D+00  E=-3.636485D+00  Symmetry=a1g
              MO Center=  1.8D-21, -4.7D-24, -1.8D-16, r^2= 2.9D-01
   Bfn.  Coefficient  Atom+Function         Bfn.  Coefficient  Atom+Function  
  ----- ------------  ---------------      ----- ------------  ---------------
     2      1.007371  1 Pt s                  1      0.629629  1 Pt s          
     3      0.328625  1 Pt s          

 Vector    2  Occ=1.000000D+00  E=-1.887091D+00  Symmetry=a2u
              MO Center=  6.9D-16,  8.5D-17,  8.6D-16, r^2= 4.0D-01
   Bfn.  Coefficient  Atom+Function         Bfn.  Coefficient  Atom+Function  
  ----- ------------  ---------------      ----- ------------  ---------------
    12      0.895585  1 Pt pz                15      0.260530  1 Pt pz         
     9      0.246940  1 Pt pz         

 Vector    3  Occ=1.000000D+00  E=-1.935905D+00  Symmetry=eu
              MO Center=  1.9D-16, -2.2D-16, -7.4D-16, r^2= 4.0D-01
   Bfn.  Coefficient  Atom+Function         Bfn.  Coefficient  Atom+Function  
  ----- ------------  ---------------      ----- ------------  ---------------
    11      0.843728  1 Pt py                10      0.302567  1 Pt px         
    14      0.245000  1 Pt py                 8      0.232728  1 Pt py         
    13      0.087859  1 Pt px                 7      0.083458  1 Pt px         

 Vector    4  Occ=1.000000D+00  E=-1.935905D+00  Symmetry=eu
              MO Center=  3.8D-17, -2.6D-17, -3.1D-16, r^2= 4.0D-01
   Bfn.  Coefficient  Atom+Function         Bfn.  Coefficient  Atom+Function  
  ----- ------------  ---------------      ----- ------------  ---------------
    10      0.843728  1 Pt px                11     -0.302567  1 Pt py         
    13      0.245000  1 Pt px                 7      0.232728  1 Pt px         
    14     -0.087859  1 Pt py                 8     -0.083458  1 Pt py         

 Vector    5  Occ=1.000000D+00  E=-7.343983D-02  Symmetry=a1g
              MO Center= -5.0D-18,  1.1D-19, -1.6D-15, r^2= 2.2D+00
   Bfn.  Coefficient  Atom+Function         Bfn.  Coefficient  Atom+Function  
  ----- ------------  ---------------      ----- ------------  ---------------
    27      0.544736  1 Pt dzz                4      0.528971  1 Pt s          
     5      0.468410  1 Pt s                  3     -0.373819  1 Pt s          
     2     -0.314114  1 Pt s                  1     -0.198119  1 Pt s          
    22     -0.194282  1 Pt dxx               25     -0.194282  1 Pt dyy        
    33      0.153619  1 Pt dzz               28     -0.102388  1 Pt dxx        

 Vector    6  Occ=1.000000D+00  E=-9.114393D-02  Symmetry=eg
              MO Center= -7.6D-17, -2.0D-16,  1.2D-14, r^2= 1.0D+00
   Bfn.  Coefficient  Atom+Function         Bfn.  Coefficient  Atom+Function  
  ----- ------------  ---------------      ----- ------------  ---------------
    26      1.324864  1 Pt dyz               24      0.508552  1 Pt dxz        
    32      0.477173  1 Pt dyz               30      0.183164  1 Pt dxz        
    38      0.062053  1 Pt dyz        

 Vector    7  Occ=1.000000D+00  E=-9.114393D-02  Symmetry=eg
              MO Center= -6.3D-16,  2.4D-16,  5.9D-16, r^2= 1.0D+00
   Bfn.  Coefficient  Atom+Function         Bfn.  Coefficient  Atom+Function  
  ----- ------------  ---------------      ----- ------------  ---------------
    24      1.324864  1 Pt dxz               26     -0.508552  1 Pt dyz        
    30      0.477173  1 Pt dxz               32     -0.183164  1 Pt dyz        
    36      0.062053  1 Pt dxz        

 Vector    8  Occ=1.000000D+00  E=-1.073131D-01  Symmetry=b2g
              MO Center=  1.1D-15, -7.7D-16, -3.0D-28, r^2= 9.9D-01
   Bfn.  Coefficient  Atom+Function         Bfn.  Coefficient  Atom+Function  
  ----- ------------  ---------------      ----- ------------  ---------------
    23      1.432071  1 Pt dxy               29      0.498938  1 Pt dxy        
    35      0.051152  1 Pt dxy        

 Vector    9  Occ=1.000000D+00  E=-1.365841D-01  Symmetry=b1g
              MO Center=  5.3D-17,  6.0D-17, -6.6D-29, r^2= 9.4D-01
   Bfn.  Coefficient  Atom+Function         Bfn.  Coefficient  Atom+Function  
  ----- ------------  ---------------      ----- ------------  ---------------
    22      0.727900  1 Pt dxx               25     -0.727900  1 Pt dyy        
    28      0.236428  1 Pt dxx               31     -0.236428  1 Pt dyy        

 Vector   10  Occ=1.000000D+00  E=-9.259626D-02  Symmetry=a1g
              MO Center= -2.5D-17,  3.3D-16,  5.2D-16, r^2= 1.6D+00
   Bfn.  Coefficient  Atom+Function         Bfn.  Coefficient  Atom+Function  
  ----- ------------  ---------------      ----- ------------  ---------------
    27      0.605535  1 Pt dzz                4     -0.457942  1 Pt s          
    22     -0.371442  1 Pt dxx               25     -0.371442  1 Pt dyy        
     5     -0.331985  1 Pt s                  3      0.301854  1 Pt s          
     2      0.275111  1 Pt s                 33      0.265785  1 Pt dzz        
     1      0.170349  1 Pt s                 28     -0.099197  1 Pt dxx        

 Vector   11  Occ=0.000000D+00  E= 1.118505D-01  Symmetry=a1g
              MO Center= -1.4D-14, -6.6D-15,  5.9D-14, r^2= 2.8D+01
   Bfn.  Coefficient  Atom+Function         Bfn.  Coefficient  Atom+Function  
  ----- ------------  ---------------      ----- ------------  ---------------
     6      2.274669  1 Pt s                 34     -0.726828  1 Pt dxx        
    37     -0.726828  1 Pt dyy                4     -0.650938  1 Pt s          
    39     -0.567445  1 Pt dzz                5      0.434199  1 Pt s          
    33     -0.208208  1 Pt dzz               28     -0.167008  1 Pt dxx        
    31     -0.167008  1 Pt dyy                2      0.138562  1 Pt s          

 Vector   12  Occ=0.000000D+00  E= 9.077048D-02  Symmetry=a2u
              MO Center=  1.8D-16, -1.6D-16, -4.1D-14, r^2= 9.0D+00
   Bfn.  Coefficient  Atom+Function         Bfn.  Coefficient  Atom+Function  
  ----- ------------  ---------------      ----- ------------  ---------------
    21      0.717637  1 Pt pz                18      0.376306  1 Pt pz         
    12     -0.202170  1 Pt pz                 9     -0.046019  1 Pt pz         

 Vector   13  Occ=0.000000D+00  E= 1.034822D-01  Symmetry=eu
              MO Center=  1.1D-14,  3.0D-15, -2.4D-15, r^2= 7.4D+00
   Bfn.  Coefficient  Atom+Function         Bfn.  Coefficient  Atom+Function  
  ----- ------------  ---------------      ----- ------------  ---------------
    19      0.512987  1 Pt px                16      0.487390  1 Pt px         
    20      0.242100  1 Pt py                17      0.230019  1 Pt py         
    10     -0.223412  1 Pt px                11     -0.105437  1 Pt py         
     7     -0.050556  1 Pt px         

 Vector   14  Occ=0.000000D+00  E= 1.034822D-01  Symmetry=eu
              MO Center= -1.6D-15,  7.5D-16,  2.9D-14, r^2= 7.4D+00
   Bfn.  Coefficient  Atom+Function         Bfn.  Coefficient  Atom+Function  
  ----- ------------  ---------------      ----- ------------  ---------------
    20      0.512987  1 Pt py                17      0.487390  1 Pt py         
    19     -0.242100  1 Pt px                16     -0.230019  1 Pt px         
    11     -0.223412  1 Pt py                10      0.105437  1 Pt px         
     8     -0.050556  1 Pt py         

 Vector   15  Occ=0.000000D+00  E= 2.081993D-01  Symmetry=a1g
              MO Center=  1.5D-16,  7.5D-17,  2.4D-16, r^2= 1.7D+01
   Bfn.  Coefficient  Atom+Function         Bfn.  Coefficient  Atom+Function  
  ----- ------------  ---------------      ----- ------------  ---------------
     5      2.401217  1 Pt s                 39     -2.147428  1 Pt dzz        
     6      1.910058  1 Pt s                 34     -1.211513  1 Pt dxx        
    37     -1.211513  1 Pt dyy                4     -0.606615  1 Pt s          
     3     -0.482617  1 Pt s                 28     -0.425698  1 Pt dxx        
    31     -0.425698  1 Pt dyy               33     -0.283916  1 Pt dzz        

 Vector   16  Occ=0.000000D+00  E= 2.213763D-01  Symmetry=eg
              MO Center=  6.8D-17,  1.7D-16, -6.8D-12, r^2= 1.0D+01
   Bfn.  Coefficient  Atom+Function         Bfn.  Coefficient  Atom+Function  
  ----- ------------  ---------------      ----- ------------  ---------------
    38      1.693653  1 Pt dyz               36      0.684013  1 Pt dxz        
    26     -0.315028  1 Pt dyz               32     -0.227479  1 Pt dyz        
    24     -0.127230  1 Pt dxz               30     -0.091871  1 Pt dxz        

 Vector   17  Occ=0.000000D+00  E= 2.213763D-01  Symmetry=eg
              MO Center= -1.8D-15,  7.1D-16, -1.0D-13, r^2= 1.0D+01
   Bfn.  Coefficient  Atom+Function         Bfn.  Coefficient  Atom+Function  
  ----- ------------  ---------------      ----- ------------  ---------------
    36      1.693653  1 Pt dxz               38     -0.684013  1 Pt dyz        
    24     -0.315028  1 Pt dxz               30     -0.227479  1 Pt dxz        
    26      0.127230  1 Pt dyz               32      0.091871  1 Pt dyz        

 Vector   18  Occ=0.000000D+00  E= 2.311973D-01  Symmetry=b2g
              MO Center=  1.4D-14, -3.5D-14,  2.8D-28, r^2= 1.0D+01
   Bfn.  Coefficient  Atom+Function         Bfn.  Coefficient  Atom+Function  
  ----- ------------  ---------------      ----- ------------  ---------------
    35      1.817051  1 Pt dxy               23     -0.336503  1 Pt dxy        
    29     -0.215962  1 Pt dxy        

 Vector   19  Occ=0.000000D+00  E= 2.390616D-01  Symmetry=a1g
              MO Center=  2.2D-15,  1.1D-15, -6.6D-16, r^2= 1.2D+01
   Bfn.  Coefficient  Atom+Function         Bfn.  Coefficient  Atom+Function  
  ----- ------------  ---------------      ----- ------------  ---------------
     5      1.542355  1 Pt s                 34     -1.412995  1 Pt dxx        
    37     -1.412995  1 Pt dyy                6      1.099117  1 Pt s          
     3     -0.348074  1 Pt s                 33     -0.347599  1 Pt dzz        
     4     -0.282193  1 Pt s                 28     -0.199003  1 Pt dxx        
    31     -0.199003  1 Pt dyy               39     -0.152666  1 Pt dzz        

 Vector   20  Occ=0.000000D+00  E= 2.149342D-01  Symmetry=a2u
              MO Center=  1.6D-15, -7.8D-16, -1.8D-14, r^2= 1.1D+01
   Bfn.  Coefficient  Atom+Function         Bfn.  Coefficient  Atom+Function  
  ----- ------------  ---------------      ----- ------------  ---------------
    18      1.319093  1 Pt pz                21     -1.120837  1 Pt pz         
    12     -0.274034  1 Pt pz                15     -0.068107  1 Pt pz         
     9     -0.063826  1 Pt pz         

 Vector   21  Occ=0.000000D+00  E= 2.270065D-01  Symmetry=eu
              MO Center= -4.8D-14, -2.8D-14,  6.6D-12, r^2= 1.3D+01
   Bfn.  Coefficient  Atom+Function         Bfn.  Coefficient  Atom+Function  
  ----- ------------  ---------------      ----- ------------  ---------------
    17      1.098097  1 Pt py                20     -1.057468  1 Pt py         
    16     -0.590839  1 Pt px                19      0.568978  1 Pt px         
    11     -0.231884  1 Pt py                10      0.124767  1 Pt px         
     8     -0.053314  1 Pt py                14     -0.039779  1 Pt py         
     7      0.028686  1 Pt px         

 Vector   22  Occ=0.000000D+00  E= 2.270065D-01  Symmetry=eu
              MO Center=  5.0D-14,  8.5D-15,  1.9D-13, r^2= 1.3D+01
   Bfn.  Coefficient  Atom+Function         Bfn.  Coefficient  Atom+Function  
  ----- ------------  ---------------      ----- ------------  ---------------
    16      1.098097  1 Pt px                19     -1.057468  1 Pt px         
    17      0.590839  1 Pt py                20     -0.568978  1 Pt py         
    10     -0.231884  1 Pt px                11     -0.124767  1 Pt py         
     7     -0.053314  1 Pt px                13     -0.039779  1 Pt px         
     8     -0.028686  1 Pt py         

 Vector   23  Occ=0.000000D+00  E= 2.558013D-01  Symmetry=b1g
              MO Center= -1.4D-14,  6.0D-14,  1.6D-27, r^2= 1.0D+01
   Bfn.  Coefficient  Atom+Function         Bfn.  Coefficient  Atom+Function  
  ----- ------------  ---------------      ----- ------------  ---------------
    34      0.894263  1 Pt dxx               37     -0.894263  1 Pt dyy        
    22     -0.173394  1 Pt dxx               25      0.173394  1 Pt dyy        
    28     -0.070945  1 Pt dxx               31      0.070945  1 Pt dyy        

 Vector   24  Occ=0.000000D+00  E= 4.879579D-01  Symmetry=a1g
              MO Center= -1.2D-17, -1.1D-18,  9.0D-15, r^2= 1.2D+01
   Bfn.  Coefficient  Atom+Function         Bfn.  Coefficient  Atom+Function  
  ----- ------------  ---------------      ----- ------------  ---------------
     5      9.783252  1 Pt s                  4     -4.577435  1 Pt s          
    34     -2.648514  1 Pt dxx               37     -2.648514  1 Pt dyy        
    39     -2.645459  1 Pt dzz                6      1.597824  1 Pt s          
    28     -1.223175  1 Pt dxx               31     -1.223175  1 Pt dyy        
    33     -1.178870  1 Pt dzz                2      0.584093  1 Pt s          

 Vector   25  Occ=0.000000D+00  E= 7.117729D-01  Symmetry=eg
              MO Center= -7.7D-21,  3.8D-20,  1.3D-14, r^2= 3.9D+00
   Bfn.  Coefficient  Atom+Function         Bfn.  Coefficient  Atom+Function  
  ----- ------------  ---------------      ----- ------------  ---------------
    32      2.209850  1 Pt dyz               26     -1.322958  1 Pt dyz        
    38     -0.961140  1 Pt dyz               30     -0.448365  1 Pt dxz        
    24      0.268420  1 Pt dxz               36      0.195010  1 Pt dxz        

 Vector   26  Occ=0.000000D+00  E= 7.117729D-01  Symmetry=eg
              MO Center= -1.8D-16, -3.6D-17,  2.2D-15, r^2= 3.9D+00
   Bfn.  Coefficient  Atom+Function         Bfn.  Coefficient  Atom+Function  
  ----- ------------  ---------------      ----- ------------  ---------------
    30      2.209850  1 Pt dxz               24     -1.322958  1 Pt dxz        
    36     -0.961140  1 Pt dxz               32      0.448365  1 Pt dyz        
    26     -0.268420  1 Pt dyz               38     -0.195010  1 Pt dyz        

 Vector   27  Occ=0.000000D+00  E= 7.159068D-01  Symmetry=a1g
              MO Center=  6.9D-18, -9.2D-18, -5.5D-17, r^2= 3.9D+00
   Bfn.  Coefficient  Atom+Function         Bfn.  Coefficient  Atom+Function  
  ----- ------------  ---------------      ----- ------------  ---------------
    33      1.343570  1 Pt dzz               27     -0.776431  1 Pt dzz        
    28     -0.608298  1 Pt dxx               31     -0.608298  1 Pt dyy        
    39     -0.486406  1 Pt dzz               22      0.393169  1 Pt dxx        
    25      0.393169  1 Pt dyy               34      0.369051  1 Pt dxx        
    37      0.369051  1 Pt dyy                5     -0.289421  1 Pt s          

 Vector   28  Occ=0.000000D+00  E= 7.078477D-01  Symmetry=b2g
              MO Center= -2.0D-15, -4.1D-15,  6.0D-29, r^2= 4.0D+00
   Bfn.  Coefficient  Atom+Function         Bfn.  Coefficient  Atom+Function  
  ----- ------------  ---------------      ----- ------------  ---------------
    29      2.260601  1 Pt dxy               23     -1.336984  1 Pt dxy        
    35     -0.999140  1 Pt dxy        

 Vector   29  Occ=0.000000D+00  E= 7.041845D-01  Symmetry=b1g
              MO Center= -9.3D-17, -2.1D-17,  1.4D-28, r^2= 4.2D+00
   Bfn.  Coefficient  Atom+Function         Bfn.  Coefficient  Atom+Function  
  ----- ------------  ---------------      ----- ------------  ---------------
    28      1.136021  1 Pt dxx               31     -1.136021  1 Pt dyy        
    22     -0.654211  1 Pt dxx               25      0.654211  1 Pt dyy        
    34     -0.525081  1 Pt dxx               37      0.525081  1 Pt dyy        

 Vector   30  Occ=0.000000D+00  E= 1.146911D+00  Symmetry=a1g
              MO Center= -3.5D-18,  1.6D-17, -6.8D-15, r^2= 5.9D+00
   Bfn.  Coefficient  Atom+Function         Bfn.  Coefficient  Atom+Function  
  ----- ------------  ---------------      ----- ------------  ---------------
     5     10.125525  1 Pt s                  3     -3.773964  1 Pt s          
    28     -3.779877  1 Pt dxx               31     -3.779877  1 Pt dyy        
    33     -3.778966  1 Pt dzz               34     -2.124645  1 Pt dxx        
    37     -2.124645  1 Pt dyy               39     -2.130016  1 Pt dzz        
     4      1.920583  1 Pt s                  6      0.994508  1 Pt s          

 Vector   31  Occ=0.000000D+00  E= 1.342941D+00  Symmetry=a2u
              MO Center=  1.5D-16, -3.6D-17, -6.3D-16, r^2= 2.3D+00
   Bfn.  Coefficient  Atom+Function         Bfn.  Coefficient  Atom+Function  
  ----- ------------  ---------------      ----- ------------  ---------------
    15      1.890945  1 Pt pz                12     -1.551946  1 Pt pz         
    18     -0.927557  1 Pt pz                21      0.354483  1 Pt pz         
     9     -0.284155  1 Pt pz         

 Vector   32  Occ=0.000000D+00  E= 1.315672D+00  Symmetry=eu
              MO Center=  4.9D-19, -5.9D-18, -4.4D-17, r^2= 2.4D+00
   Bfn.  Coefficient  Atom+Function         Bfn.  Coefficient  Atom+Function  
  ----- ------------  ---------------      ----- ------------  ---------------
    13      1.782832  1 Pt px                10     -1.457960  1 Pt px         
    16     -0.892424  1 Pt px                14      0.632301  1 Pt py         
    11     -0.517082  1 Pt py                19      0.343961  1 Pt px         
    17     -0.316508  1 Pt py                 7     -0.266740  1 Pt px         
    20      0.121990  1 Pt py                 8     -0.094602  1 Pt py         

 Vector   33  Occ=0.000000D+00  E= 1.315672D+00  Symmetry=eu
              MO Center= -7.2D-17,  2.6D-17,  3.9D-19, r^2= 2.4D+00
   Bfn.  Coefficient  Atom+Function         Bfn.  Coefficient  Atom+Function  
  ----- ------------  ---------------      ----- ------------  ---------------
    14      1.782832  1 Pt py                11     -1.457960  1 Pt py         
    17     -0.892424  1 Pt py                13     -0.632301  1 Pt px         
    10      0.517082  1 Pt px                20      0.343961  1 Pt py         
    16      0.316508  1 Pt px                 8     -0.266740  1 Pt py         
    19     -0.121990  1 Pt px                 7      0.094602  1 Pt px         

 Vector   34  Occ=0.000000D+00  E= 3.652760D+00  Symmetry=a1g
              MO Center=  7.4D-19,  2.0D-17, -5.0D-16, r^2= 2.1D+00
   Bfn.  Coefficient  Atom+Function         Bfn.  Coefficient  Atom+Function  
  ----- ------------  ---------------      ----- ------------  ---------------
     3     10.672877  1 Pt s                  4     -7.191372  1 Pt s          
     2     -6.563458  1 Pt s                  5     -5.779655  1 Pt s          
    28      3.674545  1 Pt dxx               31      3.674545  1 Pt dyy        
    33      3.669403  1 Pt dzz                1     -1.199921  1 Pt s          
    34      1.169260  1 Pt dxx               37      1.169260  1 Pt dyy        

 Vector   35  Occ=0.000000D+00  E= 1.457457D+01  Symmetry=a1g
              MO Center= -7.9D-19, -5.6D-18, -1.6D-16, r^2= 5.2D-01
   Bfn.  Coefficient  Atom+Function         Bfn.  Coefficient  Atom+Function  
  ----- ------------  ---------------      ----- ------------  ---------------
     3     28.206982  1 Pt s                  4     16.803719  1 Pt s          
     2    -13.563314  1 Pt s                 22    -12.141007  1 Pt dxx        
    25    -12.141007  1 Pt dyy               27    -12.141513  1 Pt dzz        
    28     -3.911653  1 Pt dxx               31     -3.911653  1 Pt dyy        
    33     -3.911323  1 Pt dzz                1      3.298186  1 Pt s          

 Vector   36  Occ=0.000000D+00  E= 4.625797D+01  Symmetry=a2u
              MO Center= -1.1D-19, -5.3D-20, -1.5D-16, r^2= 1.2D-01
   Bfn.  Coefficient  Atom+Function         Bfn.  Coefficient  Atom+Function  
  ----- ------------  ---------------      ----- ------------  ---------------
     9      1.247430  1 Pt pz                12      0.721928  1 Pt pz         
    15     -0.396229  1 Pt pz                18      0.123921  1 Pt pz         
    21     -0.046482  1 Pt pz         

 Vector   37  Occ=0.000000D+00  E= 4.623908D+01  Symmetry=eu
              MO Center=  2.4D-18, -1.2D-19,  6.4D-19, r^2= 1.2D-01
   Bfn.  Coefficient  Atom+Function         Bfn.  Coefficient  Atom+Function  
  ----- ------------  ---------------      ----- ------------  ---------------
     8      1.246514  1 Pt py                11      0.721260  1 Pt py         
    14     -0.395949  1 Pt py                17      0.123890  1 Pt py         
     7     -0.046688  1 Pt px                20     -0.046478  1 Pt py         
    10     -0.027015  1 Pt px         

 Vector   38  Occ=0.000000D+00  E= 4.623908D+01  Symmetry=eu
              MO Center= -5.0D-18, -1.3D-18, -1.1D-18, r^2= 1.2D-01
   Bfn.  Coefficient  Atom+Function         Bfn.  Coefficient  Atom+Function  
  ----- ------------  ---------------      ----- ------------  ---------------
     7      1.246514  1 Pt px                10      0.721260  1 Pt px         
    13     -0.395949  1 Pt px                16      0.123890  1 Pt px         
     8      0.046688  1 Pt py                19     -0.046478  1 Pt px         
    11      0.027015  1 Pt py         

 Vector   39  Occ=0.000000D+00  E= 1.489258D+02  Symmetry=a1g
              MO Center=  1.2D-19,  4.6D-19,  7.5D-19, r^2= 1.5D-01
   Bfn.  Coefficient  Atom+Function         Bfn.  Coefficient  Atom+Function  
  ----- ------------  ---------------      ----- ------------  ---------------
     3     13.807962  1 Pt s                  4     10.730371  1 Pt s          
    22     -6.871213  1 Pt dxx               25     -6.871213  1 Pt dyy        
    27     -6.871215  1 Pt dzz                2     -5.499550  1 Pt s          
     1      3.761814  1 Pt s                 28     -2.766051  1 Pt dxx        
    31     -2.766051  1 Pt dyy               33     -2.766049  1 Pt dzz        


                     DFT Final Beta Molecular Orbital Analysis
                     -----------------------------------------

 Vector    1  Occ=1.000000D+00  E=-3.613527D+00  Symmetry=a1g
              MO Center= -1.3D-22,  2.8D-23,  3.1D-16, r^2= 2.9D-01
   Bfn.  Coefficient  Atom+Function         Bfn.  Coefficient  Atom+Function  
  ----- ------------  ---------------      ----- ------------  ---------------
     2      1.011616  1 Pt s                  1      0.630844  1 Pt s          
     3      0.325977  1 Pt s          

 Vector    2  Occ=1.000000D+00  E=-1.877164D+00  Symmetry=a2u
              MO Center=  1.2D-19, -3.1D-17, -6.3D-16, r^2= 4.0D-01
   Bfn.  Coefficient  Atom+Function         Bfn.  Coefficient  Atom+Function  
  ----- ------------  ---------------      ----- ------------  ---------------
    12      0.898486  1 Pt pz                15      0.257783  1 Pt pz         
     9      0.247532  1 Pt pz         

 Vector    3  Occ=1.000000D+00  E=-1.901340D+00  Symmetry=eu
              MO Center=  4.8D-16,  8.7D-17,  1.8D-16, r^2= 4.0D-01
   Bfn.  Coefficient  Atom+Function         Bfn.  Coefficient  Atom+Function  
  ----- ------------  ---------------      ----- ------------  ---------------
    10      0.889038  1 Pt px                13      0.251420  1 Pt px         
     7      0.244750  1 Pt px                11     -0.148942  1 Pt py         
    14     -0.042121  1 Pt py                 8     -0.041003  1 Pt py         

 Vector    4  Occ=1.000000D+00  E=-1.901340D+00  Symmetry=eu
              MO Center= -2.2D-16, -2.5D-15,  2.4D-16, r^2= 4.0D-01
   Bfn.  Coefficient  Atom+Function         Bfn.  Coefficient  Atom+Function  
  ----- ------------  ---------------      ----- ------------  ---------------
    11      0.889038  1 Pt py                14      0.251420  1 Pt py         
     8      0.244750  1 Pt py                10      0.148942  1 Pt px         
    13      0.042121  1 Pt px                 7      0.041003  1 Pt px         

 Vector    5  Occ=1.000000D+00  E=-5.647255D-02  Symmetry=a1g
              MO Center=  9.5D-16, -4.3D-17,  1.4D-16, r^2= 1.0D+00
   Bfn.  Coefficient  Atom+Function         Bfn.  Coefficient  Atom+Function  
  ----- ------------  ---------------      ----- ------------  ---------------
    27      0.820375  1 Pt dzz               22     -0.414871  1 Pt dxx        
    25     -0.414871  1 Pt dyy               33      0.286005  1 Pt dzz        
    28     -0.143537  1 Pt dxx               31     -0.143537  1 Pt dyy        
    39      0.047349  1 Pt dzz        

 Vector    6  Occ=1.000000D+00  E=-6.501362D-02  Symmetry=eg
              MO Center=  3.3D-15,  6.7D-15, -1.7D-16, r^2= 1.0D+00
   Bfn.  Coefficient  Atom+Function         Bfn.  Coefficient  Atom+Function  
  ----- ------------  ---------------      ----- ------------  ---------------
    26      1.285245  1 Pt dyz               24      0.629440  1 Pt dxz        
    32      0.441170  1 Pt dyz               30      0.216060  1 Pt dxz        
    38      0.066977  1 Pt dyz               36      0.032801  1 Pt dxz        

 Vector    7  Occ=1.000000D+00  E=-6.501362D-02  Symmetry=eg
              MO Center= -6.3D-15,  3.1D-15, -1.6D-15, r^2= 1.0D+00
   Bfn.  Coefficient  Atom+Function         Bfn.  Coefficient  Atom+Function  
  ----- ------------  ---------------      ----- ------------  ---------------
    24      1.285245  1 Pt dxz               26     -0.629440  1 Pt dyz        
    30      0.441170  1 Pt dxz               32     -0.216060  1 Pt dyz        
    36      0.066977  1 Pt dxz               38     -0.032801  1 Pt dyz        

 Vector    8  Occ=1.000000D+00  E=-8.604762D-02  Symmetry=b2g
              MO Center=  3.9D-16,  1.4D-15, -1.2D-28, r^2= 9.7D-01
   Bfn.  Coefficient  Atom+Function         Bfn.  Coefficient  Atom+Function  
  ----- ------------  ---------------      ----- ------------  ---------------
    23      1.445316  1 Pt dxy               29      0.478285  1 Pt dxy        
    35      0.056150  1 Pt dxy        

 Vector    9  Occ=0.000000D+00  E=-6.058788D-02  Symmetry=b1g
              MO Center= -1.0D-15,  1.5D-15,  5.2D-27, r^2= 9.7D-01
   Bfn.  Coefficient  Atom+Function         Bfn.  Coefficient  Atom+Function  
  ----- ------------  ---------------      ----- ------------  ---------------
    22      0.722677  1 Pt dxx               25     -0.722677  1 Pt dyy        
    28      0.238552  1 Pt dxx               31     -0.238552  1 Pt dyy        
    34      0.029554  1 Pt dxx               37     -0.029554  1 Pt dyy        

 Vector   10  Occ=0.000000D+00  E=-4.265607D-02  Symmetry=a1g
              MO Center=  6.0D-18,  2.7D-17, -3.7D-18, r^2= 2.9D+00
   Bfn.  Coefficient  Atom+Function         Bfn.  Coefficient  Atom+Function  
  ----- ------------  ---------------      ----- ------------  ---------------
     4      0.627248  1 Pt s                  5      0.623432  1 Pt s          
     3     -0.447996  1 Pt s                  2     -0.416074  1 Pt s          
     1     -0.255350  1 Pt s                  6      0.068394  1 Pt s          
    22      0.067518  1 Pt dxx               25      0.067518  1 Pt dyy        
    27      0.064926  1 Pt dzz               34     -0.053100  1 Pt dxx        

 Vector   11  Occ=0.000000D+00  E= 1.201590D-01  Symmetry=a1g
              MO Center=  3.6D-18,  1.9D-19,  1.4D-17, r^2= 2.9D+01
   Bfn.  Coefficient  Atom+Function         Bfn.  Coefficient  Atom+Function  
  ----- ------------  ---------------      ----- ------------  ---------------
     6      2.395802  1 Pt s                 34     -0.819802  1 Pt dxx        
    37     -0.819802  1 Pt dyy                4     -0.692943  1 Pt s          
    39     -0.680816  1 Pt dzz                5      0.574757  1 Pt s          
    33     -0.229304  1 Pt dzz               28     -0.194178  1 Pt dxx        
    31     -0.194178  1 Pt dyy                2      0.142837  1 Pt s          

 Vector   12  Occ=0.000000D+00  E= 1.105170D-01  Symmetry=a2u
              MO Center=  9.5D-15, -8.4D-15, -1.2D-19, r^2= 9.7D+00
   Bfn.  Coefficient  Atom+Function         Bfn.  Coefficient  Atom+Function  
  ----- ------------  ---------------      ----- ------------  ---------------
    21      0.771755  1 Pt pz                18      0.311332  1 Pt pz         
    12     -0.187023  1 Pt pz                 9     -0.042476  1 Pt pz         

 Vector   13  Occ=0.000000D+00  E= 1.293789D-01  Symmetry=eu
              MO Center=  4.2D-15,  2.7D-15,  4.4D-15, r^2= 8.4D+00
   Bfn.  Coefficient  Atom+Function         Bfn.  Coefficient  Atom+Function  
  ----- ------------  ---------------      ----- ------------  ---------------
    20      0.537571  1 Pt py                19     -0.389592  1 Pt px         
    17      0.353684  1 Pt py                16     -0.256324  1 Pt px         
    11     -0.175961  1 Pt py                10      0.127524  1 Pt px         
     8     -0.039890  1 Pt py                 7      0.028910  1 Pt px         

 Vector   14  Occ=0.000000D+00  E= 1.293789D-01  Symmetry=eu
              MO Center=  6.1D-16,  1.8D-15, -7.1D-15, r^2= 8.4D+00
   Bfn.  Coefficient  Atom+Function         Bfn.  Coefficient  Atom+Function  
  ----- ------------  ---------------      ----- ------------  ---------------
    19      0.537571  1 Pt px                20      0.389592  1 Pt py         
    16      0.353684  1 Pt px                17      0.256324  1 Pt py         
    10     -0.175961  1 Pt px                11     -0.127524  1 Pt py         
     7     -0.039890  1 Pt px                 8     -0.028910  1 Pt py         

 Vector   15  Occ=0.000000D+00  E= 2.244709D-01  Symmetry=a1g
              MO Center=  1.5D-16, -1.6D-16,  7.2D-17, r^2= 1.6D+01
   Bfn.  Coefficient  Atom+Function         Bfn.  Coefficient  Atom+Function  
  ----- ------------  ---------------      ----- ------------  ---------------
     5      2.488903  1 Pt s                 39     -2.147091  1 Pt dzz        
     6      1.795811  1 Pt s                 34     -1.189467  1 Pt dxx        
    37     -1.189467  1 Pt dyy                4     -0.616323  1 Pt s          
     3     -0.483431  1 Pt s                 28     -0.429153  1 Pt dxx        
    31     -0.429153  1 Pt dyy               33     -0.280850  1 Pt dzz        

 Vector   16  Occ=0.000000D+00  E= 2.393934D-01  Symmetry=eg
              MO Center=  8.3D-17, -2.3D-15, -2.3D-13, r^2= 1.0D+01
   Bfn.  Coefficient  Atom+Function         Bfn.  Coefficient  Atom+Function  
  ----- ------------  ---------------      ----- ------------  ---------------
    38      1.828437  1 Pt dyz               26     -0.334888  1 Pt dyz        
    32     -0.252104  1 Pt dyz               36     -0.066728  1 Pt dxz        

 Vector   17  Occ=0.000000D+00  E= 2.393934D-01  Symmetry=eg
              MO Center=  1.5D-14,  5.4D-16,  1.1D-13, r^2= 1.0D+01
   Bfn.  Coefficient  Atom+Function         Bfn.  Coefficient  Atom+Function  
  ----- ------------  ---------------      ----- ------------  ---------------
    36      1.828437  1 Pt dxz               24     -0.334888  1 Pt dxz        
    30     -0.252104  1 Pt dxz               38      0.066728  1 Pt dyz        

 Vector   18  Occ=0.000000D+00  E= 2.484667D-01  Symmetry=b2g
              MO Center= -1.9D-13,  7.4D-16, -4.6D-28, r^2= 1.0D+01
   Bfn.  Coefficient  Atom+Function         Bfn.  Coefficient  Atom+Function  
  ----- ------------  ---------------      ----- ------------  ---------------
    35      1.819241  1 Pt dxy               23     -0.330324  1 Pt dxy        
    29     -0.219478  1 Pt dxy        

 Vector   19  Occ=0.000000D+00  E= 2.594918D-01  Symmetry=a1g
              MO Center=  1.2D-15, -1.7D-15,  1.3D-14, r^2= 1.2D+01
   Bfn.  Coefficient  Atom+Function         Bfn.  Coefficient  Atom+Function  
  ----- ------------  ---------------      ----- ------------  ---------------
     5      1.745131  1 Pt s                 34     -1.456928  1 Pt dxx        
    37     -1.456928  1 Pt dyy                6      1.090895  1 Pt s          
    33     -0.371126  1 Pt dzz                3     -0.361756  1 Pt s          
     4     -0.355704  1 Pt s                 28     -0.217624  1 Pt dxx        
    31     -0.217624  1 Pt dyy               39     -0.206387  1 Pt dzz        

 Vector   20  Occ=0.000000D+00  E= 2.364102D-01  Symmetry=a2u
              MO Center= -2.1D-14,  6.5D-16, -1.2D-14, r^2= 1.1D+01
   Bfn.  Coefficient  Atom+Function         Bfn.  Coefficient  Atom+Function  
  ----- ------------  ---------------      ----- ------------  ---------------
    18      1.338275  1 Pt pz                21     -1.085054  1 Pt pz         
    12     -0.278588  1 Pt pz                15     -0.071935  1 Pt pz         
     9     -0.064948  1 Pt pz         

 Vector   21  Occ=0.000000D+00  E= 2.514962D-01  Symmetry=eu
              MO Center=  3.9D-14,  1.1D-13,  6.5D-14, r^2= 1.2D+01
   Bfn.  Coefficient  Atom+Function         Bfn.  Coefficient  Atom+Function  
  ----- ------------  ---------------      ----- ------------  ---------------
    16      1.055862  1 Pt px                19     -0.939395  1 Pt px         
    17      0.750260  1 Pt py                20     -0.667503  1 Pt py         
    10     -0.219141  1 Pt px                11     -0.155715  1 Pt py         
     7     -0.050721  1 Pt px                13     -0.048242  1 Pt px         
     8     -0.036040  1 Pt py                14     -0.034279  1 Pt py         

 Vector   22  Occ=0.000000D+00  E= 2.514962D-01  Symmetry=eu
              MO Center=  2.1D-13,  5.7D-14,  5.9D-14, r^2= 1.2D+01
   Bfn.  Coefficient  Atom+Function         Bfn.  Coefficient  Atom+Function  
  ----- ------------  ---------------      ----- ------------  ---------------
    17      1.055862  1 Pt py                20     -0.939395  1 Pt py         
    16     -0.750260  1 Pt px                19      0.667503  1 Pt px         
    11     -0.219141  1 Pt py                10      0.155715  1 Pt px         
     8     -0.050721  1 Pt py                14     -0.048242  1 Pt py         
     7      0.036040  1 Pt px                13      0.034279  1 Pt px         

 Vector   23  Occ=0.000000D+00  E= 2.801025D-01  Symmetry=b1g
              MO Center= -7.1D-14, -1.5D-13,  7.5D-27, r^2= 1.0D+01
   Bfn.  Coefficient  Atom+Function         Bfn.  Coefficient  Atom+Function  
  ----- ------------  ---------------      ----- ------------  ---------------
    34      0.902321  1 Pt dxx               37     -0.902321  1 Pt dyy        
    22     -0.175700  1 Pt dxx               25      0.175700  1 Pt dyy        
    28     -0.093756  1 Pt dxx               31      0.093756  1 Pt dyy        

 Vector   24  Occ=0.000000D+00  E= 5.079783D-01  Symmetry=a1g
              MO Center=  5.3D-17,  2.5D-17, -1.5D-17, r^2= 1.2D+01
   Bfn.  Coefficient  Atom+Function         Bfn.  Coefficient  Atom+Function  
  ----- ------------  ---------------      ----- ------------  ---------------
     5      9.819976  1 Pt s                  4     -4.545657  1 Pt s          
    34     -2.629360  1 Pt dxx               37     -2.629360  1 Pt dyy        
    39     -2.636534  1 Pt dzz                6      1.567712  1 Pt s          
    28     -1.254416  1 Pt dxx               31     -1.254416  1 Pt dyy        
    33     -1.211288  1 Pt dzz                2      0.602371  1 Pt s          

 Vector   25  Occ=0.000000D+00  E= 7.391173D-01  Symmetry=eg
              MO Center= -3.5D-18,  3.8D-18, -2.5D-15, r^2= 3.9D+00
   Bfn.  Coefficient  Atom+Function         Bfn.  Coefficient  Atom+Function  
  ----- ------------  ---------------      ----- ------------  ---------------
    32     -1.650255  1 Pt dyz               30      1.541947  1 Pt dxz        
    26      0.977918  1 Pt dyz               24     -0.913736  1 Pt dxz        
    38      0.711942  1 Pt dyz               36     -0.665217  1 Pt dxz        

 Vector   26  Occ=0.000000D+00  E= 7.391173D-01  Symmetry=eg
              MO Center= -1.5D-14, -1.4D-14, -4.7D-16, r^2= 3.9D+00
   Bfn.  Coefficient  Atom+Function         Bfn.  Coefficient  Atom+Function  
  ----- ------------  ---------------      ----- ------------  ---------------
    30      1.650255  1 Pt dxz               32      1.541947  1 Pt dyz        
    24     -0.977918  1 Pt dxz               26     -0.913736  1 Pt dyz        
    36     -0.711942  1 Pt dxz               38     -0.665217  1 Pt dyz        

 Vector   27  Occ=0.000000D+00  E= 7.447286D-01  Symmetry=a1g
              MO Center= -1.1D-16, -1.4D-17,  1.1D-15, r^2= 3.9D+00
   Bfn.  Coefficient  Atom+Function         Bfn.  Coefficient  Atom+Function  
  ----- ------------  ---------------      ----- ------------  ---------------
    33      1.359027  1 Pt dzz               27     -0.773103  1 Pt dzz        
    28     -0.595736  1 Pt dxx               31     -0.595736  1 Pt dyy        
    39     -0.476756  1 Pt dzz               22      0.387745  1 Pt dxx        
    25      0.387745  1 Pt dyy               34      0.371942  1 Pt dxx        
    37      0.371942  1 Pt dyy                5     -0.317643  1 Pt s          

 Vector   28  Occ=0.000000D+00  E= 7.319800D-01  Symmetry=b2g
              MO Center=  1.6D-14, -1.1D-14,  6.7D-29, r^2= 4.0D+00
   Bfn.  Coefficient  Atom+Function         Bfn.  Coefficient  Atom+Function  
  ----- ------------  ---------------      ----- ------------  ---------------
    29      2.264723  1 Pt dxy               23     -1.324212  1 Pt dxy        
    35     -0.994877  1 Pt dxy        

 Vector   29  Occ=0.000000D+00  E= 7.537391D-01  Symmetry=b1g
              MO Center= -3.8D-15, -3.8D-15,  3.4D-28, r^2= 4.0D+00
   Bfn.  Coefficient  Atom+Function         Bfn.  Coefficient  Atom+Function  
  ----- ------------  ---------------      ----- ------------  ---------------
    28      1.133921  1 Pt dxx               31     -1.133921  1 Pt dyy        
    22     -0.659366  1 Pt dxx               25      0.659366  1 Pt dyy        
    34     -0.510476  1 Pt dxx               37      0.510476  1 Pt dyy        

 Vector   30  Occ=0.000000D+00  E= 1.176933D+00  Symmetry=a1g
              MO Center=  4.8D-17,  1.0D-17,  1.1D-16, r^2= 5.8D+00
   Bfn.  Coefficient  Atom+Function         Bfn.  Coefficient  Atom+Function  
  ----- ------------  ---------------      ----- ------------  ---------------
     5     10.033600  1 Pt s                  3     -3.783738  1 Pt s          
    28     -3.772668  1 Pt dxx               31     -3.772668  1 Pt dyy        
    33     -3.761974  1 Pt dzz               34     -2.098473  1 Pt dxx        
    37     -2.098473  1 Pt dyy               39     -2.108146  1 Pt dzz        
     4      1.966990  1 Pt s                  6      0.979697  1 Pt s          

 Vector   31  Occ=0.000000D+00  E= 1.364459D+00  Symmetry=a2u
              MO Center=  1.5D-14,  1.3D-14, -1.6D-15, r^2= 2.3D+00
   Bfn.  Coefficient  Atom+Function         Bfn.  Coefficient  Atom+Function  
  ----- ------------  ---------------      ----- ------------  ---------------
    15      1.891150  1 Pt pz                12     -1.551340  1 Pt pz         
    18     -0.924158  1 Pt pz                21      0.352116  1 Pt pz         
     9     -0.283917  1 Pt pz         

 Vector   32  Occ=0.000000D+00  E= 1.357029D+00  Symmetry=eu
              MO Center= -5.8D-18, -3.5D-17,  1.8D-15, r^2= 2.3D+00
   Bfn.  Coefficient  Atom+Function         Bfn.  Coefficient  Atom+Function  
  ----- ------------  ---------------      ----- ------------  ---------------
    13      1.762428  1 Pt px                10     -1.441466  1 Pt px         
    16     -0.870586  1 Pt px                14      0.688050  1 Pt py         
    11     -0.562747  1 Pt py                17     -0.339876  1 Pt py         
    19      0.333462  1 Pt px                 7     -0.263560  1 Pt px         
    20      0.130183  1 Pt py                 8     -0.102894  1 Pt py         

 Vector   33  Occ=0.000000D+00  E= 1.357029D+00  Symmetry=eu
              MO Center= -8.6D-17,  1.8D-17,  2.1D-15, r^2= 2.3D+00
   Bfn.  Coefficient  Atom+Function         Bfn.  Coefficient  Atom+Function  
  ----- ------------  ---------------      ----- ------------  ---------------
    14      1.762428  1 Pt py                11     -1.441466  1 Pt py         
    17     -0.870586  1 Pt py                13     -0.688050  1 Pt px         
    10      0.562747  1 Pt px                16      0.339876  1 Pt px         
    20      0.333462  1 Pt py                 8     -0.263560  1 Pt py         
    19     -0.130183  1 Pt px                 7      0.102894  1 Pt px         

 Vector   34  Occ=0.000000D+00  E= 3.686124D+00  Symmetry=a1g
              MO Center= -6.5D-17,  3.5D-18,  3.6D-16, r^2= 2.1D+00
   Bfn.  Coefficient  Atom+Function         Bfn.  Coefficient  Atom+Function  
  ----- ------------  ---------------      ----- ------------  ---------------
     3     10.653959  1 Pt s                  4     -7.207236  1 Pt s          
     2     -6.552932  1 Pt s                  5     -5.764347  1 Pt s          
    28      3.672143  1 Pt dxx               31      3.672143  1 Pt dyy        
    33      3.670319  1 Pt dzz                1     -1.201065  1 Pt s          
    34      1.165788  1 Pt dxx               37      1.165788  1 Pt dyy        

 Vector   35  Occ=0.000000D+00  E= 1.460024D+01  Symmetry=a1g
              MO Center= -1.3D-17,  2.8D-18,  2.8D-17, r^2= 5.2D-01
   Bfn.  Coefficient  Atom+Function         Bfn.  Coefficient  Atom+Function  
  ----- ------------  ---------------      ----- ------------  ---------------
     3     28.212171  1 Pt s                  4     16.799351  1 Pt s          
     2    -13.567024  1 Pt s                 22    -12.140805  1 Pt dxx        
    25    -12.140805  1 Pt dyy               27    -12.141224  1 Pt dzz        
    28     -3.910099  1 Pt dxx               31     -3.910099  1 Pt dyy        
    33     -3.909872  1 Pt dzz                1      3.297266  1 Pt s          

 Vector   36  Occ=0.000000D+00  E= 4.626468D+01  Symmetry=a2u
              MO Center= -7.8D-19, -2.3D-20, -7.1D-17, r^2= 1.2D-01
   Bfn.  Coefficient  Atom+Function         Bfn.  Coefficient  Atom+Function  
  ----- ------------  ---------------      ----- ------------  ---------------
     9      1.247434  1 Pt pz                12      0.721966  1 Pt pz         
    15     -0.396305  1 Pt pz                18      0.123925  1 Pt pz         
    21     -0.046480  1 Pt pz         

 Vector   37  Occ=0.000000D+00  E= 4.625350D+01  Symmetry=eu
              MO Center= -1.8D-18, -3.3D-20,  8.2D-19, r^2= 1.2D-01
   Bfn.  Coefficient  Atom+Function         Bfn.  Coefficient  Atom+Function  
  ----- ------------  ---------------      ----- ------------  ---------------
     8     -0.916113  1 Pt py                 7      0.846641  1 Pt px         
    11     -0.530188  1 Pt py                10      0.489982  1 Pt px         
    14      0.291082  1 Pt py                13     -0.269008  1 Pt px         
    17     -0.091044  1 Pt py                16      0.084140  1 Pt px         
    20      0.034152  1 Pt py                19     -0.031562  1 Pt px         

 Vector   38  Occ=0.000000D+00  E= 4.625350D+01  Symmetry=eu
              MO Center= -3.2D-20,  4.2D-20, -3.1D-19, r^2= 1.2D-01
   Bfn.  Coefficient  Atom+Function         Bfn.  Coefficient  Atom+Function  
  ----- ------------  ---------------      ----- ------------  ---------------
     7      0.916113  1 Pt px                 8      0.846641  1 Pt py         
    10      0.530188  1 Pt px                11      0.489982  1 Pt py         
    13     -0.291082  1 Pt px                14     -0.269008  1 Pt py         
    16      0.091044  1 Pt px                17      0.084140  1 Pt py         
    19     -0.034152  1 Pt px                20     -0.031562  1 Pt py         

 Vector   39  Occ=0.000000D+00  E= 1.489358D+02  Symmetry=a1g
              MO Center= -9.6D-19, -8.0D-19,  6.2D-18, r^2= 1.5D-01
   Bfn.  Coefficient  Atom+Function         Bfn.  Coefficient  Atom+Function  
  ----- ------------  ---------------      ----- ------------  ---------------
     3     13.809132  1 Pt s                  4     10.730907  1 Pt s          
    22     -6.871666  1 Pt dxx               25     -6.871666  1 Pt dyy        
    27     -6.871667  1 Pt dzz                2     -5.500119  1 Pt s          
     1      3.761927  1 Pt s                 28     -2.766157  1 Pt dxx        
    31     -2.766157  1 Pt dyy               33     -2.766155  1 Pt dzz        


   alpha - beta orbital overlaps 
   ----------------------------- 


   alpha      1      2      3      4      5      6      7      8      9     10
    beta      1      2      4      3     10      6      7      8      9      5
 overlap   1.000  1.000  0.984  0.984  0.799  0.996  0.996  1.000  1.000  0.799


   alpha     11     12     13     14     15     16     17     18     19     20
    beta     11     12     14     13     15     16     17     18     19     20
 overlap   0.998  0.999  0.979  0.979  0.998  0.913  0.913  1.000  0.999  0.999


   alpha     21     22     23     24     25     26     27     28     29     30
    beta     22     21     23     24     25     26     27     28     29     30
 overlap   0.989  0.989  1.000  1.000  0.852  0.852  1.000  1.000  1.000  1.000


   alpha     31     32     33     34     35     36     37     38     39
    beta     31     32     33     34     35     36     37     38     39
 overlap   1.000  0.999  0.999  1.000  1.000  1.000  0.759  0.759  1.000

     --------------------------
     Expectation value of S2:  
     --------------------------
      <S2> =      2.0007 (Exact =     2.0000)


 center of mass
 --------------
 x =   0.00000000 y =   0.00000000 z =   0.00000000

 moments of inertia (a.u.)
 ------------------
           0.000000000000           0.000000000000           0.000000000000
           0.000000000000           0.000000000000           0.000000000000
           0.000000000000           0.000000000000           0.000000000000

     Multipole analysis of the density
     ---------------------------------

     L   x y z        total         alpha         beta         nuclear
     -   - - -        -----         -----         ----         -------
     0   0 0 0     -0.000000    -10.000000     -8.000000     18.000000

     1   1 0 0      0.000000      0.000000      0.000000      0.000000
     1   0 1 0      0.000000      0.000000      0.000000      0.000000
     1   0 0 1      0.000000      0.000000      0.000000      0.000000

     2   2 0 0    -17.062538    -10.897860     -6.164678      0.000000
     2   1 1 0      0.000000      0.000000     -0.000000      0.000000
     2   1 0 1      0.000000      0.000000      0.000000      0.000000
     2   0 2 0    -17.062538    -10.897860     -6.164678      0.000000
     2   0 1 1      0.000000      0.000000      0.000000      0.000000
     2   0 0 2    -18.486975    -11.250506     -7.236468      0.000000


 Task  times  cpu:        2.4s     wall:        2.4s


                                NWChem Input Module
                                -------------------



                                 NWChem DFT Module
                                 -----------------




 Summary of "ao basis" -> "ao basis" (cartesian)
 ------------------------------------------------------------------------------
       Tag                 Description            Shells   Functions and Types
 ---------------- ------------------------------  ------  ---------------------
 Pt                      user specified             14       39   6s5p3d


      Symmetry analysis of basis
      --------------------------

        a1g         9
        a1u         0
        a2g         0
        a2u         0
        eg          6
        eu          0
        t1g         0
        t1u        15
        t2g         9
        t2u         0

  Caching 1-el integrals 

            General Information
            -------------------
          SCF calculation type: DFT
          Wavefunction type:  spin polarized.
          No. of atoms     :     1
          No. of electrons :    18
           Alpha electrons :    10
            Beta electrons :     8
          Charge           :     0
          Spin multiplicity:     3
          Use of symmetry is: on ; symmetry adaption is: on 
          Maximum number of iterations: ***
          AO basis - number of functions:    39
                     number of shells:    14
          Convergence on energy requested:  1.00D-06
          Convergence on density requested:  1.00D-05
          Convergence on gradient requested:  5.00D-04

              XC Information
              --------------
          PerdewBurkeErnzerhof Exchange Functional  1.000          
            Perdew 1991 LDA Correlation Functional  1.000 local    
           PerdewBurkeErnz. Correlation Functional  1.000 non-local

             Grid Information
             ----------------
          Grid used for XC integration:  medium    
          Radial quadrature: Mura-Knowles        
          Angular quadrature: Lebedev. 
          Tag              B.-S. Rad. Rad. Pts. Rad. Cut. Ang. Pts.
          ---              ---------- --------- --------- ---------
          Pt                  1.35      123          13.0       590
          Grid pruning is: on 
          Number of quadrature shells:   123
          Spatial weights used:  Erf1

          Convergence Information
          -----------------------
          Convergence aids based upon iterative change in 
          total energy or number of iterations. 
          Levelshifting, if invoked, occurs when the 
          HOMO/LUMO gap drops below (HL_TOL):  1.00D-02
          DIIS, if invoked, will attempt to extrapolate 
          using up to (NFOCK): 10 stored Fock matrices.

                    Damping( 0%)  Levelshifting(0.5)       DIIS
                  --------------- ------------------- ---------------
          dE  on:    start            ASAP                start   
          dE off:    2 iters        *** iters           *** iters 


      Screening Tolerance Information
      -------------------------------
          Density screening/tol_rho:  1.00D-10
          AO Gaussian exp screening on grid/accAOfunc:  14
          CD Gaussian exp screening on grid/accCDfunc:  20
          XC Gaussian exp screening on grid/accXCfunc:  20
          Schwarz screening/accCoul:  1.00D-08


 Loading old vectors from job with title :




   Symmetry analysis of molecular orbitals - initial alpha
   -------------------------------------------------------


 !! scf_movecs_sym_adapt:   11 vectors were symmetry contaminated

  Symmetry fudging

 !! scf_movecs_sym_adapt:    8 vectors were symmetry contaminated

  Numbering of irreducible representations: 

     1 a1g         2 a1u         3 a2g         4 a2u         5 eg      
     6 eu          7 t1g         8 t1u         9 t2g        10 t2u     

  Orbital symmetries:

     1 a1g         2 t1u         3 t1u         4 t1u         5 a1g     
     6 t2g         7 t2g         8 t2g         9 eg         10 eg      
    11 a1g        12 t1u        13 t1u        14 t1u        15 a1g     
    16 t2g        17 t2g        18 t2g        19 eg         20 t1u     


   Symmetry analysis of molecular orbitals - initial beta
   ------------------------------------------------------


 !! scf_movecs_sym_adapt:   11 vectors were symmetry contaminated

  Symmetry fudging

 !! scf_movecs_sym_adapt:    7 vectors were symmetry contaminated

  Numbering of irreducible representations: 

     1 a1g         2 a1u         3 a2g         4 a2u         5 eg      
     6 eu          7 t1g         8 t1u         9 t2g        10 t2u     

  Orbital symmetries:

     1 a1g         2 t1u         3 t1u         4 t1u         5 eg      
     6 t2g         7 t2g         8 t2g         9 eg         10 a1g     
    11 a1g        12 t1u        13 t1u        14 t1u        15 a1g     
    16 t2g        17 t2g        18 t2g        19 eg         20 t1u     

   Time after variat. SCF:      2.5
   Time prior to 1st pass:      2.5

 Grid_pts file          = ./ptatom.gridpts.0
 Record size in doubles =  12289        No. of grid_pts per rec  =   3070
 Max. records in memory =      8        Max. recs in file   = 253312716

 Grid integrated density:      18.460475071123
 Requested integration accuracy:   0.10E-05
 Warning: spatial symmetry breaking:  beta =  3.06D-01

           Memory utilization after 1st SCF pass: 
           Heap Space remaining (MW):       51.72            51721040
          Stack Space remaining (MW):       86.25            86246716

   convergence    iter        energy       DeltaE   RMS-Dens  Diis-err    time
 ---------------- ----- ----------------- --------- --------- ---------  ------
[...]
    32     -0.144370  1 Pt dyz               24      0.122445  1 Pt dxz        
    30      0.078762  1 Pt dxz        

 Vector   17  Occ=0.000000D+00  E= 1.110088D-01  Symmetry=t2g
              MO Center= -6.2D-14, -1.9D-14,  5.5D-14, r^2= 1.0D+01
   Bfn.  Coefficient  Atom+Function         Bfn.  Coefficient  Atom+Function  
  ----- ------------  ---------------      ----- ------------  ---------------
    35      1.356747  1 Pt dxy               38     -1.045902  1 Pt dyz        
    36      0.607451  1 Pt dxz               23     -0.255630  1 Pt dxy        
    26      0.197062  1 Pt dyz               29     -0.164431  1 Pt dxy        
    32      0.126758  1 Pt dyz               24     -0.114452  1 Pt dxz        
    30     -0.073620  1 Pt dxz        

 Vector   18  Occ=0.000000D+00  E= 1.110088D-01  Symmetry=t2g
              MO Center= -6.2D-19, -3.5D-19,  8.7D-20, r^2= 1.0D+01
   Bfn.  Coefficient  Atom+Function         Bfn.  Coefficient  Atom+Function  
  ----- ------------  ---------------      ----- ------------  ---------------
    36      1.585035  1 Pt dxz               38      0.889241  1 Pt dyz        
    24     -0.298642  1 Pt dxz               30     -0.192099  1 Pt dxz        
    26     -0.167545  1 Pt dyz               32     -0.107772  1 Pt dyz        

 Vector   19  Occ=0.000000D+00  E= 1.135778D-01  Symmetry=eg
              MO Center= -2.1D-20,  7.3D-21, -1.1D-19, r^2= 1.0D+01
   Bfn.  Coefficient  Atom+Function         Bfn.  Coefficient  Atom+Function  
  ----- ------------  ---------------      ----- ------------  ---------------
    39      1.023568  1 Pt dzz               34     -0.718030  1 Pt dxx        
    37     -0.305538  1 Pt dyy               27     -0.193071  1 Pt dzz        
    22      0.135439  1 Pt dxx               33     -0.128410  1 Pt dzz        
    28      0.090080  1 Pt dxx               25      0.057632  1 Pt dyy        
    31      0.038331  1 Pt dyy        

 Vector   20  Occ=0.000000D+00  E= 1.147249D-01  Symmetry=t1u
              MO Center=  8.5D-14, -2.6D-14,  2.6D-14, r^2= 1.2D+01
   Bfn.  Coefficient  Atom+Function         Bfn.  Coefficient  Atom+Function  
  ----- ------------  ---------------      ----- ------------  ---------------
    18      1.181692  1 Pt pz                21     -1.068470  1 Pt pz         
    17     -0.362656  1 Pt py                16     -0.358183  1 Pt px         
    20      0.327909  1 Pt py                19      0.323865  1 Pt px         
    12     -0.244484  1 Pt pz                11      0.075031  1 Pt py         
    10      0.074106  1 Pt px                 9     -0.056586  1 Pt pz         

 Vector   21  Occ=0.000000D+00  E= 1.147249D-01  Symmetry=t1u
              MO Center=  9.5D-14, -1.3D-13,  4.4D-15, r^2= 1.2D+01
   Bfn.  Coefficient  Atom+Function         Bfn.  Coefficient  Atom+Function  
  ----- ------------  ---------------      ----- ------------  ---------------
    17      1.233958  1 Pt py                20     -1.115729  1 Pt py         
    18      0.333184  1 Pt pz                21     -0.301261  1 Pt pz         
    11     -0.255298  1 Pt py                16     -0.150150  1 Pt px         
    19      0.135763  1 Pt px                12     -0.068934  1 Pt pz         
     8     -0.059089  1 Pt py                14     -0.056037  1 Pt py         

 Vector   22  Occ=0.000000D+00  E= 1.147249D-01  Symmetry=t1u
              MO Center= -5.1D-15,  4.2D-14, -1.8D-14, r^2= 1.2D+01
   Bfn.  Coefficient  Atom+Function         Bfn.  Coefficient  Atom+Function  
  ----- ------------  ---------------      ----- ------------  ---------------
    16      1.226935  1 Pt px                19     -1.109379  1 Pt px         
    18      0.385750  1 Pt pz                21     -0.348790  1 Pt pz         
    10     -0.253845  1 Pt px                12     -0.079809  1 Pt pz         
     7     -0.058753  1 Pt px                13     -0.055718  1 Pt px         
    17      0.045138  1 Pt py                20     -0.040813  1 Pt py         

 Vector   23  Occ=0.000000D+00  E= 1.135778D-01  Symmetry=eg
              MO Center=  2.4D-14,  9.9D-14, -2.1D-14, r^2= 1.0D+01
   Bfn.  Coefficient  Atom+Function         Bfn.  Coefficient  Atom+Function  
  ----- ------------  ---------------      ----- ------------  ---------------
    37      1.005512  1 Pt dyy               34     -0.767360  1 Pt dxx        
    39     -0.238153  1 Pt dzz               25     -0.189674  1 Pt dyy        
    22      0.144750  1 Pt dxx               31     -0.126148  1 Pt dyy        
    28      0.096270  1 Pt dxx               27      0.044924  1 Pt dzz        
    33      0.029878  1 Pt dzz        

 Vector   24  Occ=0.000000D+00  E= 3.752956D-01  Symmetry=a1g
              MO Center= -2.7D-17,  2.3D-17,  1.2D-16, r^2= 1.2D+01
   Bfn.  Coefficient  Atom+Function         Bfn.  Coefficient  Atom+Function  
  ----- ------------  ---------------      ----- ------------  ---------------
     5      9.854109  1 Pt s                  4     -4.605823  1 Pt s          
    34     -2.696437  1 Pt dxx               37     -2.696437  1 Pt dyy        
    39     -2.696437  1 Pt dzz                6      1.681561  1 Pt s          
    28     -1.226560  1 Pt dxx               31     -1.226560  1 Pt dyy        
    33     -1.226560  1 Pt dzz                2      0.593261  1 Pt s          

 Vector   25  Occ=0.000000D+00  E= 5.981590D-01  Symmetry=t2g
              MO Center= -1.0D-16, -5.7D-17,  4.1D-17, r^2= 4.0D+00
   Bfn.  Coefficient  Atom+Function         Bfn.  Coefficient  Atom+Function  
  ----- ------------  ---------------      ----- ------------  ---------------
    29      2.058469  1 Pt dxy               23     -1.211051  1 Pt dxy        
    30     -0.910824  1 Pt dxz               35     -0.907416  1 Pt dxy        
    24      0.535861  1 Pt dxz               36      0.401510  1 Pt dxz        
    32      0.228442  1 Pt dyz               26     -0.134398  1 Pt dyz        
    38     -0.100702  1 Pt dyz        

 Vector   26  Occ=0.000000D+00  E= 5.981590D-01  Symmetry=t2g
              MO Center=  4.3D-16,  5.9D-16,  2.4D-16, r^2= 4.0D+00
   Bfn.  Coefficient  Atom+Function         Bfn.  Coefficient  Atom+Function  
  ----- ------------  ---------------      ----- ------------  ---------------
    32      1.901270  1 Pt dyz               30      1.185697  1 Pt dxz        
    26     -1.118566  1 Pt dyz               38     -0.838120  1 Pt dyz        
    24     -0.697577  1 Pt dxz               36     -0.522680  1 Pt dxz        
    29      0.313647  1 Pt dxy               23     -0.184527  1 Pt dxy        
    35     -0.138262  1 Pt dxy        

 Vector   27  Occ=0.000000D+00  E= 6.051264D-01  Symmetry=eg
              MO Center=  1.6D-16,  7.7D-17,  7.5D-16, r^2= 3.9D+00
   Bfn.  Coefficient  Atom+Function         Bfn.  Coefficient  Atom+Function  
  ----- ------------  ---------------      ----- ------------  ---------------
    33      1.272055  1 Pt dzz               28     -0.892383  1 Pt dxx        
    27     -0.748676  1 Pt dzz               39     -0.557902  1 Pt dzz        
    22      0.525218  1 Pt dxx               34      0.391384  1 Pt dxx        
    31     -0.379672  1 Pt dyy               25      0.223459  1 Pt dyy        
    37      0.166518  1 Pt dyy        

 Vector   28  Occ=0.000000D+00  E= 5.981590D-01  Symmetry=t2g
              MO Center= -9.5D-16,  1.1D-15, -1.8D-16, r^2= 4.0D+00
   Bfn.  Coefficient  Atom+Function         Bfn.  Coefficient  Atom+Function  
  ----- ------------  ---------------      ----- ------------  ---------------
    30      1.698117  1 Pt dxz               32     -1.205017  1 Pt dyz        
    24     -0.999046  1 Pt dxz               29      0.885106  1 Pt dxy        
    36     -0.748566  1 Pt dxz               26      0.708943  1 Pt dyz        
    38      0.531197  1 Pt dyz               23     -0.520731  1 Pt dxy        
    35     -0.390173  1 Pt dxy        

 Vector   29  Occ=0.000000D+00  E= 6.051264D-01  Symmetry=eg
              MO Center= -5.6D-16,  8.6D-16,  5.7D-16, r^2= 3.9D+00
   Bfn.  Coefficient  Atom+Function         Bfn.  Coefficient  Atom+Function  
  ----- ------------  ---------------      ----- ------------  ---------------
    31      1.249641  1 Pt dyy               28     -0.953627  1 Pt dxx        
    25     -0.735478  1 Pt dyy               22      0.561259  1 Pt dxx        
    37     -0.548071  1 Pt dyy               34      0.418244  1 Pt dxx        
    33     -0.296014  1 Pt dzz               27      0.174220  1 Pt dzz        
    39      0.129827  1 Pt dzz        

 Vector   30  Occ=0.000000D+00  E= 1.038074D+00  Symmetry=a1g
              MO Center= -2.5D-17,  2.1D-17,  9.6D-17, r^2= 5.9D+00
   Bfn.  Coefficient  Atom+Function         Bfn.  Coefficient  Atom+Function  
  ----- ------------  ---------------      ----- ------------  ---------------
     5     10.127448  1 Pt s                  3     -3.783062  1 Pt s          
    28     -3.779791  1 Pt dxx               31     -3.779791  1 Pt dyy        
    33     -3.779791  1 Pt dzz               34     -2.134522  1 Pt dxx        
    37     -2.134522  1 Pt dyy               39     -2.134522  1 Pt dzz        
     4      1.919855  1 Pt s                  6      1.009593  1 Pt s          

 Vector   31  Occ=0.000000D+00  E= 1.218341D+00  Symmetry=t1u
              MO Center= -2.1D-16,  2.3D-17, -1.2D-16, r^2= 2.3D+00
   Bfn.  Coefficient  Atom+Function         Bfn.  Coefficient  Atom+Function  
  ----- ------------  ---------------      ----- ------------  ---------------
    14      1.859137  1 Pt py                11     -1.521770  1 Pt py         
    17     -0.917923  1 Pt py                20      0.354058  1 Pt py         
    15     -0.348994  1 Pt pz                12      0.285664  1 Pt pz         
     8     -0.278332  1 Pt py                18      0.172311  1 Pt pz         
    21     -0.066463  1 Pt pz                 9      0.052248  1 Pt pz         

 Vector   32  Occ=0.000000D+00  E= 1.218341D+00  Symmetry=t1u
              MO Center= -2.6D-16, -4.9D-16, -2.9D-17, r^2= 2.3D+00
   Bfn.  Coefficient  Atom+Function         Bfn.  Coefficient  Atom+Function  
  ----- ------------  ---------------      ----- ------------  ---------------
    15      1.787239  1 Pt pz                12     -1.462919  1 Pt pz         
    18     -0.882425  1 Pt pz                13     -0.516493  1 Pt px         
    10      0.422768  1 Pt px                14      0.343576  1 Pt py         
    21      0.340366  1 Pt pz                11     -0.281229  1 Pt py         
     9     -0.267568  1 Pt pz                16      0.255011  1 Pt px         

 Vector   33  Occ=0.000000D+00  E= 1.218341D+00  Symmetry=t1u
              MO Center=  2.9D-17, -1.1D-16,  7.1D-17, r^2= 2.3D+00
   Bfn.  Coefficient  Atom+Function         Bfn.  Coefficient  Atom+Function  
  ----- ------------  ---------------      ----- ------------  ---------------
    13      1.819732  1 Pt px                10     -1.489516  1 Pt px         
    16     -0.898467  1 Pt px                15      0.512847  1 Pt pz         
    12     -0.419784  1 Pt pz                19      0.346554  1 Pt px         
     7     -0.272432  1 Pt px                18     -0.253211  1 Pt pz         
    21      0.097668  1 Pt pz                 9     -0.076778  1 Pt pz         

 Vector   34  Occ=0.000000D+00  E= 3.545201D+00  Symmetry=a1g
              MO Center=  4.5D-17, -3.7D-17, -1.7D-16, r^2= 2.1D+00
   Bfn.  Coefficient  Atom+Function         Bfn.  Coefficient  Atom+Function  
  ----- ------------  ---------------      ----- ------------  ---------------
     3     10.658877  1 Pt s                  4     -7.202625  1 Pt s          
     2     -6.554478  1 Pt s                  5     -5.782054  1 Pt s          
    28      3.675274  1 Pt dxx               31      3.675274  1 Pt dyy        
    33      3.675274  1 Pt dzz                1     -1.200835  1 Pt s          
    34      1.171631  1 Pt dxx               37      1.171631  1 Pt dyy        

 Vector   35  Occ=0.000000D+00  E= 1.445924D+01  Symmetry=a1g
              MO Center= -7.7D-17,  4.7D-19, -5.7D-18, r^2= 5.2D-01
   Bfn.  Coefficient  Atom+Function         Bfn.  Coefficient  Atom+Function  
  ----- ------------  ---------------      ----- ------------  ---------------
     3     28.211606  1 Pt s                  4     16.799592  1 Pt s          
     2    -13.566618  1 Pt s                 22    -12.140958  1 Pt dxx        
    25    -12.140958  1 Pt dyy               27    -12.140958  1 Pt dzz        
    28     -3.910260  1 Pt dxx               31     -3.910260  1 Pt dyy        
    33     -3.910260  1 Pt dzz                1      3.297365  1 Pt s          

 Vector   36  Occ=0.000000D+00  E= 4.611714D+01  Symmetry=t1u
              MO Center=  8.3D-20,  1.1D-20, -1.7D-18, r^2= 1.2D-01
   Bfn.  Coefficient  Atom+Function         Bfn.  Coefficient  Atom+Function  
  ----- ------------  ---------------      ----- ------------  ---------------
     9      1.247360  1 Pt pz                12      0.721894  1 Pt pz         
    15     -0.396311  1 Pt pz                18      0.123957  1 Pt pz         
    21     -0.046506  1 Pt pz         

 Vector   37  Occ=0.000000D+00  E= 4.611714D+01  Symmetry=t1u
              MO Center= -2.6D-18, -6.4D-19, -8.8D-19, r^2= 1.2D-01
   Bfn.  Coefficient  Atom+Function         Bfn.  Coefficient  Atom+Function  
  ----- ------------  ---------------      ----- ------------  ---------------
     8      1.246382  1 Pt py                11      0.721328  1 Pt py         
    14     -0.396000  1 Pt py                17      0.123860  1 Pt py         
     7     -0.049701  1 Pt px                20     -0.046470  1 Pt py         
    10     -0.028764  1 Pt px         

 Vector   38  Occ=0.000000D+00  E= 4.611714D+01  Symmetry=t1u
              MO Center=  7.1D-17,  2.3D-18,  5.9D-19, r^2= 1.2D-01
   Bfn.  Coefficient  Atom+Function         Bfn.  Coefficient  Atom+Function  
  ----- ------------  ---------------      ----- ------------  ---------------
     7      1.246423  1 Pt px                10      0.721351  1 Pt px         
    13     -0.396013  1 Pt px                16      0.123864  1 Pt px         
     8      0.049652  1 Pt py                19     -0.046471  1 Pt px         
    11      0.028735  1 Pt py         

 Vector   39  Occ=0.000000D+00  E= 1.487957D+02  Symmetry=a1g
              MO Center=  8.3D-19, -1.4D-20,  2.4D-18, r^2= 1.5D-01
   Bfn.  Coefficient  Atom+Function         Bfn.  Coefficient  Atom+Function  
  ----- ------------  ---------------      ----- ------------  ---------------
     3     13.809035  1 Pt s                  4     10.730862  1 Pt s          
    22     -6.871638  1 Pt dxx               25     -6.871638  1 Pt dyy        
    27     -6.871638  1 Pt dzz                2     -5.500072  1 Pt s          
     1      3.761922  1 Pt s                 28     -2.766169  1 Pt dxx        
    31     -2.766169  1 Pt dyy               33     -2.766169  1 Pt dzz        


   alpha - beta orbital overlaps 
   ----------------------------- 


   alpha      1      2      3      4      5      6      7      8      9     10
    beta      1      4      3      3     10      6      8      7      5      9
 overlap   1.000  0.735  0.635  0.762  1.000  0.847  0.865  0.911  0.774  0.774


   alpha     11     12     13     14     15     16     17     18     19     20
    beta     11     13     14     12     15     17     16     18     19     22
 overlap   0.996  0.828  0.796  0.881  0.996  0.919  0.949  0.927  0.887  0.928


   alpha     21     22     23     24     25     26     27     28     29     30
    beta     21     20     23     24     25     28     29     26     27     30
 overlap   0.888  0.850  0.887  1.000  0.998  0.961  0.904  0.963  0.904  1.000


   alpha     31     32     33     34     35     36     37     38     39
    beta     33     31     32     34     35     36     38     37     39
 overlap   0.831  0.866  0.846  1.000  1.000  1.000  0.984  0.984  1.000

     --------------------------
     Expectation value of S2:  
     --------------------------
      <S2> =      2.0004 (Exact =     2.0000)


 Task  times  cpu:        0.5s     wall:        0.5s


                                NWChem Input Module
                                -------------------


 Summary of allocated global arrays
-----------------------------------
  No active global arrays



                         GA Statistics for process    0
                         ------------------------------

       create   destroy   get      put      acc     scatter   gather  read&inc
calls: 3116     3116     5.66e+04 2.44e+04 9130        0        0     5691     
number of processes/call 1.11e+00 1.07e+00 1.53e+00 0.00e+00 0.00e+00
bytes total:             1.25e+08 3.58e+07 1.11e+08 0.00e+00 0.00e+00 4.55e+04
bytes remote:            2.32e+07 4.74e+06 1.44e+07 0.00e+00 0.00e+00 0.00e+00
Max memory consumed for GA by this process: 790920 bytes

MA_summarize_allocated_blocks: starting scan ...
heap block 'gridpts', handle 113, address 0x55e322056160:
	type of elements:		double precision
	number of elements:		34413788
	address of client space:	0x55e3220561c0
	index for client space:		14065739
	total number of bytes:		275310408
MA_summarize_allocated_blocks: scan completed: 1 heap block, 0 stack blocks
MA usage statistics:

	allocation statistics:
					      heap	     stack
					      ----	     -----
	current number of blocks	         1	         0
	maximum number of blocks	        41	        57
	current total bytes		 275310408	         0
	maximum total bytes		 276209720	  22512904
	maximum total K-bytes		    276210	     22513
	maximum total M-bytes		       277	        23


                                     CITATION
                                     --------
                Please cite the following reference when publishing
                           results obtained with NWChem:

                 M. Valiev, E.J. Bylaska, N. Govind, K. Kowalski,
              T.P. Straatsma, H.J.J. van Dam, D. Wang, J. Nieplocha,
                        E. Apra, T.L. Windus, W.A. de Jong
                 "NWChem: a comprehensive and scalable open-source
                  solution for large scale molecular simulations"
                      Comput. Phys. Commun. 181, 1477 (2010)
                           doi:10.1016/j.cpc.2010.04.018

                                      AUTHORS
                                      -------
          E. Apra, E. J. Bylaska, W. A. de Jong, N. Govind, K. Kowalski,
       T. P. Straatsma, M. Valiev, H. J. J. van Dam, D. Wang, T. L. Windus,
        J. Hammond, J. Autschbach, K. Bhaskaran-Nair, J. Brabec, K. Lopata,
    S. A. Fischer, S. Krishnamoorthy, M. Jacquelin, W. Ma, M. Klemm, O. Villa,
      Y. Chen, V. Anisimov, F. Aquino, S. Hirata, M. T. Hackler, V. Konjkov,
            D. Mejia-Rodriguez, T. Risthaus, M. Malagoli, A. Marenich,
   A. Otero-de-la-Roza, J. Mullin, P. Nichols, R. Peverati, J. Pittner, Y. Zhao,
        P.-D. Fan, A. Fonari, M. J. Williamson, R. J. Harrison, J. R. Rehr,
      M. Dupuis, D. Silverstein, D. M. A. Smith, J. Nieplocha, V. Tipparaju,
    M. Krishnan, B. E. Van Kuiken, A. Vazquez-Mayagoitia, L. Jensen, M. Swart,
      Q. Wu, T. Van Voorhis, A. A. Auer, M. Nooijen, L. D. Crosby, E. Brown,
      G. Cisneros, G. I. Fann, H. Fruchtl, J. Garza, K. Hirao, R. A. Kendall,
      J. A. Nichols, K. Tsemekhman, K. Wolinski, J. Anchell, D. E. Bernholdt,
      P. Borowski, T. Clark, D. Clerc, H. Dachsel, M. J. O. Deegan, K. Dyall,
    D. Elwood, E. Glendening, M. Gutowski, A. C. Hess, J. Jaffe, B. G. Johnson,
     J. Ju, R. Kobayashi, R. Kutteh, Z. Lin, R. Littlefield, X. Long, B. Meng,
      T. Nakajima, S. Niu, L. Pollack, M. Rosing, K. Glaesemann, G. Sandrone,
      M. Stave, H. Taylor, G. Thomas, J. H. van Lenthe, A. T. Wong, Z. Zhang.

 Total times  cpu:        3.0s     wall:        3.0s
