 argument  1 = /home/list1234/source/nwchem-6.8.1-release/QA/tests/qmmm_opt0/qmmm_opt0.nw



============================== echo of input deck ==============================
echo
memory total 800 Mb

start asa

#prepare
#  system asa_ref
#  source asa.pdb
#  new_top new_seq
#  new_rst
#  modify atom 2:_CB quantum
#  modify atom 2:2HB quantum
#  modify atom 2:3HB quantum
#  modify atom 2:_OG quantum
#  modify atom 2:_HG quantum
#  center
#  orient
#  solvate
#  fix segments beyond 0.5 2:_OG
#  update lists
#  ignore
#  write asa_ref.rst
#  write asa_ref.pdb   # Write out PDB file to check structure
#end
#task prepare
#

#----------------------------------------
# this can be replaced by
# task shell "cp asa_ref.rst asa_qmmm.rst"
#-----------------------------------------
prepare
read asa_ref.rst
write asa_qmmm.rst
end
task prepare
#----------------------------------------
# noshake solute always have tobe present
# if optimizing classical solvent
#---------------------------------------
md
  system asa_qmmm
  noshake solute
  cells 2 2 2
end

basis "ao basis"
  * library "6-31G*"
end

dft
 print low
 iterations 500
end

#----------------------------------------
# optimization will be done for three
# regions (one after another)
# esp charges will be used where possible
# to speed up calculations
#----------------------------------------
qmmm
region qmlink mm_solute solvent
maxiter 5     5         5
ncycles 3
density espfit
end

task qmmm dft optimize

================================================================================


                                         
                                         


              Northwest Computational Chemistry Package (NWChem) 6.8
              ------------------------------------------------------


                    Environmental Molecular Sciences Laboratory
                       Pacific Northwest National Laboratory
                                Richland, WA 99352

                              Copyright (c) 1994-2018
                       Pacific Northwest National Laboratory
                            Battelle Memorial Institute

             NWChem is an open-source computational chemistry package
                        distributed under the terms of the
                      Educational Community License (ECL) 2.0
             A copy of the license is included with this distribution
                              in the LICENSE.TXT file

                                  ACKNOWLEDGMENT
                                  --------------

            This software and its documentation were developed at the
            EMSL at Pacific Northwest National Laboratory, a multiprogram
            national laboratory, operated for the U.S. Department of Energy
            by Battelle under Contract Number DE-AC05-76RL01830. Support
            for this work was provided by the Department of Energy Office
            of Biological and Environmental Research, Office of Basic
            Energy Sciences, and the Office of Advanced Scientific Computing.


           Job information
           ---------------

    hostname        = list1234-B360M-H
    program         = /home/list1234/source/nwchem-6.8.1-release/bin/LINUX64/nwchem
    date            = Sun Jun 30 07:08:28 2019

    compiled        = Sun_Jun_30_05:21:11_2019
    source          = /home/list1234/source/nwchem-6.8.1-release
    nwchem branch   = Development
    nwchem revision = N/A
    ga revision     = 5.6.5
    use scalapack   = T
    input           = /home/list1234/source/nwchem-6.8.1-release/QA/tests/qmmm_opt0/qmmm_opt0.nw
    prefix          = asa.
    data base       = ./asa.db
    status          = startup
    nproc           =        4
    time left       =     -1s



           Memory information
           ------------------

    heap     =   26214396 doubles =    200.0 Mbytes
    stack    =   26214401 doubles =    200.0 Mbytes
    global   =   52428800 doubles =    400.0 Mbytes (distinct from heap & stack)
    total    =  104857597 doubles =    800.0 Mbytes
    verify   = yes
    hardfail = no 


           Directory information
           ---------------------

  0 permanent = .
  0 scratch   = .




                                NWChem Input Module
                                -------------------


                                  Prepare Module
                                  --------------

 Force field                           


 Directories used for fragment and segment files


 Parameter files used to resolve force field parameters

 Using existing topology               asa.top
 Topology                              asa.top

 Restart generation using command file directives

 Read restart                          asa_ref.rst


 Created restart                       asa_qmmm.rst


 Task  times  cpu:        0.0s     wall:        0.0s


                                NWChem Input Module
                                -------------------




 Summary of "ao basis" -> "" (cartesian)
 ------------------------------------------------------------------------------
       Tag                 Description            Shells   Functions and Types
 ---------------- ------------------------------  ------  ---------------------
 *                           6-31G*                   on all atoms 


 in qmmm_input:                     
 out of qmmm_input:                     
 ****************************************************
 *      NWChem QM/MM Interface Module               *
 *                                                  *
 *      Developed Marat Valiev 2004                 *
 ****************************************************
                    QM/MM Interface Parameters
                    --------------------------
 operation             task:operation        optimize                                                      
 reference energy      qmmm:uqmatm               0.000000  <--- Warning zero value is not advisable !!!    
 bqzone radius         qmmm:bqzone               9.000000                                                  
 excluded bq's         qmmm:bq_exclude       none                                                          
 link atom type        qmmm:linkatm          hydrogens                                                     
 optimization method   qmmm:optimization     bfgs                                                          
 qmmm:region 1         qmlink                                                        
 qmmm:region 2         mm_solute                                                     
 qmmm:region 3         solvent                                                       
 ecp on link atoms     qmmm:link_ecp         auto                                                          
 interface api         qmmm:interface        qm                                                            
 ------------------------------------------------------


 number of quantum atoms                    5
 Total number of Bq charges                  362
 Number of solute Bq charges                   29
 Number of solvent Bq charges                  333
 Total Bq charge:   -5.4999999999999716E-002
         6
   
  C             0.886894        1.685381       -0.084112        17
  H             1.896658        1.241348       -0.097263        18
  H             0.702993        2.180159       -1.045539        19
  O             0.904933        2.735151        0.874459        20
  H             0.000000        2.992744        1.044729        21
  H_L           0.143504        0.878161        0.065495        15
@------------------------------------------------
@
@ QM/MM Multiple Region Optimization
@ region1:  qmlink    with bfgs      maxiter =  5
@ region2:  mm_solute with lbfgs     maxiter =  5
@ region3:  solvent   with sd        maxiter =  5
@
@
@------------------------------------------------
@ ncycle =  1
@
@
@ Optimizing qmlink     region with bfgs  
@
         6
   
  C             0.886894        1.685381       -0.084112        17
  H             1.896658        1.241348       -0.097263        18
  H             0.702993        2.180159       -1.045539        19
  O             0.904933        2.735151        0.874459        20
  H             0.000000        2.992744        1.044729        21
  C            -0.161611        0.546848        0.126899        15


                           NWChem Geometry Optimization
                           ----------------------------


 maximum gradient threshold         (gmax) =   0.000450
 rms gradient threshold             (grms) =   0.000300
 maximum cartesian step threshold   (xmax) =   0.001800
 rms cartesian step threshold       (xrms) =   0.001200
 fixed trust radius                (trust) =   0.300000
 maximum step size to saddle      (sadstp) =   0.100000
 energy precision                  (eprec) =   5.0D-06
 maximum number of steps          (nptopt) =    5
 initial hessian option           (inhess) =    0
 line search option               (linopt) =    1
 hessian update option            (modupd) =    1
 saddle point option              (modsad) =    0
 initial eigen-mode to follow     (moddir) =    0
 initial variable to follow       (vardir) =    0
 follow first negative mode     (firstneg) =    T
 apply conjugacy                    (opcg) =    F
 source of zmatrix                         =           


          -------------------
          Energy Minimization
          -------------------


 Using diagonal initial Hessian 

          --------
          Step   0
          --------


                         Geometry "geometry" -> "geometry"
                         ---------------------------------

 Output coordinates in angstroms (scale by  1.889725989 to convert to a.u.)

  No.       Tag          Charge          X              Y              Z
 ---- ---------------- ---------- -------------- -------------- --------------
    1 C                    6.0000     0.88689390     1.68538120    -0.08411160
    2 H                    1.0000     1.89665800     1.24134790    -0.09726310
    3 H                    1.0000     0.70299330     2.18015950    -1.04553910
    4 O                    8.0000     0.90493290     2.73515060     0.87445860
    5 H                    1.0000     0.00000000     2.99274380     1.04472950
    6 C                   -0.0249    -0.16161090     0.54684810     0.12689870

      Atomic Mass 
      ----------- 

      C                 12.000000
      H                  1.007825
      O                 15.994910


 Effective nuclear repulsion energy (a.u.)      34.4845171260

            Nuclear Dipole moment (a.u.) 
            ----------------------------
        X                 Y               Z
 ---------------- ---------------- ----------------
    28.6567535439    72.5543789728    12.0749082316

 Total number of active Bq charges                     1
 frozen_density,esp T T
 disabling frozen_density,esp due to active qm atoms
         6
   
  C             0.886894        1.685381       -0.084112        17
  H             1.896658        1.241348       -0.097263        18
  H             0.702993        2.180159       -1.045539        19
  O             0.904933        2.735151        0.874459        20
  H             0.000000        2.992744        1.044729        21
  H_L           0.143504        0.878161        0.065495        15

                                 NWChem DFT Module
                                 -----------------


                      Basis "ao basis" -> "ao basis" (cartesian)
                      -----
  C (Carbon)
  ----------
            Exponent  Coefficients 
       -------------- ---------------------------------------------------------
  1 S  3.04752490E+03  0.001835
  1 S  4.57369510E+02  0.014037
  1 S  1.03948690E+02  0.068843
  1 S  2.92101550E+01  0.232184
  1 S  9.28666300E+00  0.467941
  1 S  3.16392700E+00  0.362312

  2 S  7.86827240E+00 -0.119332
  2 S  1.88128850E+00 -0.160854
  2 S  5.44249300E-01  1.143456

  3 P  7.86827240E+00  0.068999
  3 P  1.88128850E+00  0.316424
  3 P  5.44249300E-01  0.744308

  4 S  1.68714400E-01  1.000000

  5 P  1.68714400E-01  1.000000

  6 D  8.00000000E-01  1.000000

  H (Hydrogen)
  ------------
            Exponent  Coefficients 
       -------------- ---------------------------------------------------------
  1 S  1.87311370E+01  0.033495
  1 S  2.82539370E+00  0.234727
  1 S  6.40121700E-01  0.813757

  2 S  1.61277800E-01  1.000000

  O (Oxygen)
  ----------
            Exponent  Coefficients 
       -------------- ---------------------------------------------------------
  1 S  5.48467170E+03  0.001831
  1 S  8.25234950E+02  0.013950
  1 S  1.88046960E+02  0.068445
  1 S  5.29645000E+01  0.232714
  1 S  1.68975700E+01  0.470193
  1 S  5.79963530E+00  0.358521

  2 S  1.55396160E+01 -0.110778
  2 S  3.59993360E+00 -0.148026
  2 S  1.01376180E+00  1.130767

  3 P  1.55396160E+01  0.070874
  3 P  3.59993360E+00  0.339753
  3 P  1.01376180E+00  0.727159

  4 S  2.70005800E-01  1.000000

  5 P  2.70005800E-01  1.000000

  6 D  8.00000000E-01  1.000000

  H_L (Hydrogen)
  --------------
            Exponent  Coefficients 
       -------------- ---------------------------------------------------------
  1 S  1.87311370E+01  0.033495
  1 S  2.82539370E+00  0.234727
  1 S  6.40121700E-01  0.813757

  2 S  1.61277800E-01  1.000000



 Summary of "ao basis" -> "ao basis" (cartesian)
 ------------------------------------------------------------------------------
       Tag                 Description            Shells   Functions and Types
 ---------------- ------------------------------  ------  ---------------------
 C                           6-31G*                  6       15   3s2p1d
 H                           6-31G*                  2        2   2s
 O                           6-31G*                  6       15   3s2p1d
 H_L                         6-31G*                  2        2   2s



  Caching 1-el integrals 
 Nuclear repulsion energy =   40.231646674958739     
 Bq nuclear interaction energy =  0.16717361685915397     
 Nuclear repulsion energy =   40.231646674958739     
 Bq nuclear interaction energy =  0.16717361685915397     
 Nuclear repulsion energy =   40.231646674958739     
 Bq nuclear interaction energy =  0.16717361685915397     
   Time after variat. SCF:      0.1
   Time prior to 1st pass:      0.1
 Nuclear repulsion energy =   40.231646674958739     
 Bq nuclear interaction energy =  0.16717361685915397     
 Nuclear repulsion energy =   40.231646674958739     
 Bq nuclear interaction energy =  0.16717361685915397     
 Nuclear repulsion energy =   40.231646674958739     
 Bq nuclear interaction energy =  0.16717361685915397     
 Nuclear repulsion energy =   40.231646674958739     
 Bq nuclear interaction energy =  0.16717361685915397     
 Nuclear repulsion energy =   40.231646674958739     
 Bq nuclear interaction energy =  0.16717361685915397     
 Nuclear repulsion energy =   40.231646674958739     
 Bq nuclear interaction energy =  0.16717361685915397     
  Resetting Diis
 Nuclear repulsion energy =   40.231646674958739     
 Bq nuclear interaction energy =  0.16717361685915397     
 Nuclear repulsion energy =   40.231646674958739     
 Bq nuclear interaction energy =  0.16717361685915397     
 Nuclear repulsion energy =   40.231646674958739     
 Bq nuclear interaction energy =  0.16717361685915397     


         Total DFT energy =     -114.780688800404
      One electron energy =     -237.000519298818
           Coulomb energy =       96.342702468732
    Exchange-Corr. energy =      -14.521692262136
 Nuclear repulsion energy =       40.398820291818

 Numeric. integr. density =       17.999999370301

     Total iterative time =      0.7s


 Nuclear repulsion energy =   40.231646674958739     
 Bq nuclear interaction energy =  0.16717361685915397     


                         DFT ENERGY GRADIENTS

    atom               coordinates                        gradient
                 x          y          z           x          y          z
   1 C       1.675986   3.184909  -0.158948   -0.004332  -0.025432   0.000581
   2 H       3.584164   2.345807  -0.183801    0.001906   0.001487   0.003106
   3 H       1.328465   4.119904  -1.975782   -0.003526   0.007251   0.014564
   4 O       1.710075   5.168685   1.652487   -0.017367   0.021313  -0.007463
   5 H       0.000000   5.655466   1.974252    0.017362  -0.005898  -0.005363
   6 H_L     0.271183   1.659484   0.123767    0.017104   0.019949  -0.014535

 Bq nuclear interaction energy =  0.16717361685915397     
              Calculating forces on classical charges
              ---------------------------------------
 Total number of charges                    1
                              NWChem Property Module
                              ----------------------


 scftyp:RHF
 theory:dft                           
------------------------------------------------------------------------
 QM/MM Energy
------------------------------------------------------------------------
 quantum energy                      -114.780688800 (-.301357E+06  kjoule/mol)
 quantum energy adjusted             -114.780688800 (-.301357E+06  kjoule/mol)
 quantum energy internal             -114.770110629 (-.301329E+06  kjoule/mol)
 Bq-nuclear energy                      0.167173617 (0.438914E+03  kjoule/mol)
 Bq-electron energy                    -0.177751789 (-.466687E+03  kjoule/mol)
 classical energy                       0.749464407 (0.196772E+04  kjoule/mol)
 total qmmm energy                   -114.031224394 (-.299389E+06  kjoule/mol)
------------------------------------------------------------------------


@ Step       Energy      Delta E   Gmax     Grms     Xrms     Xmax   Walltime
@ ---- ---------------- -------- -------- -------- -------- -------- --------
@    0    -114.03122439  0.0D+00  0.01933  0.00917  0.00000  0.00000      1.2
                                                                    

 Total number of active Bq charges                    41
 frozen_density,esp T T
 disabling frozen_density,esp due to active qm atoms
         6
   
  C             0.869620        1.697940       -0.093480        17
  H             1.882716        1.235789       -0.107014        18
  H             0.738502        2.091988       -1.122191        19
  O             0.965701        2.691974        0.926123        20
  H             0.035943        3.018134        1.044726        21
  H_L           0.126952        0.894385        0.083917        15

                                 NWChem DFT Module
                                 -----------------



 Nuclear repulsion energy =   39.848853858220885     
 Bq nuclear interaction energy =  0.17365507691124735     
  Caching 1-el integrals 
 Nuclear repulsion energy =   39.848853858220885     
 Bq nuclear interaction energy =  0.17365507691124735     
 Nuclear repulsion energy =   39.848853858220885     
 Bq nuclear interaction energy =  0.17365507691124735     
   Time after variat. SCF:      1.3
   Time prior to 1st pass:      1.3
 Nuclear repulsion energy =   39.848853858220885     
 Bq nuclear interaction energy =  0.17365507691124735     
 Nuclear repulsion energy =   39.848853858220885     
 Bq nuclear interaction energy =  0.17365507691124735     
 Nuclear repulsion energy =   39.848853858220885     
 Bq nuclear interaction energy =  0.17365507691124735     
 Nuclear repulsion energy =   39.848853858220885     
 Bq nuclear interaction energy =  0.17365507691124735     
 Nuclear repulsion energy =   39.848853858220885     
 Bq nuclear interaction energy =  0.17365507691124735     
 Nuclear repulsion energy =   39.848853858220885     
 Bq nuclear interaction energy =  0.17365507691124735     
 Nuclear repulsion energy =   39.848853858220885     
 Bq nuclear interaction energy =  0.17365507691124735     
 Nuclear repulsion energy =   39.848853858220885     
 Bq nuclear interaction energy =  0.17365507691124735     


         Total DFT energy =     -114.783286915054
      One electron energy =     -236.263649002142
           Coulomb energy =       95.949630572419
    Exchange-Corr. energy =      -14.491777420463
 Nuclear repulsion energy =       40.022508935132

 Numeric. integr. density =       17.999998710959

     Total iterative time =      0.6s


 Nuclear repulsion energy =   39.848853858220885     
 Bq nuclear interaction energy =  0.17365507691124735     
 Bq nuclear interaction energy =  0.17365507691124735     
------------------------------------------------------------------------
 QM/MM Energy
------------------------------------------------------------------------
 quantum energy                      -114.783286915 (-.301364E+06  kjoule/mol)
 quantum energy adjusted             -114.783286915 (-.301364E+06  kjoule/mol)
 quantum energy internal             -114.771588506 (-.301333E+06  kjoule/mol)
 Bq-nuclear energy                      0.173655077 (0.455931E+03  kjoule/mol)
 Bq-electron energy                    -0.185353486 (-.486646E+03  kjoule/mol)
 classical energy                       0.751989507 (0.197435E+04  kjoule/mol)
 total qmmm energy                   -114.031297408 (-.299389E+06  kjoule/mol)
------------------------------------------------------------------------

 Line search: 
     step= 1.00 grad=-7.2D-03 hess= 7.1D-03 energy=   -114.031297 mode=downhill
 new step= 0.51                   predicted energy=   -114.033046

          --------
          Step   1
          --------


                         Geometry "geometry" -> "geometry"
                         ---------------------------------

 Output coordinates in angstroms (scale by  1.889725989 to convert to a.u.)

  No.       Tag          Charge          X              Y              Z
 ---- ---------------- ---------- -------------- -------------- --------------
    1 C                    6.0000     0.87816855     1.69172495    -0.08884362
    2 H                    1.0000     1.88961588     1.23853999    -0.10218847
    3 H                    1.0000     0.72092912     2.13562308    -1.08425724
    4 O                    8.0000     0.93562782     2.71334163     0.90055520
    5 H                    1.0000     0.01815535     3.00556874     1.04472764
    6 C                   -0.0249    -0.16982202     0.55580237     0.14196548

      Atomic Mass 
      ----------- 

      C                 12.000000
      H                  1.007825
      O                 15.994910


 Effective nuclear repulsion energy (a.u.)      34.3086153993

            Nuclear Dipole moment (a.u.) 
            ----------------------------
        X                 Y               Z
 ---------------- ---------------- ----------------
    29.0771434693    72.2309493529    12.3325916219

 Total number of active Bq charges                    41
 frozen_density,esp T T
 disabling frozen_density,esp due to active qm atoms
         6
   
  C             0.878169        1.691725       -0.088844        17
  H             1.889616        1.238540       -0.102188        18
  H             0.720929        2.135623       -1.084257        19
  O             0.935628        2.713342        0.900555        20
  H             0.018155        3.005569        1.044728        21
  H_L           0.135143        0.886356        0.074800        15

                                 NWChem DFT Module
                                 -----------------



 Nuclear repulsion energy =   40.059275366494248     
 Bq nuclear interaction energy =  0.17028340812779730     
  Caching 1-el integrals 
 Nuclear repulsion energy =   40.059275366494248     
 Bq nuclear interaction energy =  0.17028340812779730     
 Nuclear repulsion energy =   40.059275366494248     
 Bq nuclear interaction energy =  0.17028340812779730     
   Time after variat. SCF:      1.9
   Time prior to 1st pass:      1.9
 Nuclear repulsion energy =   40.059275366494248     
 Bq nuclear interaction energy =  0.17028340812779730     
 Nuclear repulsion energy =   40.059275366494248     
 Bq nuclear interaction energy =  0.17028340812779730     
 Nuclear repulsion energy =   40.059275366494248     
 Bq nuclear interaction energy =  0.17028340812779730     
 Nuclear repulsion energy =   40.059275366494248     
 Bq nuclear interaction energy =  0.17028340812779730     
 Nuclear repulsion energy =   40.059275366494248     
 Bq nuclear interaction energy =  0.17028340812779730     
 Nuclear repulsion energy =   40.059275366494248     
 Bq nuclear interaction energy =  0.17028340812779730     
 Nuclear repulsion energy =   40.059275366494248     
 Bq nuclear interaction energy =  0.17028340812779730     


         Total DFT energy =     -114.783379506940
      One electron energy =     -236.669433306122
           Coulomb energy =       96.164401482997
    Exchange-Corr. energy =      -14.507906458437
 Nuclear repulsion energy =       40.229558774622

 Numeric. integr. density =       18.000001247650

     Total iterative time =      0.5s


 Nuclear repulsion energy =   40.059275366494248     
 Bq nuclear interaction energy =  0.17028340812779730     


                         DFT ENERGY GRADIENTS

    atom               coordinates                        gradient
                 x          y          z           x          y          z
   1 C       1.659498   3.196897  -0.167890   -0.014915  -0.016552  -0.001566
   2 H       3.570856   2.340501  -0.193108    0.004865   0.002456   0.003107
   3 H       1.362358   4.035742  -2.048949   -0.001068   0.000304   0.007322
   4 O       1.768080   5.127472   1.701803    0.004135   0.016230  -0.000311
   5 H       0.034309   5.679701   1.974249    0.000872  -0.003422  -0.003770
   6 H_L     0.255384   1.674970   0.141352    0.017102   0.019633  -0.014098

 Bq nuclear interaction energy =  0.17028340812779730     
              Calculating forces on classical charges
              ---------------------------------------
 Total number of charges                   41
                              NWChem Property Module
                              ----------------------


 scftyp:RHF
 theory:dft                           
------------------------------------------------------------------------
 QM/MM Energy
------------------------------------------------------------------------
 quantum energy                      -114.783379507 (-.301364E+06  kjoule/mol)
 quantum energy adjusted             -114.783379507 (-.301364E+06  kjoule/mol)
 quantum energy internal             -114.772232400 (-.301334E+06  kjoule/mol)
 Bq-nuclear energy                      0.170283408 (0.447079E+03  kjoule/mol)
 Bq-electron energy                    -0.181430515 (-.476346E+03  kjoule/mol)
 classical energy                       0.750316391 (0.196996E+04  kjoule/mol)
 total qmmm energy                   -114.033063116 (-.299394E+06  kjoule/mol)
------------------------------------------------------------------------


  Step       Energy      Delta E   Gmax     Grms     Xrms     Xmax   Walltime
  ---- ---------------- -------- -------- -------- -------- -------- --------
@    1    -114.03306312 -1.8D-03  0.01188  0.00555  0.03725  0.08416      2.8
                                                                    

 Total number of active Bq charges                    41
 frozen_density,esp T T
 disabling frozen_density,esp due to active qm atoms
         6
   
  C             0.886127        1.682200       -0.114305        17
  H             1.892766        1.220033       -0.118556        18
  H             0.769680        2.111394       -1.139679        19
  O             0.959142        2.639025        0.936281        20
  H             0.029214        2.971322        1.052374        21
  H_L           0.134293        0.876571        0.005951        15

                                 NWChem DFT Module
                                 -----------------



 Nuclear repulsion energy =   39.884952081490972     
 Bq nuclear interaction energy =  0.17635792992037619     
  Caching 1-el integrals 
 Nuclear repulsion energy =   39.884952081490972     
 Bq nuclear interaction energy =  0.17635792992037619     
 Nuclear repulsion energy =   39.884952081490972     
 Bq nuclear interaction energy =  0.17635792992037619     
   Time after variat. SCF:      2.9
   Time prior to 1st pass:      2.9
 Nuclear repulsion energy =   39.884952081490972     
 Bq nuclear interaction energy =  0.17635792992037619     
 Nuclear repulsion energy =   39.884952081490972     
 Bq nuclear interaction energy =  0.17635792992037619     
 Nuclear repulsion energy =   39.884952081490972     
 Bq nuclear interaction energy =  0.17635792992037619     
 Nuclear repulsion energy =   39.884952081490972     
 Bq nuclear interaction energy =  0.17635792992037619     
 Nuclear repulsion energy =   39.884952081490972     
 Bq nuclear interaction energy =  0.17635792992037619     
 Nuclear repulsion energy =   39.884952081490972     
 Bq nuclear interaction energy =  0.17635792992037619     
 Nuclear repulsion energy =   39.884952081490972     
 Bq nuclear interaction energy =  0.17635792992037619     


         Total DFT energy =     -114.783407091170
      One electron energy =     -236.332643863908
           Coulomb energy =       95.979654962812
    Exchange-Corr. energy =      -14.491728201486
 Nuclear repulsion energy =       40.061310011411

 Numeric. integr. density =       17.999999433544

     Total iterative time =      0.5s


 Nuclear repulsion energy =   39.884952081490972     
 Bq nuclear interaction energy =  0.17635792992037619     
 Bq nuclear interaction energy =  0.17635792992037619     
------------------------------------------------------------------------
 QM/MM Energy
------------------------------------------------------------------------
 quantum energy                      -114.783407091 (-.301364E+06  kjoule/mol)
 quantum energy adjusted             -114.783407091 (-.301364E+06  kjoule/mol)
 quantum energy internal             -114.771639103 (-.301333E+06  kjoule/mol)
 Bq-nuclear energy                      0.176357930 (0.463028E+03  kjoule/mol)
 Bq-electron energy                    -0.188125919 (-.493925E+03  kjoule/mol)
 classical energy                       0.756372040 (0.198585E+04  kjoule/mol)
 total qmmm energy                   -114.027035051 (-.299378E+06  kjoule/mol)
------------------------------------------------------------------------

 Line search: 
     step= 1.00 grad=-3.4D-03 hess= 9.5D-03 energy=   -114.027035 mode=bracket 
 new step= 0.18                   predicted energy=   -114.033376

          --------
          Step   2
          --------


                         Geometry "geometry" -> "geometry"
                         ---------------------------------

 Output coordinates in angstroms (scale by  1.889725989 to convert to a.u.)

  No.       Tag          Charge          X              Y              Z
 ---- ---------------- ---------- -------------- -------------- --------------
    1 C                    6.0000     0.87961458     1.68999419    -0.09346997
    2 H                    1.0000     1.89018832     1.23517728    -0.10516239
    3 H                    1.0000     0.72978710     2.13122063    -1.09432730
    4 O                    8.0000     0.93990031     2.69983834     0.90704655
    5 H                    1.0000     0.02016466     2.99934621     1.04611689
    6 C                   -0.0249    -0.17063342     0.55400519     0.12621998

      Atomic Mass 
      ----------- 

      C                 12.000000
      H                  1.007825
      O                 15.994910


 Effective nuclear repulsion energy (a.u.)      34.2832130132

            Nuclear Dipole moment (a.u.) 
            ----------------------------
        X                 Y               Z
 ---------------- ---------------- ----------------
    29.1797858528    71.9808369303    12.3569879740

 Total number of active Bq charges                    41
 frozen_density,esp T T
 disabling frozen_density,esp due to active qm atoms
         6
   
  C             0.879615        1.689994       -0.093470        17
  H             1.890188        1.235177       -0.105162        18
  H             0.729787        2.131221       -1.094327        19
  O             0.939900        2.699838        0.907047        20
  H             0.020165        2.999346        1.046117        21
  H_L           0.134989        0.884578        0.062290        15

                                 NWChem DFT Module
                                 -----------------



 Nuclear repulsion energy =   40.034765922875856     
 Bq nuclear interaction energy =  0.17136415121374332     
  Caching 1-el integrals 
 Nuclear repulsion energy =   40.034765922875856     
 Bq nuclear interaction energy =  0.17136415121374332     
 Nuclear repulsion energy =   40.034765922875856     
 Bq nuclear interaction energy =  0.17136415121374332     
   Time after variat. SCF:      3.4
   Time prior to 1st pass:      3.4
 Nuclear repulsion energy =   40.034765922875856     
 Bq nuclear interaction energy =  0.17136415121374332     
 Nuclear repulsion energy =   40.034765922875856     
 Bq nuclear interaction energy =  0.17136415121374332     
 Nuclear repulsion energy =   40.034765922875856     
 Bq nuclear interaction energy =  0.17136415121374332     
 Nuclear repulsion energy =   40.034765922875856     
 Bq nuclear interaction energy =  0.17136415121374332     
 Nuclear repulsion energy =   40.034765922875856     
 Bq nuclear interaction energy =  0.17136415121374332     
 Nuclear repulsion energy =   40.034765922875856     
 Bq nuclear interaction energy =  0.17136415121374332     
 Nuclear repulsion energy =   40.034765922875856     
 Bq nuclear interaction energy =  0.17136415121374332     


         Total DFT energy =     -114.783604234913
      One electron energy =     -236.622379154149
           Coulomb energy =       96.137962612590
    Exchange-Corr. energy =      -14.505317767443
 Nuclear repulsion energy =       40.206130074090

 Numeric. integr. density =       18.000001179857

     Total iterative time =      0.5s


 Nuclear repulsion energy =   40.034765922875856     
 Bq nuclear interaction energy =  0.17136415121374332     


                         DFT ENERGY GRADIENTS

    atom               coordinates                        gradient
                 x          y          z           x          y          z
   1 C       1.662231   3.193626  -0.176633   -0.015833  -0.015450  -0.000520
   2 H       3.571938   2.334147  -0.198728    0.004819   0.002898   0.003211
   3 H       1.379098   4.027423  -2.067979   -0.001007  -0.000527   0.005076
   4 O       1.776154   5.101955   1.714069    0.008057   0.014701   0.000627
   5 H       0.038106   5.667942   1.976874   -0.002258  -0.002646  -0.003530
   6 H_L     0.255092   1.671610   0.117711    0.017218   0.019598  -0.013935

 Bq nuclear interaction energy =  0.17136415121374332     
              Calculating forces on classical charges
              ---------------------------------------
 Total number of charges                   41
                              NWChem Property Module
                              ----------------------


 scftyp:RHF
 theory:dft                           
------------------------------------------------------------------------
 QM/MM Energy
------------------------------------------------------------------------
 quantum energy                      -114.783604235 (-.301364E+06  kjoule/mol)
 quantum energy adjusted             -114.783604235 (-.301364E+06  kjoule/mol)
 quantum energy internal             -114.772349497 (-.301335E+06  kjoule/mol)
 Bq-nuclear energy                      0.171364151 (0.449917E+03  kjoule/mol)
 Bq-electron energy                    -0.182618889 (-.479466E+03  kjoule/mol)
 classical energy                       0.750227749 (0.196972E+04  kjoule/mol)
 total qmmm energy                   -114.033376486 (-.299395E+06  kjoule/mol)
------------------------------------------------------------------------


  Step       Energy      Delta E   Gmax     Grms     Xrms     Xmax   Walltime
  ---- ---------------- -------- -------- -------- -------- -------- --------
@    2    -114.03337649 -3.1D-04  0.00997  0.00511  0.01248  0.02975      4.4
                                                                    

 Total number of active Bq charges                    41
 frozen_density,esp T T
 disabling frozen_density,esp due to active qm atoms
         6
   
  C             0.910840        1.659313       -0.124825        17
  H             1.918584        1.213526       -0.126811        18
  H             0.771325        2.038792       -1.175651        19
  O             0.965017        2.683450        0.840312        20
  H             0.048261        2.974303        1.054270        21
  H_L           0.174552        0.850422        0.054183        15

                                 NWChem DFT Module
                                 -----------------



 Nuclear repulsion energy =   40.104941946349150     
 Bq nuclear interaction energy =  0.15687167828946397     
  Caching 1-el integrals 
 Nuclear repulsion energy =   40.104941946349150     
 Bq nuclear interaction energy =  0.15687167828946397     
 Nuclear repulsion energy =   40.104941946349150     
 Bq nuclear interaction energy =  0.15687167828946397     
   Time after variat. SCF:      4.4
   Time prior to 1st pass:      4.4
 Nuclear repulsion energy =   40.104941946349150     
 Bq nuclear interaction energy =  0.15687167828946397     
 Nuclear repulsion energy =   40.104941946349150     
 Bq nuclear interaction energy =  0.15687167828946397     
 Nuclear repulsion energy =   40.104941946349150     
 Bq nuclear interaction energy =  0.15687167828946397     
 Nuclear repulsion energy =   40.104941946349150     
 Bq nuclear interaction energy =  0.15687167828946397     
 Nuclear repulsion energy =   40.104941946349150     
 Bq nuclear interaction energy =  0.15687167828946397     
 Nuclear repulsion energy =   40.104941946349150     
 Bq nuclear interaction energy =  0.15687167828946397     
 Nuclear repulsion energy =   40.104941946349150     
 Bq nuclear interaction energy =  0.15687167828946397     


         Total DFT energy =     -114.783535466213
      One electron energy =     -236.752488212232
           Coulomb energy =       96.209166579788
    Exchange-Corr. energy =      -14.502027458409
 Nuclear repulsion energy =       40.261813624639

 Numeric. integr. density =       17.999997332548

     Total iterative time =      0.5s


 Nuclear repulsion energy =   40.104941946349150     
 Bq nuclear interaction energy =  0.15687167828946397     
 Bq nuclear interaction energy =  0.15687167828946397     
------------------------------------------------------------------------
 QM/MM Energy
------------------------------------------------------------------------
 quantum energy                      -114.783535466 (-.301364E+06  kjoule/mol)
 quantum energy adjusted             -114.783535466 (-.301364E+06  kjoule/mol)
 quantum energy internal             -114.772195837 (-.301334E+06  kjoule/mol)
 Bq-nuclear energy                      0.156871678 (0.411867E+03  kjoule/mol)
 Bq-electron energy                    -0.168211307 (-.441639E+03  kjoule/mol)
 classical energy                       0.751934826 (0.197420E+04  kjoule/mol)
 total qmmm energy                   -114.031600640 (-.299390E+06  kjoule/mol)
------------------------------------------------------------------------

 Line search: 
     step= 1.00 grad=-2.5D-03 hess= 4.3D-03 energy=   -114.031601 mode=bracket 
 new step= 0.29                   predicted energy=   -114.033748

          --------
          Step   3
          --------


                         Geometry "geometry" -> "geometry"
                         ---------------------------------

 Output coordinates in angstroms (scale by  1.889725989 to convert to a.u.)

  No.       Tag          Charge          X              Y              Z
 ---- ---------------- ---------- -------------- -------------- --------------
    1 C                    6.0000     0.88878824     1.68098038    -0.10268179
    2 H                    1.0000     1.89853068     1.22881625    -0.11152249
    3 H                    1.0000     0.74199069     2.10406606    -1.11821953
    4 O                    8.0000     0.94727940     2.69502345     0.88744066
    5 H                    1.0000     0.02841913     2.99198861     1.04851229
    6 C                   -0.0249    -0.15800470     0.54355139     0.12664151

      Atomic Mass 
      ----------- 

      C                 12.000000
      H                  1.007825
      O                 15.994910


 Effective nuclear repulsion energy (a.u.)      34.3060844532

            Nuclear Dipole moment (a.u.) 
            ----------------------------
        X                 Y               Z
 ---------------- ---------------- ----------------
    29.4491864637    71.7290973648    11.9034811037

 Total number of active Bq charges                    41
 frozen_density,esp T T
 disabling frozen_density,esp due to active qm atoms
         6
   
  C             0.888788        1.680980       -0.102682        17
  H             1.898531        1.228816       -0.111522        18
  H             0.741991        2.104066       -1.118220        19
  O             0.947279        2.695023        0.887441        20
  H             0.028419        2.991989        1.048512        21
  H_L           0.146612        0.874543        0.059908        15

                                 NWChem DFT Module
                                 -----------------



 Nuclear repulsion energy =   40.060509040241378     
 Bq nuclear interaction energy =  0.16718776033455593     
  Caching 1-el integrals 
 Nuclear repulsion energy =   40.060509040241378     
 Bq nuclear interaction energy =  0.16718776033455593     
 Nuclear repulsion energy =   40.060509040241378     
 Bq nuclear interaction energy =  0.16718776033455593     
   Time after variat. SCF:      4.9
   Time prior to 1st pass:      4.9
 Nuclear repulsion energy =   40.060509040241378     
 Bq nuclear interaction energy =  0.16718776033455593     
 Nuclear repulsion energy =   40.060509040241378     
 Bq nuclear interaction energy =  0.16718776033455593     
 Nuclear repulsion energy =   40.060509040241378     
 Bq nuclear interaction energy =  0.16718776033455593     
 Nuclear repulsion energy =   40.060509040241378     
 Bq nuclear interaction energy =  0.16718776033455593     
 Nuclear repulsion energy =   40.060509040241378     
 Bq nuclear interaction energy =  0.16718776033455593     
 Nuclear repulsion energy =   40.060509040241378     
 Bq nuclear interaction energy =  0.16718776033455593     
 Nuclear repulsion energy =   40.060509040241378     
 Bq nuclear interaction energy =  0.16718776033455593     


         Total DFT energy =     -114.783779615422
      One electron energy =     -236.670084092065
           Coulomb energy =       96.163343239925
    Exchange-Corr. energy =      -14.504735563858
 Nuclear repulsion energy =       40.227696800576

 Numeric. integr. density =       18.000000452938

     Total iterative time =      0.5s


 Nuclear repulsion energy =   40.060509040241378     
 Bq nuclear interaction energy =  0.16718776033455593     


                         DFT ENERGY GRADIENTS

    atom               coordinates                        gradient
                 x          y          z           x          y          z
   1 C       1.679566   3.176592  -0.194040   -0.013905  -0.014962   0.003800
   2 H       3.587703   2.322126  -0.210747    0.003635   0.003608   0.002844
   3 H       1.402159   3.976108  -2.113129   -0.000921  -0.000373   0.001503
   4 O       1.790099   5.092856   1.677020    0.008734   0.012053  -0.001234
   5 H       0.053704   5.654039   1.981401   -0.003547  -0.001305  -0.002167
   6 H_L     0.277057   1.652647   0.113211    0.017207   0.019585  -0.014108

 Bq nuclear interaction energy =  0.16718776033455593     
              Calculating forces on classical charges
              ---------------------------------------
 Total number of charges                   41
                              NWChem Property Module
                              ----------------------


 scftyp:RHF
 theory:dft                           
------------------------------------------------------------------------
 QM/MM Energy
------------------------------------------------------------------------
 quantum energy                      -114.783779615 (-.301365E+06  kjoule/mol)
 quantum energy adjusted             -114.783779615 (-.301365E+06  kjoule/mol)
 quantum energy internal             -114.772484307 (-.301335E+06  kjoule/mol)
 Bq-nuclear energy                      0.167187760 (0.438951E+03  kjoule/mol)
 Bq-electron energy                    -0.178483068 (-.468607E+03  kjoule/mol)
 classical energy                       0.750029470 (0.196920E+04  kjoule/mol)
 total qmmm energy                   -114.033750146 (-.299396E+06  kjoule/mol)
------------------------------------------------------------------------


  Step       Energy      Delta E   Gmax     Grms     Xrms     Xmax   Walltime
  ---- ---------------- -------- -------- -------- -------- -------- --------
@    3    -114.03375015 -3.7D-04  0.01291  0.00487  0.02322  0.05131      5.9
                                                                    

 Restricting large step in mode    1 eval= 1.1D-02 step=-3.5D-01 new=-3.0D-01
 Total number of active Bq charges                    41
 frozen_density,esp T T
 disabling frozen_density,esp due to active qm atoms
         6
   
  C             0.921038        1.649227       -0.134511        17
  H             1.903807        1.170381       -0.138259        18
  H             0.789983        2.047374       -1.182684        19
  O             0.988863        2.688700        0.807977        20
  H             0.090612        3.007458        1.060298        21
  H_L           0.144380        0.878032        0.047016        15

                                 NWChem DFT Module
                                 -----------------



 Nuclear repulsion energy =   40.157001383949407     
 Bq nuclear interaction energy =  0.15034668500878112     
  Caching 1-el integrals 
 Nuclear repulsion energy =   40.157001383949407     
 Bq nuclear interaction energy =  0.15034668500878112     
 Nuclear repulsion energy =   40.157001383949407     
 Bq nuclear interaction energy =  0.15034668500878112     
   Time after variat. SCF:      5.9
   Time prior to 1st pass:      5.9
 Nuclear repulsion energy =   40.157001383949407     
 Bq nuclear interaction energy =  0.15034668500878112     
 Nuclear repulsion energy =   40.157001383949407     
 Bq nuclear interaction energy =  0.15034668500878112     
 Nuclear repulsion energy =   40.157001383949407     
 Bq nuclear interaction energy =  0.15034668500878112     
 Nuclear repulsion energy =   40.157001383949407     
 Bq nuclear interaction energy =  0.15034668500878112     
 Nuclear repulsion energy =   40.157001383949407     
 Bq nuclear interaction energy =  0.15034668500878112     
 Nuclear repulsion energy =   40.157001383949407     
 Bq nuclear interaction energy =  0.15034668500878112     
 Nuclear repulsion energy =   40.157001383949407     
 Bq nuclear interaction energy =  0.15034668500878112     


         Total DFT energy =     -114.783044973181
      One electron energy =     -236.860060563809
           Coulomb energy =       96.275046535462
    Exchange-Corr. energy =      -14.505379013793
 Nuclear repulsion energy =       40.307348068958

 Numeric. integr. density =       17.999999640451

     Total iterative time =      0.5s


 Nuclear repulsion energy =   40.157001383949407     
 Bq nuclear interaction energy =  0.15034668500878112     
 Bq nuclear interaction energy =  0.15034668500878112     
------------------------------------------------------------------------
 QM/MM Energy
------------------------------------------------------------------------
 quantum energy                      -114.783044973 (-.301363E+06  kjoule/mol)
 quantum energy adjusted             -114.783044973 (-.301363E+06  kjoule/mol)
 quantum energy internal             -114.771737999 (-.301333E+06  kjoule/mol)
 Bq-nuclear energy                      0.150346685 (0.394735E+03  kjoule/mol)
 Bq-electron energy                    -0.161653659 (-.424422E+03  kjoule/mol)
 classical energy                       0.749628489 (0.196815E+04  kjoule/mol)
 total qmmm energy                   -114.033416484 (-.299395E+06  kjoule/mol)
------------------------------------------------------------------------

 Line search: 
     step= 1.00 grad=-2.3D-03 hess= 2.6D-03 energy=   -114.033416 mode=bracket 
 new step= 0.44                   predicted energy=   -114.034250

          --------
          Step   4
          --------


                         Geometry "geometry" -> "geometry"
                         ---------------------------------

 Output coordinates in angstroms (scale by  1.889725989 to convert to a.u.)

  No.       Tag          Charge          X              Y              Z
 ---- ---------------- ---------- -------------- -------------- --------------
    1 C                    6.0000     0.90286432     1.66712116    -0.11657436
    2 H                    1.0000     1.90083345     1.20331108    -0.12319222
    3 H                    1.0000     0.76293795     2.07932183    -1.14635642
    4 O                    8.0000     0.96542937     2.69226367     0.85275729
    5 H                    1.0000     0.05556422     2.99874032     1.05365637
    6 C                   -0.0249    -0.16515613     0.55138734     0.12440674

      Atomic Mass 
      ----------- 

      C                 12.000000
      H                  1.007825
      O                 15.994910


 Effective nuclear repulsion energy (a.u.)      34.3535114718

            Nuclear Dipole moment (a.u.) 
            ----------------------------
        X                 Y               Z
 ---------------- ---------------- ----------------
    29.9787432278    71.4476671645    11.1562282095

 Total number of active Bq charges                    41
 frozen_density,esp T T
 disabling frozen_density,esp due to active qm atoms
         6
   
  C             0.902864        1.667121       -0.116574        17
  H             1.900833        1.203311       -0.123192        18
  H             0.762938        2.079322       -1.146356        19
  O             0.965429        2.692264        0.852757        20
  H             0.055564        2.998740        1.053656        21
  H_L           0.145638        0.876066        0.054281        15

                                 NWChem DFT Module
                                 -----------------



 Nuclear repulsion energy =   40.112641215318050     
 Bq nuclear interaction energy =  0.15999953205027798     
  Caching 1-el integrals 
 Nuclear repulsion energy =   40.112641215318050     
 Bq nuclear interaction energy =  0.15999953205027798     
 Nuclear repulsion energy =   40.112641215318050     
 Bq nuclear interaction energy =  0.15999953205027798     
   Time after variat. SCF:      6.4
   Time prior to 1st pass:      6.4
 Nuclear repulsion energy =   40.112641215318050     
 Bq nuclear interaction energy =  0.15999953205027798     
 Nuclear repulsion energy =   40.112641215318050     
 Bq nuclear interaction energy =  0.15999953205027798     
 Nuclear repulsion energy =   40.112641215318050     
 Bq nuclear interaction energy =  0.15999953205027798     
 Nuclear repulsion energy =   40.112641215318050     
 Bq nuclear interaction energy =  0.15999953205027798     
 Nuclear repulsion energy =   40.112641215318050     
 Bq nuclear interaction energy =  0.15999953205027798     
 Nuclear repulsion energy =   40.112641215318050     
 Bq nuclear interaction energy =  0.15999953205027798     


         Total DFT energy =     -114.783740834121
      One electron energy =     -236.772182167103
           Coulomb energy =       96.221570019984
    Exchange-Corr. energy =      -14.505769434370
 Nuclear repulsion energy =       40.272640747368

 Numeric. integr. density =       17.999998885086

     Total iterative time =      0.4s


 Nuclear repulsion energy =   40.112641215318050     
 Bq nuclear interaction energy =  0.15999953205027798     


                         DFT ENERGY GRADIENTS

    atom               coordinates                        gradient
                 x          y          z           x          y          z
   1 C       1.706166   3.150402  -0.220294   -0.006612  -0.017173   0.010187
   2 H       3.592054   2.273928  -0.232800    0.000186   0.004935   0.001800
   3 H       1.441744   3.929348  -2.166300   -0.001124   0.001390  -0.002454
   4 O       1.824397   5.087641   1.611478    0.006902   0.008276  -0.006053
   5 H       0.105001   5.666798   1.991122   -0.004587   0.001431   0.000803
   6 H_L     0.275216   1.655524   0.102577    0.017046   0.019449  -0.013798

 Bq nuclear interaction energy =  0.15999953205027798     
              Calculating forces on classical charges
              ---------------------------------------
 Total number of charges                   41
                              NWChem Property Module
                              ----------------------


 scftyp:RHF
 theory:dft                           
------------------------------------------------------------------------
 QM/MM Energy
------------------------------------------------------------------------
 quantum energy                      -114.783740834 (-.301365E+06  kjoule/mol)
 quantum energy adjusted             -114.783740834 (-.301365E+06  kjoule/mol)
 quantum energy internal             -114.772415993 (-.301335E+06  kjoule/mol)
 Bq-nuclear energy                      0.159999532 (0.420079E+03  kjoule/mol)
 Bq-electron energy                    -0.171324373 (-.449812E+03  kjoule/mol)
 classical energy                       0.749494905 (0.196780E+04  kjoule/mol)
 total qmmm energy                   -114.034245929 (-.299397E+06  kjoule/mol)
------------------------------------------------------------------------


  Step       Energy      Delta E   Gmax     Grms     Xrms     Xmax   Walltime
  ---- ---------------- -------- -------- -------- -------- -------- --------
@    4    -114.03424593 -5.0D-04  0.00674  0.00379  0.03358  0.06554      7.3
                                                                    

 Total number of active Bq charges                    41
 frozen_density,esp T T
 disabling frozen_density,esp due to active qm atoms
         6
   
  C             0.928047        1.645314       -0.120571        17
  H             1.912800        1.160625       -0.143045        18
  H             0.786581        2.084031       -1.134339        19
  O             1.008629        2.641184        0.881315        20
  H             0.111805        2.998852        1.064288        21
  H_L           0.155936        0.868796        0.054153        15

                                 NWChem DFT Module
                                 -----------------



 Nuclear repulsion energy =   40.083933460124953     
 Bq nuclear interaction energy =  0.16272240025104937     
  Caching 1-el integrals 
 Nuclear repulsion energy =   40.083933460124953     
 Bq nuclear interaction energy =  0.16272240025104937     
 Nuclear repulsion energy =   40.083933460124953     
 Bq nuclear interaction energy =  0.16272240025104937     
   Time after variat. SCF:      7.3
   Time prior to 1st pass:      7.3
 Nuclear repulsion energy =   40.083933460124953     
 Bq nuclear interaction energy =  0.16272240025104937     
 Nuclear repulsion energy =   40.083933460124953     
 Bq nuclear interaction energy =  0.16272240025104937     
 Nuclear repulsion energy =   40.083933460124953     
 Bq nuclear interaction energy =  0.16272240025104937     
 Nuclear repulsion energy =   40.083933460124953     
 Bq nuclear interaction energy =  0.16272240025104937     
 Nuclear repulsion energy =   40.083933460124953     
 Bq nuclear interaction energy =  0.16272240025104937     
 Nuclear repulsion energy =   40.083933460124953     
 Bq nuclear interaction energy =  0.16272240025104937     
 Nuclear repulsion energy =   40.083933460124953     
 Bq nuclear interaction energy =  0.16272240025104937     


         Total DFT energy =     -114.784910972106
      One electron energy =     -236.731560568135
           Coulomb energy =       96.206251717851
    Exchange-Corr. energy =      -14.506257982198
 Nuclear repulsion energy =       40.246655860376

 Numeric. integr. density =       18.000003064961

     Total iterative time =      0.5s


 Nuclear repulsion energy =   40.083933460124953     
 Bq nuclear interaction energy =  0.16272240025104937     
 Bq nuclear interaction energy =  0.16272240025104937     
------------------------------------------------------------------------
 QM/MM Energy
------------------------------------------------------------------------
 quantum energy                      -114.784910972 (-.301368E+06  kjoule/mol)
 quantum energy adjusted             -114.784910972 (-.301368E+06  kjoule/mol)
 quantum energy internal             -114.772610907 (-.301335E+06  kjoule/mol)
 Bq-nuclear energy                      0.162722400 (0.427228E+03  kjoule/mol)
 Bq-electron energy                    -0.175022465 (-.459521E+03  kjoule/mol)
 classical energy                       0.749770669 (0.196852E+04  kjoule/mol)
 total qmmm energy                   -114.035140303 (-.299399E+06  kjoule/mol)
------------------------------------------------------------------------

 Line search: 
     step= 1.00 grad=-1.2D-03 hess= 2.7D-04 energy=   -114.035140 mode=downhill
 new step= 2.15                   predicted energy=   -114.035497

          --------
          Step   5
          --------


                         Geometry "geometry" -> "geometry"
                         ---------------------------------

 Output coordinates in angstroms (scale by  1.889725989 to convert to a.u.)

  No.       Tag          Charge          X              Y              Z
 ---- ---------------- ---------- -------------- -------------- --------------
    1 C                    6.0000     0.95690963     1.62031989    -0.12515076
    2 H                    1.0000     1.92651536     1.11170070    -0.16579948
    3 H                    1.0000     0.81368072     2.08942771    -1.12056586
    4 O                    8.0000     1.05814269     2.58263757     0.91404601
    5 H                    1.0000     0.17626539     2.99897990     1.07647356
    6 C                   -0.0249    -0.15616498     0.54859099     0.12753902

      Atomic Mass 
      ----------- 

      C                 12.000000
      H                  1.007825
      O                 15.994910


 Effective nuclear repulsion energy (a.u.)      34.2202332009

            Nuclear Dipole moment (a.u.) 
            ----------------------------
        X                 Y               Z
 ---------------- ---------------- ----------------
    32.3652411578    69.1062745798    11.9967289989

 Total number of active Bq charges                    41
 frozen_density,esp T T
 disabling frozen_density,esp due to active qm atoms
         6
   
  C             0.956910        1.620320       -0.125151        17
  H             1.926515        1.111701       -0.165799        18
  H             0.813681        2.089428       -1.120566        19
  O             1.058143        2.582638        0.914046        20
  H             0.176265        2.998980        1.076474        21
  H_L           0.167740        0.860464        0.054006        15

                                 NWChem DFT Module
                                 -----------------



 Nuclear repulsion energy =   39.996022695330069     
 Bq nuclear interaction energy =  0.16654496685573603     
  Caching 1-el integrals 
 Nuclear repulsion energy =   39.996022695330069     
 Bq nuclear interaction energy =  0.16654496685573603     
 Nuclear repulsion energy =   39.996022695330069     
 Bq nuclear interaction energy =  0.16654496685573603     
   Time after variat. SCF:      7.9
   Time prior to 1st pass:      7.9
 Nuclear repulsion energy =   39.996022695330069     
 Bq nuclear interaction energy =  0.16654496685573603     
 Nuclear repulsion energy =   39.996022695330069     
 Bq nuclear interaction energy =  0.16654496685573603     
 Nuclear repulsion energy =   39.996022695330069     
 Bq nuclear interaction energy =  0.16654496685573603     
 Nuclear repulsion energy =   39.996022695330069     
 Bq nuclear interaction energy =  0.16654496685573603     
 Nuclear repulsion energy =   39.996022695330069     
 Bq nuclear interaction energy =  0.16654496685573603     
 Nuclear repulsion energy =   39.996022695330069     
 Bq nuclear interaction energy =  0.16654496685573603     


         Total DFT energy =     -114.785960121035
      One electron energy =     -236.582235202428
           Coulomb energy =       96.137187633580
    Exchange-Corr. energy =      -14.503480214373
 Nuclear repulsion energy =       40.162567662186

 Numeric. integr. density =       18.000002458569

     Total iterative time =      0.4s


 Nuclear repulsion energy =   39.996022695330069     
 Bq nuclear interaction energy =  0.16654496685573603     


                         DFT ENERGY GRADIENTS

    atom               coordinates                        gradient
                 x          y          z           x          y          z
   1 C       1.808297   3.061961  -0.236501    0.000965  -0.017859  -0.002906
   2 H       3.640586   2.100810  -0.313316   -0.002699   0.004826   0.001347
   3 H       1.537634   3.948446  -2.117562   -0.000530  -0.000081   0.001133
   4 O       1.999600   4.880477   1.727297    0.007300   0.005318  -0.003271
   5 H       0.333093   5.667250   2.034240   -0.009694   0.006500   0.003702
   6 H_L     0.316982   1.626041   0.102057    0.017007   0.019369  -0.009275

 Bq nuclear interaction energy =  0.16654496685573603     
              Calculating forces on classical charges
              ---------------------------------------
 Total number of charges                   41
                              NWChem Property Module
                              ----------------------


 scftyp:RHF
 theory:dft                           
------------------------------------------------------------------------
 QM/MM Energy
------------------------------------------------------------------------
 quantum energy                      -114.785960121 (-.301371E+06  kjoule/mol)
 quantum energy adjusted             -114.785960121 (-.301371E+06  kjoule/mol)
 quantum energy internal             -114.772508296 (-.301335E+06  kjoule/mol)
 Bq-nuclear energy                      0.166544967 (0.437264E+03  kjoule/mol)
 Bq-electron energy                    -0.179996791 (-.472582E+03  kjoule/mol)
 classical energy                       0.750472707 (0.197037E+04  kjoule/mol)
 total qmmm energy                   -114.035487414 (-.299400E+06  kjoule/mol)
------------------------------------------------------------------------


  Step       Energy      Delta E   Gmax     Grms     Xrms     Xmax   Walltime
  ---- ---------------- -------- -------- -------- -------- -------- --------
@    5    -114.03548741 -1.2D-03  0.01605  0.00625  0.10815  0.22809      8.7
                                                                    


 ---------------------------------------------------------------
 Failed to converge in maximum number of steps or available time
 ---------------------------------------------------------------


  Step       Energy      Delta E   Gmax     Grms     Xrms     Xmax   Walltime
  ---- ---------------- -------- -------- -------- -------- -------- --------
@    5    -114.03548741 -1.2D-03  0.01605  0.00625  0.10815  0.22809      8.7
                                                                    



                         Geometry "geometry" -> "geometry"
                         ---------------------------------

 Output coordinates in angstroms (scale by  1.889725989 to convert to a.u.)

  No.       Tag          Charge          X              Y              Z
 ---- ---------------- ---------- -------------- -------------- --------------
    1 C                    6.0000     0.95690963     1.62031989    -0.12515076
    2 H                    1.0000     1.92651536     1.11170070    -0.16579948
    3 H                    1.0000     0.81368072     2.08942771    -1.12056586
    4 O                    8.0000     1.05814269     2.58263757     0.91404601
    5 H                    1.0000     0.17626539     2.99897990     1.07647356
    6 C                   -0.0249    -0.15616498     0.54859099     0.12753902

      Atomic Mass 
      ----------- 

      C                 12.000000
      H                  1.007825
      O                 15.994910


 Effective nuclear repulsion energy (a.u.)      34.2202332009

            Nuclear Dipole moment (a.u.) 
            ----------------------------
        X                 Y               Z
 ---------------- ---------------- ----------------
    32.3652411578    69.1062745798    11.9967289989

 ==============================================================================
                                internuclear distances
 ------------------------------------------------------------------------------
       center one      |      center two      | atomic units |  angstroms
 ------------------------------------------------------------------------------
    2 H                |   1 C                |     2.07051  |     1.09566
    3 H                |   1 C                |     2.09702  |     1.10970
    4 O                |   1 C                |     2.68330  |     1.41994
    5 H                |   4 O                |     1.86828  |     0.98865
    6 C                |   1 C                |     2.95873  |     1.56569
 ------------------------------------------------------------------------------
                         number of included internuclear distances:          5
 ==============================================================================



 ==============================================================================
                                 internuclear angles
 ------------------------------------------------------------------------------
        center 1       |       center 2       |       center 3       |  degrees
 ------------------------------------------------------------------------------
    2 H                |   1 C                |   3 H                |   106.09
    2 H                |   1 C                |   4 O                |   106.18
    2 H                |   1 C                |   6 C                |   108.50
    3 H                |   1 C                |   4 O                |   112.28
    3 H                |   1 C                |   6 C                |   110.02
    4 O                |   1 C                |   6 C                |   113.36
    1 C                |   4 O                |   5 H                |   110.00
 ------------------------------------------------------------------------------
                            number of included internuclear angles:          7
 ==============================================================================



@
@ Optimizing mm_solute  region with lbfgs 
@ and esp fitted charges for the qm region
@
RUNNING THE L-BFGS-B CODE

           * * *

Machine precision = 1.110D-16
 N =                    84     M =                     5
 This problem is unconstrained.

At X0         0 variables are exactly at the bounds
 Total number of active Bq charges                    28
 frozen_density,esp T T
         6
   
  C             0.956910        1.620320       -0.125151        17
  H             1.926515        1.111701       -0.165799        18
  H             0.813681        2.089428       -1.120566        19
  O             1.058143        2.582638        0.914046        20
  H             0.176265        2.998980        1.076474        21
  H_L           0.167740        0.860464        0.054006        15
 redoing esp charges


                     NWChem Electrostatic Potential Fit Module
                     -----------------------------------------


 Atom parameters

 Number of atoms is                                    6
 Number of basis functions is                         38


 Grid parameters

 Maximum number of grid points is                   1779
 Number of grid points is                           1778
 Grid range                                     0.300000 nm
 Grid spacing                                   0.050000 nm
 Probe radius                                   0.070000 nm
 Atom radius factor                             1.000000

 Atomic radii

    1    0.100000
    6    0.147000
    8    0.136000
 FASTESP  F
  using M.O. file = ./asa.movecs


    Atom              Coordinates                           Charge

                                                  ESP   
                                                        
 
    1 C     0.095691    0.162032   -0.012515    0.155089
    2 H     0.192652    0.111170   -0.016580    0.077039
    3 H     0.081368    0.208943   -0.112057    0.029973
    4 O     0.105814    0.258264    0.091405   -0.614458
    5 H     0.017627    0.299898    0.107647    0.393994
    6 H_    0.016774    0.086046    0.005401   -0.041638
                                            ------------
                                                0.000000

 Dipole moment                                  0.640846

 Quadrupole moment Qxx                         -0.470809
                   Qyy                          0.109536
                   Qzz                          0.361273

 RMS deviation kJ/mol                           0.265391

 ABS deviation %                              100.532631
   1.8082970052243119        3.0619605988944150      -0.23650063656265258       0.15508907467162469     
   3.6405861455740252        2.1008097078548271      -0.31331559099289097        7.7038862568317823E-002
   1.5376336118480378        3.9484458416492605       -2.1175624287548769        2.9972918839949791E-002
   1.9995997344149554        4.8804773352169954        1.7272965014518926      -0.61445761028283352     
  0.33309327928665472        5.6672502527399464        2.0342400701507755       0.39399435698519247     
  0.31698213756460492        1.6260413677858787       0.10205710114487437       -4.1637602782250704E-002
 using old esp charges
 using old esp charges
------------------------------------------------------------------------
 QM/MM Energy
------------------------------------------------------------------------
 quantum energy                        -0.005843442 (-.153420E+02  kjoule/mol)
 quantum energy adjusted               -0.005843442 (-.153420E+02  kjoule/mol)
 quantum energy internal                0.174153349 (0.457240E+03  kjoule/mol)
 Bq-nuclear energy                      0.000000000 (0.000000E+00  kjoule/mol)
 Bq-electron energy                    -0.179996791 (-.472582E+03  kjoule/mol)
 classical energy                       0.750472707 (0.197037E+04  kjoule/mol)
 total qmmm energy                      0.744629264 (0.195502E+04  kjoule/mol)
------------------------------------------------------------------------


At iterate    0    f=  7.44629D-01    |proj g|=  9.53267D-02
 Total number of active Bq charges                    28
 frozen_density,esp T T
         6
   
  C             0.956910        1.620320       -0.125151        17
  H             1.926515        1.111701       -0.165799        18
  H             0.813681        2.089428       -1.120566        19
  O             1.058143        2.582638        0.914046        20
  H             0.176265        2.998980        1.076474        21
  H_L           0.167740        0.860464        0.054006        15
 using old esp charges
 using old esp charges
------------------------------------------------------------------------
 QM/MM Energy
------------------------------------------------------------------------
 quantum energy                        -0.007170293 (-.188256E+02  kjoule/mol)
 quantum energy adjusted               -0.007170293 (-.188256E+02  kjoule/mol)
 quantum energy internal                0.172826499 (0.453756E+03  kjoule/mol)
 Bq-nuclear energy                      0.000000000 (0.000000E+00  kjoule/mol)
 Bq-electron energy                    -0.179996791 (-.472582E+03  kjoule/mol)
 classical energy                       0.986808655 (0.259087E+04  kjoule/mol)
 total qmmm energy                      0.979638362 (0.257204E+04  kjoule/mol)
------------------------------------------------------------------------

 Total number of active Bq charges                    28
 frozen_density,esp T T
         6
   
  C             0.956910        1.620320       -0.125151        17
  H             1.926515        1.111701       -0.165799        18
  H             0.813681        2.089428       -1.120566        19
  O             1.058143        2.582638        0.914046        20
  H             0.176265        2.998980        1.076474        21
  H_L           0.167740        0.860464        0.054006        15
 using old esp charges
 using old esp charges
------------------------------------------------------------------------
 QM/MM Energy
------------------------------------------------------------------------
 quantum energy                        -0.006118135 (-.160632E+02  kjoule/mol)
 quantum energy adjusted               -0.006118135 (-.160632E+02  kjoule/mol)
 quantum energy internal                0.173878657 (0.456518E+03  kjoule/mol)
 Bq-nuclear energy                      0.000000000 (0.000000E+00  kjoule/mol)
 Bq-electron energy                    -0.179996791 (-.472582E+03  kjoule/mol)
 classical energy                       0.732456841 (0.192307E+04  kjoule/mol)
 total qmmm energy                      0.726338706 (0.190700E+04  kjoule/mol)
------------------------------------------------------------------------


At iterate    1    f=  7.26339D-01    |proj g|=  7.12504D-02

@ Step       Energy      Delta E   Gmax     Grms     Xrms     Xmax   Walltime
@ ---- ---------------- -------- -------- -------- -------- -------- --------
@    1       0.72633871  7.3D-01  0.07125  0.01112  0.02295  0.11431      8.8
                                                                    

 Total number of active Bq charges                    28
 frozen_density,esp T T
         6
   
  C             0.956910        1.620320       -0.125151        17
  H             1.926515        1.111701       -0.165799        18
  H             0.813681        2.089428       -1.120566        19
  O             1.058143        2.582638        0.914046        20
  H             0.176265        2.998980        1.076474        21
  H_L           0.167740        0.860464        0.054006        15
 using old esp charges
 using old esp charges
------------------------------------------------------------------------
 QM/MM Energy
------------------------------------------------------------------------
 quantum energy                        -0.006117934 (-.160626E+02  kjoule/mol)
 quantum energy adjusted               -0.006117934 (-.160626E+02  kjoule/mol)
 quantum energy internal                0.173878857 (0.456519E+03  kjoule/mol)
 Bq-nuclear energy                      0.000000000 (0.000000E+00  kjoule/mol)
 Bq-electron energy                    -0.179996791 (-.472582E+03  kjoule/mol)
 classical energy                       0.725389764 (0.190451E+04  kjoule/mol)
 total qmmm energy                      0.719271829 (0.188845E+04  kjoule/mol)
------------------------------------------------------------------------


At iterate    2    f=  7.19272D-01    |proj g|=  3.00192D-02

  Step       Energy      Delta E   Gmax     Grms     Xrms     Xmax   Walltime
  ---- ---------------- -------- -------- -------- -------- -------- --------
@    2       0.71927183 -7.1D-03  0.03002  0.00706  0.01140  0.06136      8.8
                                                                    

 Total number of active Bq charges                    28
 frozen_density,esp T T
         6
   
  C             0.956910        1.620320       -0.125151        17
  H             1.926515        1.111701       -0.165799        18
  H             0.813681        2.089428       -1.120566        19
  O             1.058143        2.582638        0.914046        20
  H             0.176265        2.998980        1.076474        21
  H_L           0.167740        0.860464        0.054006        15
 using old esp charges
 using old esp charges
------------------------------------------------------------------------
 QM/MM Energy
------------------------------------------------------------------------
 quantum energy                        -0.006080785 (-.159651E+02  kjoule/mol)
 quantum energy adjusted               -0.006080785 (-.159651E+02  kjoule/mol)
 quantum energy internal                0.173916007 (0.456616E+03  kjoule/mol)
 Bq-nuclear energy                      0.000000000 (0.000000E+00  kjoule/mol)
 Bq-electron energy                    -0.179996791 (-.472582E+03  kjoule/mol)
 classical energy                       0.717697315 (0.188431E+04  kjoule/mol)
 total qmmm energy                      0.711616531 (0.186835E+04  kjoule/mol)
------------------------------------------------------------------------


At iterate    3    f=  7.11617D-01    |proj g|=  1.31681D-02

  Step       Energy      Delta E   Gmax     Grms     Xrms     Xmax   Walltime
  ---- ---------------- -------- -------- -------- -------- -------- --------
@    3       0.71161653 -7.7D-03  0.01317  0.00424  0.02429  0.11166      8.9
                                                                    

 Total number of active Bq charges                    28
 frozen_density,esp T T
         6
   
  C             0.956910        1.620320       -0.125151        17
  H             1.926515        1.111701       -0.165799        18
  H             0.813681        2.089428       -1.120566        19
  O             1.058143        2.582638        0.914046        20
  H             0.176265        2.998980        1.076474        21
  H_L           0.167740        0.860464        0.054006        15
 using old esp charges
 using old esp charges
------------------------------------------------------------------------
 QM/MM Energy
------------------------------------------------------------------------
 quantum energy                        -0.006150740 (-.161488E+02  kjoule/mol)
 quantum energy adjusted               -0.006150740 (-.161488E+02  kjoule/mol)
 quantum energy internal                0.173846051 (0.456433E+03  kjoule/mol)
 Bq-nuclear energy                      0.000000000 (0.000000E+00  kjoule/mol)
 Bq-electron energy                    -0.179996791 (-.472582E+03  kjoule/mol)
 classical energy                       0.714866047 (0.187688E+04  kjoule/mol)
 total qmmm energy                      0.708715306 (0.186073E+04  kjoule/mol)
------------------------------------------------------------------------


At iterate    4    f=  7.08715D-01    |proj g|=  2.85385D-02

  Step       Energy      Delta E   Gmax     Grms     Xrms     Xmax   Walltime
  ---- ---------------- -------- -------- -------- -------- -------- --------
@    4       0.70871531 -2.9D-03  0.02854  0.00609  0.01802  0.05744      8.9
                                                                    

 Total number of active Bq charges                    28
 frozen_density,esp T T
         6
   
  C             0.956910        1.620320       -0.125151        17
[...]
  H_L           0.258579        0.960876        0.075940        15
 using old esp charges
 using old esp charges
------------------------------------------------------------------------
 QM/MM Energy
------------------------------------------------------------------------
 quantum energy                        -0.007462885 (-.195938E+02  kjoule/mol)
 quantum energy adjusted               -0.007462885 (-.195938E+02  kjoule/mol)
 quantum energy internal                0.206817188 (0.542999E+03  kjoule/mol)
 Bq-nuclear energy                      0.000000000 (0.000000E+00  kjoule/mol)
 Bq-electron energy                    -0.214280073 (-.562592E+03  kjoule/mol)
 classical energy                       0.682887888 (0.179292E+04  kjoule/mol)
 total qmmm energy                      0.675425004 (0.177333E+04  kjoule/mol)
------------------------------------------------------------------------


At iterate    3    f=  6.75425D-01    |proj g|=  6.54836D-03

  Step       Energy      Delta E   Gmax     Grms     Xrms     Xmax   Walltime
  ---- ---------------- -------- -------- -------- -------- -------- --------
@    3       0.67542500 -1.3D-03  0.00655  0.00212  0.01362  0.06162     24.8
                                                                    

 Total number of active Bq charges                    28
 frozen_density,esp T T
         6
   
  C             1.102753        1.651408       -0.077046        17
  H             2.002723        1.047377       -0.296684        18
  H             0.934231        2.267991       -0.985843        19
  O             1.407940        2.426188        1.059510        20
  H             0.679637        3.067609        1.173049        21
  H_L           0.258579        0.960876        0.075940        15
 using old esp charges
 using old esp charges
------------------------------------------------------------------------
 QM/MM Energy
------------------------------------------------------------------------
 quantum energy                        -0.007448151 (-.195551E+02  kjoule/mol)
 quantum energy adjusted               -0.007448151 (-.195551E+02  kjoule/mol)
 quantum energy internal                0.206831922 (0.543037E+03  kjoule/mol)
 Bq-nuclear energy                      0.000000000 (0.000000E+00  kjoule/mol)
 Bq-electron energy                    -0.214280073 (-.562592E+03  kjoule/mol)
 classical energy                       0.682239317 (0.179122E+04  kjoule/mol)
 total qmmm energy                      0.674791166 (0.177166E+04  kjoule/mol)
------------------------------------------------------------------------


At iterate    4    f=  6.74791D-01    |proj g|=  1.90187D-02

  Step       Energy      Delta E   Gmax     Grms     Xrms     Xmax   Walltime
  ---- ---------------- -------- -------- -------- -------- -------- --------
@    4       0.67479117 -6.3D-04  0.01902  0.00358  0.01024  0.03361     24.8
                                                                    

 Total number of active Bq charges                    28
 frozen_density,esp T T
         6
   
  C             1.102753        1.651408       -0.077046        17
  H             2.002723        1.047377       -0.296684        18
  H             0.934231        2.267991       -0.985843        19
  O             1.407940        2.426188        1.059510        20
  H             0.679637        3.067609        1.173049        21
  H_L           0.258579        0.960876        0.075940        15
 using old esp charges
 using old esp charges
------------------------------------------------------------------------
 QM/MM Energy
------------------------------------------------------------------------
 quantum energy                        -0.007448967 (-.195573E+02  kjoule/mol)
 quantum energy adjusted               -0.007448967 (-.195573E+02  kjoule/mol)
 quantum energy internal                0.206831106 (0.543035E+03  kjoule/mol)
 Bq-nuclear energy                      0.000000000 (0.000000E+00  kjoule/mol)
 Bq-electron energy                    -0.214280073 (-.562592E+03  kjoule/mol)
 classical energy                       0.681421486 (0.178907E+04  kjoule/mol)
 total qmmm energy                      0.673972519 (0.176951E+04  kjoule/mol)
------------------------------------------------------------------------


At iterate    5    f=  6.73973D-01    |proj g|=  1.55217D-02

  Step       Energy      Delta E   Gmax     Grms     Xrms     Xmax   Walltime
  ---- ---------------- -------- -------- -------- -------- -------- --------
@    5       0.67397252 -8.2D-04  0.01552  0.00321  0.00844  0.02881     24.8
                                                                    

@
@ Optimizing solvent    region with sd    
@ and esp fitted charges for the qm region
@

@ Step       Energy      Delta E   SGrms     WGrms     Xmax
@ ---- ---------------- -------- -------- -------- -------- 
 Total number of active Bq charges                    12
 frozen_density,esp T T
         6
   
  C             1.102753        1.651408       -0.077046        17
  H             2.002723        1.047377       -0.296684        18
  H             0.934231        2.267991       -0.985843        19
  O             1.407940        2.426188        1.059510        20
  H             0.679637        3.067609        1.173049        21
  H_L           0.258579        0.960876        0.075940        15
 using old esp charges
 using old esp charges
------------------------------------------------------------------------
 QM/MM Energy
------------------------------------------------------------------------
 quantum energy                         0.002717100 (0.713375E+01  kjoule/mol)
 quantum energy adjusted                0.002717100 (0.713375E+01  kjoule/mol)
 quantum energy internal                0.216997173 (0.569726E+03  kjoule/mol)
 Bq-nuclear energy                      0.000000000 (0.000000E+00  kjoule/mol)
 Bq-electron energy                    -0.214280073 (-.562592E+03  kjoule/mol)
 classical energy                       0.681938606 (0.179043E+04  kjoule/mol)
 total qmmm energy                      0.684655706 (0.179756E+04  kjoule/mol)
------------------------------------------------------------------------

 Total number of active Bq charges                    12
 frozen_density,esp T T
         6
   
  C             1.102753        1.651408       -0.077046        17
  H             2.002723        1.047377       -0.296684        18
  H             0.934231        2.267991       -0.985843        19
  O             1.407940        2.426188        1.059510        20
  H             0.679637        3.067609        1.173049        21
  H_L           0.258579        0.960876        0.075940        15
 using old esp charges
 using old esp charges
------------------------------------------------------------------------
 QM/MM Energy
------------------------------------------------------------------------
 quantum energy                         0.002710195 (0.711562E+01  kjoule/mol)
 quantum energy adjusted                0.002710195 (0.711562E+01  kjoule/mol)
 quantum energy internal                0.216990268 (0.569708E+03  kjoule/mol)
 Bq-nuclear energy                      0.000000000 (0.000000E+00  kjoule/mol)
 Bq-electron energy                    -0.214280073 (-.562592E+03  kjoule/mol)
 classical energy                       0.681675541 (0.178974E+04  kjoule/mol)
 total qmmm energy                      0.684385736 (0.179685E+04  kjoule/mol)
------------------------------------------------------------------------

@    1       0.68438574 -2.7D-04  0.00000  0.01880  0.02515
 Total number of active Bq charges                    12
 frozen_density,esp T T
         6
   
  C             1.102753        1.651408       -0.077046        17
  H             2.002723        1.047377       -0.296684        18
  H             0.934231        2.267991       -0.985843        19
  O             1.407940        2.426188        1.059510        20
  H             0.679637        3.067609        1.173049        21
  H_L           0.258579        0.960876        0.075940        15
 using old esp charges
 using old esp charges
------------------------------------------------------------------------
 QM/MM Energy
------------------------------------------------------------------------
 quantum energy                         0.002701081 (0.709169E+01  kjoule/mol)
 quantum energy adjusted                0.002701081 (0.709169E+01  kjoule/mol)
 quantum energy internal                0.216981154 (0.569684E+03  kjoule/mol)
 Bq-nuclear energy                      0.000000000 (0.000000E+00  kjoule/mol)
 Bq-electron energy                    -0.214280073 (-.562592E+03  kjoule/mol)
 classical energy                       0.681458424 (0.178917E+04  kjoule/mol)
 total qmmm energy                      0.684159505 (0.179626E+04  kjoule/mol)
------------------------------------------------------------------------

@    2       0.68415951 -2.3D-04  0.00000  0.01881  0.02903
 Total number of active Bq charges                    12
 frozen_density,esp T T
         6
   
  C             1.102753        1.651408       -0.077046        17
  H             2.002723        1.047377       -0.296684        18
  H             0.934231        2.267991       -0.985843        19
  O             1.407940        2.426188        1.059510        20
  H             0.679637        3.067609        1.173049        21
  H_L           0.258579        0.960876        0.075940        15
 using old esp charges
 using old esp charges
------------------------------------------------------------------------
 QM/MM Energy
------------------------------------------------------------------------
 quantum energy                         0.002687304 (0.705552E+01  kjoule/mol)
 quantum energy adjusted                0.002687304 (0.705552E+01  kjoule/mol)
 quantum energy internal                0.216967377 (0.569648E+03  kjoule/mol)
 Bq-nuclear energy                      0.000000000 (0.000000E+00  kjoule/mol)
 Bq-electron energy                    -0.214280073 (-.562592E+03  kjoule/mol)
 classical energy                       0.681230138 (0.178857E+04  kjoule/mol)
 total qmmm energy                      0.683917442 (0.179563E+04  kjoule/mol)
------------------------------------------------------------------------

@    3       0.68391744 -2.4D-04  0.00000  0.01883  0.03325
 Total number of active Bq charges                    12
 frozen_density,esp T T
         6
   
  C             1.102753        1.651408       -0.077046        17
  H             2.002723        1.047377       -0.296684        18
  H             0.934231        2.267991       -0.985843        19
  O             1.407940        2.426188        1.059510        20
  H             0.679637        3.067609        1.173049        21
  H_L           0.258579        0.960876        0.075940        15
 using old esp charges
 using old esp charges
------------------------------------------------------------------------
 QM/MM Energy
------------------------------------------------------------------------
 quantum energy                         0.002667466 (0.700343E+01  kjoule/mol)
 quantum energy adjusted                0.002667466 (0.700343E+01  kjoule/mol)
 quantum energy internal                0.216947539 (0.569596E+03  kjoule/mol)
 Bq-nuclear energy                      0.000000000 (0.000000E+00  kjoule/mol)
 Bq-electron energy                    -0.214280073 (-.562592E+03  kjoule/mol)
 classical energy                       0.680995824 (0.178795E+04  kjoule/mol)
 total qmmm energy                      0.683663289 (0.179496E+04  kjoule/mol)
------------------------------------------------------------------------

@    4       0.68366329 -2.5D-04  0.00000  0.01884  0.03770
 Total number of active Bq charges                    12
 frozen_density,esp T T
         6
   
  C             1.102753        1.651408       -0.077046        17
  H             2.002723        1.047377       -0.296684        18
  H             0.934231        2.267991       -0.985843        19
  O             1.407940        2.426188        1.059510        20
  H             0.679637        3.067609        1.173049        21
  H_L           0.258579        0.960876        0.075940        15
 using old esp charges
 using old esp charges
------------------------------------------------------------------------
 QM/MM Energy
------------------------------------------------------------------------
 quantum energy                         0.002640050 (0.693145E+01  kjoule/mol)
 quantum energy adjusted                0.002640050 (0.693145E+01  kjoule/mol)
 quantum energy internal                0.216920123 (0.569524E+03  kjoule/mol)
 Bq-nuclear energy                      0.000000000 (0.000000E+00  kjoule/mol)
 Bq-electron energy                    -0.214280073 (-.562592E+03  kjoule/mol)
 classical energy                       0.680682774 (0.178713E+04  kjoule/mol)
 total qmmm energy                      0.683322824 (0.179406E+04  kjoule/mol)
------------------------------------------------------------------------

@    5       0.68332282 -3.4D-04  0.00000  0.01889  0.04223
 Total number of active Bq charges                    41
 frozen_density,esp T T
 disabling frozen_density,esp due to active qm atoms
         6
   
  C             1.102753        1.651408       -0.077046        17
  H             2.002723        1.047377       -0.296684        18
  H             0.934231        2.267991       -0.985843        19
  O             1.407940        2.426188        1.059510        20
  H             0.679637        3.067609        1.173049        21
  H_L           0.258579        0.960876        0.075940        15

                                 NWChem DFT Module
                                 -----------------



 Nuclear repulsion energy =   40.248464857072264     
 Bq nuclear interaction energy =  0.18707551144833443     
  Caching 1-el integrals 
 Nuclear repulsion energy =   40.248464857072264     
 Bq nuclear interaction energy =  0.18707551144833443     
 Nuclear repulsion energy =   40.248464857072264     
 Bq nuclear interaction energy =  0.18707551144833443     
   Time after variat. SCF:     24.8
   Time prior to 1st pass:     24.8
 Nuclear repulsion energy =   40.248464857072264     
 Bq nuclear interaction energy =  0.18707551144833443     
 Nuclear repulsion energy =   40.248464857072264     
 Bq nuclear interaction energy =  0.18707551144833443     
 Nuclear repulsion energy =   40.248464857072264     
 Bq nuclear interaction energy =  0.18707551144833443     
 Nuclear repulsion energy =   40.248464857072264     
 Bq nuclear interaction energy =  0.18707551144833443     
 Nuclear repulsion energy =   40.248464857072264     
 Bq nuclear interaction energy =  0.18707551144833443     


         Total DFT energy =     -114.790086166847
      One electron energy =     -237.078286337759
           Coulomb energy =       96.367081790708
    Exchange-Corr. energy =      -14.514421988317
 Nuclear repulsion energy =       40.435540368521

 Numeric. integr. density =       17.999999194341

     Total iterative time =      0.4s


 Nuclear repulsion energy =   40.248464857072264     
 Bq nuclear interaction energy =  0.18707551144833443     
 Bq nuclear interaction energy =  0.18707551144833443     
@------------------------------------------------------------------------
@ QM/MM Energy
@------------------------------------------------------------------------
@ quantum energy                     -114.790086167 (-.301381E+06  kjoule/mol)
@ quantum energy adjusted            -114.790086167 (-.301381E+06  kjoule/mol)
@ quantum energy internal            -114.772848444 (-.301336E+06  kjoule/mol)
@ Bq-nuclear energy                     0.187075511 (0.491167E+03  kjoule/mol)
@ Bq-electron energy                   -0.204313234 (-.536424E+03  kjoule/mol)
@ classical energy                      0.680682774 (0.178713E+04  kjoule/mol)
@ total qmmm energy                  -114.109403393 (-.299594E+06  kjoule/mol)
@------------------------------------------------------------------------

@------------------------------------------------
@
@  OPTIMIZATION FINISHED 
@

 Task  times  cpu:       25.0s     wall:       25.2s


                                NWChem Input Module
                                -------------------


 Summary of allocated global arrays
-----------------------------------
  No active global arrays



                         GA Statistics for process    0
                         ------------------------------

       create   destroy   get      put      acc     scatter   gather  read&inc
calls: 4393     4393     3.66e+05 3.59e+04 9.71e+04    0        0     4.44e+04 
number of processes/call 1.10e+00 1.16e+00 1.06e+00 0.00e+00 0.00e+00
bytes total:             1.39e+08 1.77e+07 5.93e+07 0.00e+00 0.00e+00 3.55e+05
bytes remote:            5.22e+07 5.53e+06 1.75e+07 0.00e+00 0.00e+00 0.00e+00
Max memory consumed for GA by this process: 317504 bytes

MA_summarize_allocated_blocks: starting scan ...
heap block 'gridpts', handle 222, address 0x557599b3cb88:
	type of elements:		double precision
	number of elements:		6291456
	address of client space:	0x557599b3cc00
	index for client space:		39097235
	total number of bytes:		50331776
MA_summarize_allocated_blocks: scan completed: 1 heap block, 0 stack blocks
MA usage statistics:

	allocation statistics:
					      heap	     stack
					      ----	     -----
	current number of blocks	         1	         0
	maximum number of blocks	        62	       137
	current total bytes		  50331776	         0
	maximum total bytes		 261243880	 393760744
	maximum total K-bytes		    261244	    393761
	maximum total M-bytes		       262	       394


                                     CITATION
                                     --------
                Please cite the following reference when publishing
                           results obtained with NWChem:

                 M. Valiev, E.J. Bylaska, N. Govind, K. Kowalski,
              T.P. Straatsma, H.J.J. van Dam, D. Wang, J. Nieplocha,
                        E. Apra, T.L. Windus, W.A. de Jong
                 "NWChem: a comprehensive and scalable open-source
                  solution for large scale molecular simulations"
                      Comput. Phys. Commun. 181, 1477 (2010)
                           doi:10.1016/j.cpc.2010.04.018

                                      AUTHORS
                                      -------
          E. Apra, E. J. Bylaska, W. A. de Jong, N. Govind, K. Kowalski,
       T. P. Straatsma, M. Valiev, H. J. J. van Dam, D. Wang, T. L. Windus,
        J. Hammond, J. Autschbach, K. Bhaskaran-Nair, J. Brabec, K. Lopata,
    S. A. Fischer, S. Krishnamoorthy, M. Jacquelin, W. Ma, M. Klemm, O. Villa,
      Y. Chen, V. Anisimov, F. Aquino, S. Hirata, M. T. Hackler, V. Konjkov,
            D. Mejia-Rodriguez, T. Risthaus, M. Malagoli, A. Marenich,
   A. Otero-de-la-Roza, J. Mullin, P. Nichols, R. Peverati, J. Pittner, Y. Zhao,
        P.-D. Fan, A. Fonari, M. J. Williamson, R. J. Harrison, J. R. Rehr,
      M. Dupuis, D. Silverstein, D. M. A. Smith, J. Nieplocha, V. Tipparaju,
    M. Krishnan, B. E. Van Kuiken, A. Vazquez-Mayagoitia, L. Jensen, M. Swart,
      Q. Wu, T. Van Voorhis, A. A. Auer, M. Nooijen, L. D. Crosby, E. Brown,
      G. Cisneros, G. I. Fann, H. Fruchtl, J. Garza, K. Hirao, R. A. Kendall,
      J. A. Nichols, K. Tsemekhman, K. Wolinski, J. Anchell, D. E. Bernholdt,
      P. Borowski, T. Clark, D. Clerc, H. Dachsel, M. J. O. Deegan, K. Dyall,
    D. Elwood, E. Glendening, M. Gutowski, A. C. Hess, J. Jaffe, B. G. Johnson,
     J. Ju, R. Kobayashi, R. Kutteh, Z. Lin, R. Littlefield, X. Long, B. Meng,
      T. Nakajima, S. Niu, L. Pollack, M. Rosing, K. Glaesemann, G. Sandrone,
      M. Stave, H. Taylor, G. Thomas, J. H. van Lenthe, A. T. Wong, Z. Zhang.

 Total times  cpu:       25.0s     wall:       25.2s
