 argument  1 = /home/list1234/source/nwchem-6.8.1-release/QA/tests/rimp2_ne/rimp2_ne.nw



============================== echo of input deck ==============================
echo
#
# The enclosed pair of inputs result in clearly erroneous RI-MP2
# correlation energies (-22 Eh for Ne2).  The culprit appears to be
# multiple f functions in the AO basis.  Salient facts:
#
# 1) Setting int:cando_txs=f eliminates the problem
# 2) Two f functions are required in the AO basis. (cc-pVTZ Ne atom does
#    NOT cause the problem, cc-pVQZ Ne atom does, cc-pVTZ Ne dimer does)
# 3) f functions in the fitting basis do not seem to matter
#
# --
start ne2
title "ne dimer test for 3c integral bug"

geometry
Ne 0.0 0.0 0.0
Ne 0.0 0.0 2.7
end

basis noprint
Ne library cc-pVTZ
end

task scf

basis "ri-mp2 basis" noprint
Ne library cc-PVDZ
end

task rimp2
set int:cando_txs logical false
scf
vectors input atomic
end
task scf
task rimp2
================================================================================


                                         
                                         


              Northwest Computational Chemistry Package (NWChem) 6.8
              ------------------------------------------------------


                    Environmental Molecular Sciences Laboratory
                       Pacific Northwest National Laboratory
                                Richland, WA 99352

                              Copyright (c) 1994-2018
                       Pacific Northwest National Laboratory
                            Battelle Memorial Institute

             NWChem is an open-source computational chemistry package
                        distributed under the terms of the
                      Educational Community License (ECL) 2.0
             A copy of the license is included with this distribution
                              in the LICENSE.TXT file

                                  ACKNOWLEDGMENT
                                  --------------

            This software and its documentation were developed at the
            EMSL at Pacific Northwest National Laboratory, a multiprogram
            national laboratory, operated for the U.S. Department of Energy
            by Battelle under Contract Number DE-AC05-76RL01830. Support
            for this work was provided by the Department of Energy Office
            of Biological and Environmental Research, Office of Basic
            Energy Sciences, and the Office of Advanced Scientific Computing.


           Job information
           ---------------

    hostname        = list1234-B360M-H
    program         = /home/list1234/source/nwchem-6.8.1-release/bin/LINUX64/nwchem
    date            = Sun Jun 30 05:39:48 2019

    compiled        = Sun_Jun_30_05:21:11_2019
    source          = /home/list1234/source/nwchem-6.8.1-release
    nwchem branch   = Development
    nwchem revision = N/A
    ga revision     = 5.6.5
    use scalapack   = T
    input           = /home/list1234/source/nwchem-6.8.1-release/QA/tests/rimp2_ne/rimp2_ne.nw
    prefix          = ne2.
    data base       = ./ne2.db
    status          = startup
    nproc           =        4
    time left       =     -1s



           Memory information
           ------------------

    heap     =   86247166 doubles =    658.0 Mbytes
    stack    =   86247163 doubles =    658.0 Mbytes
    global   =  172494336 doubles =   1316.0 Mbytes (distinct from heap & stack)
    total    =  344988665 doubles =   2632.1 Mbytes
    verify   = yes
    hardfail = no 


           Directory information
           ---------------------

  0 permanent = .
  0 scratch   = .




                                NWChem Input Module
                                -------------------


                         ne dimer test for 3c integral bug
                         ---------------------------------

 Scaling coordinates for geometry "geometry" by  1.889725989
 (inverse scale =  0.529177249)

 ORDER OF PRIMARY AXIS IS BEING SET TO 4
 D4H symmetry detected

          ------
          auto-z
          ------
     1 autoz failed with cvr_scaling = 1.2 changing to 1.3
     2 autoz failed with cvr_scaling = 1.3 changing to 1.4
     3 autoz failed with cvr_scaling = 1.4 changing to 1.5
     4 autoz failed with cvr_scaling = 1.5 changing to 1.6
     5 autoz failed with cvr_scaling = 1.6 changing to 1.7

 AUTOZ failed to generate good internal coordinates.
 Cartesian coordinates will be used in optimizations.



                             Geometry "geometry" -> ""
                             -------------------------

 Output coordinates in angstroms (scale by  1.889725989 to convert to a.u.)

  No.       Tag          Charge          X              Y              Z
 ---- ---------------- ---------- -------------- -------------- --------------
    1 Ne                  10.0000     0.00000000     0.00000000    -1.35000000
    2 Ne                  10.0000     0.00000000     0.00000000     1.35000000

      Atomic Mass 
      ----------- 

      Ne                19.992440


 Effective nuclear repulsion energy (a.u.)      19.5991573704

            Nuclear Dipole moment (a.u.) 
            ----------------------------
        X                 Y               Z
 ---------------- ---------------- ----------------
     0.0000000000     0.0000000000     0.0000000000

      Symmetry information
      --------------------

 Group name             D4h       
 Group number             28
 Group order              16
 No. of unique centers     1

      Symmetry unique atoms

     1


            XYZ format geometry
            -------------------
     2
 geometry
 Ne                    0.00000000     0.00000000    -1.35000000
 Ne                    0.00000000     0.00000000     1.35000000

                                 NWChem SCF Module
                                 -----------------


                         ne dimer test for 3c integral bug



  ao basis        = "ao basis"
  functions       =    70
  atoms           =     2
  closed shells   =    10
  open shells     =     0
  charge          =   0.00
  wavefunction    = RHF 
  input vectors   = atomic
  output vectors  = ./ne2.movecs
  use symmetry    = T
  symmetry adapt  = T


 Summary of "ao basis" -> "ao basis" (cartesian)
 ------------------------------------------------------------------------------
       Tag                 Description            Shells   Functions and Types
 ---------------- ------------------------------  ------  ---------------------
 Ne                         cc-pVTZ                 10       35   4s3p2d1f


      Symmetry analysis of basis
      --------------------------

        a1g        13
        a1u         0
        a2g         0
        a2u        13
        b1g         3
        b1u         3
        b2g         3
        b2u         3
        eg         16
        eu         16


 Forming initial guess at       0.0s


      Superposition of Atomic Density Guess
      -------------------------------------

 Sum of atomic energies:        -257.06371022

      Non-variational initial energy
      ------------------------------

 Total energy =    -257.064183
 1-e energy   =    -404.395999
 2-e energy   =     127.732658
 HOMO         =      -0.833073
 LUMO         =       0.770571


      Symmetry analysis of molecular orbitals - initial
      -------------------------------------------------

  Numbering of irreducible representations: 

     1 a1g         2 a1u         3 a2g         4 a2u         5 b1g     
     6 b1u         7 b2g         8 b2u         9 eg         10 eu      

  Orbital symmetries:

     1 a1g         2 a2u         3 a1g         4 a2u         5 a1g     
     6 eu          7 eu          8 eg          9 eg         10 a2u     
    11 a1g        12 a2u        13 a1g        14 eu         15 eu      
    16 eg         17 eg         18 a2u        19 a1g        20 eu      


 Starting SCF solution at       0.1s



 ----------------------------------------------
         Quadratically convergent ROHF

 Convergence threshold     :          1.000E-04
 Maximum no. of iterations :           30
 Final Fock-matrix accuracy:          1.000E-07
 ----------------------------------------------


              iter       energy          gnorm     gmax       time
             ----- ------------------- --------- --------- --------
                 1     -257.0637752879  8.71D-03  3.24D-03      0.2
                 2     -257.0637782352  1.69D-05  5.70D-06      0.5


       Final RHF  results 
       ------------------ 

         Total SCF energy =   -257.063778235209
      One-electron energy =   -404.389601642963
      Two-electron energy =    127.726666037394
 Nuclear repulsion energy =     19.599157370359

        Time for solution =      0.3s



       Symmetry analysis of molecular orbitals - final
       -----------------------------------------------

  Numbering of irreducible representations: 

     1 a1g         2 a1u         3 a2g         4 a2u         5 b1g     
     6 b1u         7 b2g         8 b2u         9 eg         10 eu      

  Orbital symmetries:

     1 a2u         2 a1g         3 a1g         4 a2u         5 a1g     
     6 eu          7 eu          8 eg          9 eg         10 a2u     
    11 a1g        12 a2u        13 a1g        14 eu         15 eu      
    16 eg         17 eg         18 a2u        19 a1g        20 eu      

             Final eigenvalues
             -----------------

              1      
    1  -32.7697
    2  -32.7697
    3   -1.9285
    4   -1.9263
    5   -0.8549
    6   -0.8470
    7   -0.8470
    8   -0.8443
    9   -0.8443
   10   -0.8364
   11    0.7701
   12    0.9067
   13    0.9624
   14    0.9981
   15    0.9981
   16    1.0595
   17    1.0595
   18    1.2656
   19    2.8132
   20    2.8137

                       ROHF Final Molecular Orbital Analysis
                       -------------------------------------

 Vector    2  Occ=2.000000D+00  E=-3.276971D+01  Symmetry=a1g
              MO Center= -1.2D-19, -5.9D-20,  8.6D-12, r^2= 1.8D+00
   Bfn.  Coefficient  Atom+Function         Bfn.  Coefficient  Atom+Function  
  ----- ------------  ---------------      ----- ------------  ---------------
     1      0.686359  1 Ne s                 36      0.686359  2 Ne s          

 Vector    3  Occ=2.000000D+00  E=-1.928535D+00  Symmetry=a1g
              MO Center=  1.9D-35,  1.1D-35, -1.9D-18, r^2= 2.1D+00
   Bfn.  Coefficient  Atom+Function         Bfn.  Coefficient  Atom+Function  
  ----- ------------  ---------------      ----- ------------  ---------------
     2      0.413076  1 Ne s                 37      0.413076  2 Ne s          
     4      0.258483  1 Ne s                 39      0.258483  2 Ne s          

 Vector    4  Occ=2.000000D+00  E=-1.926287D+00  Symmetry=a2u
              MO Center=  2.4D-17,  1.4D-17,  7.7D-16, r^2= 2.1D+00
   Bfn.  Coefficient  Atom+Function         Bfn.  Coefficient  Atom+Function  
  ----- ------------  ---------------      ----- ------------  ---------------
     2      0.413269  1 Ne s                 37     -0.413269  2 Ne s          
     4      0.255460  1 Ne s                 39     -0.255460  2 Ne s          

 Vector    5  Occ=2.000000D+00  E=-8.548849D-01  Symmetry=a1g
              MO Center= -3.9D-17, -1.1D-16,  3.3D-14, r^2= 2.1D+00
   Bfn.  Coefficient  Atom+Function         Bfn.  Coefficient  Atom+Function  
  ----- ------------  ---------------      ----- ------------  ---------------
    10      0.334821  1 Ne pz                45     -0.334821  2 Ne pz         
     7      0.284078  1 Ne pz                42     -0.284078  2 Ne pz         
    13      0.236686  1 Ne pz                48     -0.236686  2 Ne pz         

 Vector    6  Occ=2.000000D+00  E=-8.469795D-01  Symmetry=eu
              MO Center=  1.9D-17,  1.2D-17, -1.1D-16, r^2= 2.2D+00
   Bfn.  Coefficient  Atom+Function         Bfn.  Coefficient  Atom+Function  
  ----- ------------  ---------------      ----- ------------  ---------------
     8      0.281974  1 Ne px                43      0.281974  2 Ne px         
     5      0.239879  1 Ne px                40      0.239879  2 Ne px         
    11      0.198800  1 Ne px                46      0.198800  2 Ne px         
     9      0.184175  1 Ne py                44      0.184175  2 Ne py         
     6      0.156680  1 Ne py                41      0.156680  2 Ne py         

 Vector    7  Occ=2.000000D+00  E=-8.469795D-01  Symmetry=eu
              MO Center= -6.9D-17,  3.6D-17,  6.6D-13, r^2= 2.2D+00
   Bfn.  Coefficient  Atom+Function         Bfn.  Coefficient  Atom+Function  
  ----- ------------  ---------------      ----- ------------  ---------------
     9      0.281974  1 Ne py                44      0.281974  2 Ne py         
     6      0.239879  1 Ne py                41      0.239879  2 Ne py         
    12      0.198800  1 Ne py                47      0.198800  2 Ne py         
     8     -0.184175  1 Ne px                43     -0.184175  2 Ne px         
     5     -0.156680  1 Ne px                40     -0.156680  2 Ne px         

 Vector    8  Occ=2.000000D+00  E=-8.443351D-01  Symmetry=eg
              MO Center= -1.3D-16,  1.7D-18, -6.4D-13, r^2= 2.2D+00
   Bfn.  Coefficient  Atom+Function         Bfn.  Coefficient  Atom+Function  
  ----- ------------  ---------------      ----- ------------  ---------------
     8      0.310086  1 Ne px                43     -0.310086  2 Ne px         
     5      0.261663  1 Ne px                40     -0.261663  2 Ne px         
    11      0.214705  1 Ne px                46     -0.214705  2 Ne px         

 Vector    9  Occ=2.000000D+00  E=-8.443351D-01  Symmetry=eg
              MO Center=  4.9D-17, -9.7D-18, -2.4D-14, r^2= 2.2D+00
   Bfn.  Coefficient  Atom+Function         Bfn.  Coefficient  Atom+Function  
  ----- ------------  ---------------      ----- ------------  ---------------
     9      0.310086  1 Ne py                44     -0.310086  2 Ne py         
     6      0.261663  1 Ne py                41     -0.261663  2 Ne py         
    12      0.214705  1 Ne py                47     -0.214705  2 Ne py         

 Vector   10  Occ=2.000000D+00  E=-8.363828D-01  Symmetry=a2u
              MO Center= -2.4D-17, -5.4D-17, -3.4D-14, r^2= 2.2D+00
   Bfn.  Coefficient  Atom+Function         Bfn.  Coefficient  Atom+Function  
  ----- ------------  ---------------      ----- ------------  ---------------
    10      0.343184  1 Ne pz                45      0.343184  2 Ne pz         
     7      0.289451  1 Ne pz                42      0.289451  2 Ne pz         
    13      0.235512  1 Ne pz                48      0.235512  2 Ne pz         

 Vector   11  Occ=0.000000D+00  E= 7.700822D-01  Symmetry=a1g
              MO Center=  3.3D-19, -5.1D-19,  3.4D-17, r^2= 1.5D+00
   Bfn.  Coefficient  Atom+Function         Bfn.  Coefficient  Atom+Function  
  ----- ------------  ---------------      ----- ------------  ---------------
     4      1.673914  1 Ne s                 39      1.673914  2 Ne s          
    20     -0.527166  1 Ne dxx               23     -0.527166  1 Ne dyy        
    55     -0.527166  2 Ne dxx               58     -0.527166  2 Ne dyy        
    25     -0.507832  1 Ne dzz               60     -0.507832  2 Ne dzz        
    10     -0.470746  1 Ne pz                45      0.470746  2 Ne pz         

 Vector   12  Occ=0.000000D+00  E= 9.067341D-01  Symmetry=a2u
              MO Center=  1.6D-17,  7.8D-18, -5.7D-16, r^2= 4.1D+00
   Bfn.  Coefficient  Atom+Function         Bfn.  Coefficient  Atom+Function  
  ----- ------------  ---------------      ----- ------------  ---------------
     4      1.893585  1 Ne s                 39     -1.893585  2 Ne s          
    25     -0.571758  1 Ne dzz               60      0.571758  2 Ne dzz        
    20     -0.568792  1 Ne dxx               23     -0.568792  1 Ne dyy        
    55      0.568792  2 Ne dxx               58      0.568792  2 Ne dyy        
     3     -0.500886  1 Ne s                 38      0.500886  2 Ne s          

 Vector   13  Occ=0.000000D+00  E= 9.624225D-01  Symmetry=a1g
              MO Center=  3.8D-18, -4.8D-18, -3.3D-16, r^2= 4.4D+00
   Bfn.  Coefficient  Atom+Function         Bfn.  Coefficient  Atom+Function  
  ----- ------------  ---------------      ----- ------------  ---------------
     4      1.134861  1 Ne s                 39      1.134861  2 Ne s          
    10      0.748445  1 Ne pz                45     -0.748445  2 Ne pz         
    13     -0.744005  1 Ne pz                48      0.744005  2 Ne pz         
    25     -0.349211  1 Ne dzz               60     -0.349211  2 Ne dzz        
    20     -0.336085  1 Ne dxx               23     -0.336085  1 Ne dyy        

 Vector   14  Occ=0.000000D+00  E= 9.981132D-01  Symmetry=eu
              MO Center= -2.1D-19,  1.5D-18, -2.0D-16, r^2= 3.0D+00
   Bfn.  Coefficient  Atom+Function         Bfn.  Coefficient  Atom+Function  
  ----- ------------  ---------------      ----- ------------  ---------------
    12     -0.907225  1 Ne py                47     -0.907225  2 Ne py         
     9      0.901715  1 Ne py                44      0.901715  2 Ne py         
    27     -0.204648  1 Ne fxxy              32     -0.204648  1 Ne fyyy       
    34     -0.205074  1 Ne fyzz              62     -0.204648  2 Ne fxxy       
    67     -0.204648  2 Ne fyyy              69     -0.205074  2 Ne fyzz       

 Vector   15  Occ=0.000000D+00  E= 9.981132D-01  Symmetry=eu
              MO Center= -6.7D-19, -9.6D-20,  1.7D-16, r^2= 3.0D+00
   Bfn.  Coefficient  Atom+Function         Bfn.  Coefficient  Atom+Function  
  ----- ------------  ---------------      ----- ------------  ---------------
    11     -0.907225  1 Ne px                46     -0.907225  2 Ne px         
     8      0.901715  1 Ne px                43      0.901715  2 Ne px         
    26     -0.204648  1 Ne fxxx              29     -0.204648  1 Ne fxyy       
    31     -0.205074  1 Ne fxzz              61     -0.204648  2 Ne fxxx       
    64     -0.204648  2 Ne fxyy              66     -0.205074  2 Ne fxzz       

 Vector   16  Occ=0.000000D+00  E= 1.059497D+00  Symmetry=eg
              MO Center= -3.1D-16,  3.8D-17,  1.0D-16, r^2= 3.1D+00
   Bfn.  Coefficient  Atom+Function         Bfn.  Coefficient  Atom+Function  
  ----- ------------  ---------------      ----- ------------  ---------------
    11     -0.921349  1 Ne px                46      0.921349  2 Ne px         
     8      0.888092  1 Ne px                43     -0.888092  2 Ne px         
    26     -0.197739  1 Ne fxxx              29     -0.197739  1 Ne fxyy       
    31     -0.197296  1 Ne fxzz              61      0.197739  2 Ne fxxx       
    64      0.197739  2 Ne fxyy              66      0.197296  2 Ne fxzz       

 Vector   17  Occ=0.000000D+00  E= 1.059497D+00  Symmetry=eg
              MO Center= -5.6D-19, -3.4D-18, -5.1D-17, r^2= 3.1D+00
   Bfn.  Coefficient  Atom+Function         Bfn.  Coefficient  Atom+Function  
  ----- ------------  ---------------      ----- ------------  ---------------
    12     -0.921349  1 Ne py                47      0.921349  2 Ne py         
     9      0.888092  1 Ne py                44     -0.888092  2 Ne py         
    27     -0.197739  1 Ne fxxy              32     -0.197739  1 Ne fyyy       
    34     -0.197296  1 Ne fyzz              62      0.197739  2 Ne fxxy       
    67      0.197739  2 Ne fyyy              69      0.197296  2 Ne fyzz       

 Vector   18  Occ=0.000000D+00  E= 1.265584D+00  Symmetry=a2u
              MO Center=  2.8D-16, -6.9D-17,  4.5D-16, r^2= 2.3D+00
   Bfn.  Coefficient  Atom+Function         Bfn.  Coefficient  Atom+Function  
  ----- ------------  ---------------      ----- ------------  ---------------
    13      0.940984  1 Ne pz                48      0.940984  2 Ne pz         
     4      0.833309  1 Ne s                 39     -0.833309  2 Ne s          
    10     -0.822674  1 Ne pz                45     -0.822674  2 Ne pz         
    25     -0.253849  1 Ne dzz               60      0.253849  2 Ne dzz        
     3     -0.212876  1 Ne s                 38      0.212876  2 Ne s          

 Vector   19  Occ=0.000000D+00  E= 2.813215D+00  Symmetry=a1g
              MO Center=  1.8D-17, -2.7D-17, -2.5D-16, r^2= 2.3D+00
   Bfn.  Coefficient  Atom+Function         Bfn.  Coefficient  Atom+Function  
  ----- ------------  ---------------      ----- ------------  ---------------
    25      0.689563  1 Ne dzz               60      0.689563  2 Ne dzz        
    20     -0.373869  1 Ne dxx               23     -0.373869  1 Ne dyy        
    55     -0.373869  2 Ne dxx               58     -0.373869  2 Ne dyy        

 Vector   20  Occ=0.000000D+00  E= 2.813671D+00  Symmetry=eu
              MO Center= -9.5D-16,  2.1D-16,  3.4D-14, r^2= 2.3D+00
   Bfn.  Coefficient  Atom+Function         Bfn.  Coefficient  Atom+Function  
  ----- ------------  ---------------      ----- ------------  ---------------
    22      1.098029  1 Ne dxz               57     -1.098029  2 Ne dxz        
    24      0.552203  1 Ne dyz               59     -0.552203  2 Ne dyz        


 center of mass
 --------------
 x =   0.00000000 y =   0.00000000 z =   0.00000000

 moments of inertia (a.u.)
 ------------------
         260.232183376187           0.000000000000           0.000000000000
           0.000000000000         260.232183376187           0.000000000000
           0.000000000000           0.000000000000           0.000000000000

  Mulliken analysis of the total density
  --------------------------------------

    Atom       Charge   Shell Charges
 -----------   ------   -------------------------------------------------------
    1 Ne  10    10.00   1.94  1.11  0.29  0.65  1.84  2.69  1.44  0.01  0.01  0.02
    2 Ne  10    10.00   1.94  1.11  0.29  0.65  1.84  2.69  1.44  0.01  0.01  0.02

       Multipole analysis of the density wrt the origin
       ------------------------------------------------

     L   x y z        total         open         nuclear
     -   - - -        -----         ----         -------
     0   0 0 0     -0.000000      0.000000     20.000000

     1   1 0 0      0.000000      0.000000      0.000000
     1   0 1 0      0.000000      0.000000      0.000000
     1   0 0 1     -0.000000      0.000000      0.000000

     2   2 0 0     -6.181820      0.000000      0.000000
     2   1 1 0     -0.000000      0.000000      0.000000
     2   1 0 1     -0.000000      0.000000      0.000000
     2   0 2 0     -6.181820      0.000000      0.000000
     2   0 1 1      0.000000      0.000000      0.000000
     2   0 0 2     -6.177903      0.000000    130.165294


 Task  times  cpu:        0.4s     wall:        0.4s


                                NWChem Input Module
                                -------------------


                                 NWChem SCF Module
                                 -----------------


                         ne dimer test for 3c integral bug



  ao basis        = "ao basis"
  functions       =    70
  atoms           =     2
  closed shells   =    10
  open shells     =     0
  charge          =   0.00
  wavefunction    = RHF 
  input vectors   = ./ne2.movecs
  output vectors  = ./ne2.movecs
  use symmetry    = T
  symmetry adapt  = T


 Summary of "ao basis" -> "ao basis" (cartesian)
 ------------------------------------------------------------------------------
       Tag                 Description            Shells   Functions and Types
 ---------------- ------------------------------  ------  ---------------------
 Ne                         cc-pVTZ                 10       35   4s3p2d1f


      Symmetry analysis of basis
      --------------------------

        a1g        13
        a1u         0
        a2g         0
        a2u        13
        b1g         3
        b1u         3
        b2g         3
        b2u         3
        eg         16
        eu         16


 Forming initial guess at       0.4s


 Loading old vectors from job with title :

ne dimer test for 3c integral bug


      Symmetry analysis of molecular orbitals - initial
      -------------------------------------------------

  Numbering of irreducible representations: 

     1 a1g         2 a1u         3 a2g         4 a2u         5 b1g     
     6 b1u         7 b2g         8 b2u         9 eg         10 eu      

  Orbital symmetries:

     1 a2u         2 a1g         3 a1g         4 a2u         5 a1g     
     6 eu          7 eu          8 eg          9 eg         10 a2u     
    11 a1g        12 a2u        13 a1g        14 eu         15 eu      
    16 eg         17 eg         18 a2u        19 a1g        20 eu      


 Starting SCF solution at       0.4s



 ----------------------------------------------
         Quadratically convergent ROHF

 Convergence threshold     :          1.000E-06
 Maximum no. of iterations :           30
 Final Fock-matrix accuracy:          1.000E-08
 ----------------------------------------------


              iter       energy          gnorm     gmax       time
             ----- ------------------- --------- --------- --------
                 1     -257.0637786082  2.18D-05  8.44D-06      0.6
                 2     -257.0637786082  1.49D-08  3.96D-09      0.8


       Final RHF  results 
       ------------------ 

         Total SCF energy =   -257.063778608245
      One-electron energy =   -404.389605329685
      Two-electron energy =    127.726669351081
 Nuclear repulsion energy =     19.599157370359

        Time for solution =      0.3s



       Symmetry analysis of molecular orbitals - final
       -----------------------------------------------

  Numbering of irreducible representations: 

     1 a1g         2 a1u         3 a2g         4 a2u         5 b1g     
     6 b1u         7 b2g         8 b2u         9 eg         10 eu      

  Orbital symmetries:

     1 a2u         2 a1g         3 a1g         4 a2u         5 a1g     
     6 eu          7 eu          8 eg          9 eg         10 a2u     
    11 a1g        12 a2u        13 a1g        14 eu         15 eu      
    16 eg         17 eg         18 a2u        19 a1g        20 eu      

             Final eigenvalues
             -----------------

              1      
    1  -32.7697
    2  -32.7697
    3   -1.9285
    4   -1.9263
    5   -0.8549
    6   -0.8470
    7   -0.8470
    8   -0.8443
    9   -0.8443
   10   -0.8364
   11    0.7701
   12    0.9067
   13    0.9624
   14    0.9981
   15    0.9981
   16    1.0595
   17    1.0595
   18    1.2656
   19    2.8132
   20    2.8137

                       ROHF Final Molecular Orbital Analysis
                       -------------------------------------

 Vector    2  Occ=2.000000D+00  E=-3.276971D+01  Symmetry=a1g
              MO Center=  0.0D+00,  0.0D+00,  3.1D-16, r^2= 1.8D+00
   Bfn.  Coefficient  Atom+Function         Bfn.  Coefficient  Atom+Function  
  ----- ------------  ---------------      ----- ------------  ---------------
     1      0.686359  1 Ne s                 36      0.686359  2 Ne s          

 Vector    3  Occ=2.000000D+00  E=-1.928535D+00  Symmetry=a1g
              MO Center= -3.2D-22,  1.3D-21,  8.5D-17, r^2= 2.1D+00
   Bfn.  Coefficient  Atom+Function         Bfn.  Coefficient  Atom+Function  
  ----- ------------  ---------------      ----- ------------  ---------------
     2      0.413077  1 Ne s                 37      0.413077  2 Ne s          
     4      0.258482  1 Ne s                 39      0.258482  2 Ne s          

 Vector    4  Occ=2.000000D+00  E=-1.926287D+00  Symmetry=a2u
              MO Center= -4.6D-22, -1.0D-21, -1.4D-16, r^2= 2.1D+00
   Bfn.  Coefficient  Atom+Function         Bfn.  Coefficient  Atom+Function  
  ----- ------------  ---------------      ----- ------------  ---------------
     2      0.413268  1 Ne s                 37     -0.413268  2 Ne s          
     4      0.255459  1 Ne s                 39     -0.255459  2 Ne s          

 Vector    5  Occ=2.000000D+00  E=-8.548848D-01  Symmetry=a1g
              MO Center= -5.5D-40, -4.9D-40,  1.7D-16, r^2= 2.1D+00
   Bfn.  Coefficient  Atom+Function         Bfn.  Coefficient  Atom+Function  
  ----- ------------  ---------------      ----- ------------  ---------------
    10      0.334821  1 Ne pz                45     -0.334821  2 Ne pz         
     7      0.284078  1 Ne pz                42     -0.284078  2 Ne pz         
    13      0.236686  1 Ne pz                48     -0.236686  2 Ne pz         

 Vector    6  Occ=2.000000D+00  E=-8.469794D-01  Symmetry=eu
              MO Center=  7.1D-22, -1.1D-21,  2.1D-16, r^2= 2.2D+00
   Bfn.  Coefficient  Atom+Function         Bfn.  Coefficient  Atom+Function  
  ----- ------------  ---------------      ----- ------------  ---------------
     9      0.281974  1 Ne py                44      0.281974  2 Ne py         
     6      0.239879  1 Ne py                41      0.239879  2 Ne py         
    12      0.198800  1 Ne py                47      0.198800  2 Ne py         
     8     -0.184175  1 Ne px                43     -0.184175  2 Ne px         
     5     -0.156680  1 Ne px                40     -0.156680  2 Ne px         

 Vector    7  Occ=2.000000D+00  E=-8.469794D-01  Symmetry=eu
              MO Center=  8.1D-21, -3.4D-21,  1.9D-16, r^2= 2.2D+00
   Bfn.  Coefficient  Atom+Function         Bfn.  Coefficient  Atom+Function  
  ----- ------------  ---------------      ----- ------------  ---------------
     8      0.281974  1 Ne px                43      0.281974  2 Ne px         
     5      0.239879  1 Ne px                40      0.239879  2 Ne px         
    11      0.198800  1 Ne px                46      0.198800  2 Ne px         
     9      0.184175  1 Ne py                44      0.184175  2 Ne py         
     6      0.156680  1 Ne py                41      0.156680  2 Ne py         

 Vector    8  Occ=2.000000D+00  E=-8.443350D-01  Symmetry=eg
              MO Center=  4.6D-22,  1.0D-21, -4.1D-17, r^2= 2.2D+00
   Bfn.  Coefficient  Atom+Function         Bfn.  Coefficient  Atom+Function  
  ----- ------------  ---------------      ----- ------------  ---------------
     9      0.310086  1 Ne py                44     -0.310086  2 Ne py         
     6      0.261663  1 Ne py                41     -0.261663  2 Ne py         
    12      0.214704  1 Ne py                47     -0.214704  2 Ne py         

 Vector    9  Occ=2.000000D+00  E=-8.443350D-01  Symmetry=eg
              MO Center= -6.0D-29,  2.7D-29, -9.9D-17, r^2= 2.2D+00
   Bfn.  Coefficient  Atom+Function         Bfn.  Coefficient  Atom+Function  
  ----- ------------  ---------------      ----- ------------  ---------------
     8      0.310086  1 Ne px                43     -0.310086  2 Ne px         
     5      0.261663  1 Ne px                40     -0.261663  2 Ne px         
    11      0.214704  1 Ne px                46     -0.214704  2 Ne px         

 Vector   10  Occ=2.000000D+00  E=-8.363825D-01  Symmetry=a2u
              MO Center=  5.4D-41,  2.0D-41,  2.7D-16, r^2= 2.2D+00
   Bfn.  Coefficient  Atom+Function         Bfn.  Coefficient  Atom+Function  
  ----- ------------  ---------------      ----- ------------  ---------------
    10      0.343183  1 Ne pz                45      0.343183  2 Ne pz         
     7      0.289451  1 Ne pz                42      0.289451  2 Ne pz         
    13      0.235513  1 Ne pz                48      0.235513  2 Ne pz         

 Vector   11  Occ=0.000000D+00  E= 7.700787D-01  Symmetry=a1g
              MO Center=  1.7D-21,  1.1D-21, -3.6D-16, r^2= 1.5D+00
   Bfn.  Coefficient  Atom+Function         Bfn.  Coefficient  Atom+Function  
  ----- ------------  ---------------      ----- ------------  ---------------
     4      1.673917  1 Ne s                 39      1.673917  2 Ne s          
    20     -0.527168  1 Ne dxx               23     -0.527168  1 Ne dyy        
    55     -0.527168  2 Ne dxx               58     -0.527168  2 Ne dyy        
    25     -0.507836  1 Ne dzz               60     -0.507836  2 Ne dzz        
    10     -0.470750  1 Ne pz                45      0.470750  2 Ne pz         

 Vector   12  Occ=0.000000D+00  E= 9.067315D-01  Symmetry=a2u
              MO Center= -8.3D-33, -6.0D-33, -1.4D-15, r^2= 4.1D+00
   Bfn.  Coefficient  Atom+Function         Bfn.  Coefficient  Atom+Function  
  ----- ------------  ---------------      ----- ------------  ---------------
     4      1.893590  1 Ne s                 39     -1.893590  2 Ne s          
    25     -0.571761  1 Ne dzz               60      0.571761  2 Ne dzz        
    20     -0.568795  1 Ne dxx               23     -0.568795  1 Ne dyy        
    55      0.568795  2 Ne dxx               58      0.568795  2 Ne dyy        
     3     -0.500887  1 Ne s                 38      0.500887  2 Ne s          

 Vector   13  Occ=0.000000D+00  E= 9.624234D-01  Symmetry=a1g
              MO Center= -1.1D-21, -7.2D-22, -1.1D-15, r^2= 4.4D+00
   Bfn.  Coefficient  Atom+Function         Bfn.  Coefficient  Atom+Function  
  ----- ------------  ---------------      ----- ------------  ---------------
     4      1.134860  1 Ne s                 39      1.134860  2 Ne s          
    10      0.748443  1 Ne pz                45     -0.748443  2 Ne pz         
    13     -0.744005  1 Ne pz                48      0.744005  2 Ne pz         
    25     -0.349211  1 Ne dzz               60     -0.349211  2 Ne dzz        
    20     -0.336085  1 Ne dxx               23     -0.336085  1 Ne dyy        

 Vector   14  Occ=0.000000D+00  E= 9.981132D-01  Symmetry=eu
              MO Center= -1.1D-21,  6.7D-21, -4.4D-16, r^2= 3.0D+00
   Bfn.  Coefficient  Atom+Function         Bfn.  Coefficient  Atom+Function  
  ----- ------------  ---------------      ----- ------------  ---------------
    12     -0.908679  1 Ne py                47     -0.908679  2 Ne py         
     9      0.903161  1 Ne py                44      0.903161  2 Ne py         
    27     -0.204976  1 Ne fxxy              32     -0.204976  1 Ne fyyy       
    34     -0.205403  1 Ne fyzz              62     -0.204976  2 Ne fxxy       
    67     -0.204976  2 Ne fyyy              69     -0.205403  2 Ne fyzz       

 Vector   15  Occ=0.000000D+00  E= 9.981132D-01  Symmetry=eu
              MO Center=  2.7D-21,  4.5D-22,  3.2D-16, r^2= 3.0D+00
   Bfn.  Coefficient  Atom+Function         Bfn.  Coefficient  Atom+Function  
  ----- ------------  ---------------      ----- ------------  ---------------
    11     -0.908679  1 Ne px                46     -0.908679  2 Ne px         
     8      0.903161  1 Ne px                43      0.903161  2 Ne px         
    26     -0.204976  1 Ne fxxx              29     -0.204976  1 Ne fxyy       
    31     -0.205403  1 Ne fxzz              61     -0.204976  2 Ne fxxx       
    64     -0.204976  2 Ne fxyy              66     -0.205403  2 Ne fxzz       

 Vector   16  Occ=0.000000D+00  E= 1.059497D+00  Symmetry=eg
              MO Center= -1.8D-20,  3.9D-21,  2.8D-16, r^2= 3.1D+00
   Bfn.  Coefficient  Atom+Function         Bfn.  Coefficient  Atom+Function  
  ----- ------------  ---------------      ----- ------------  ---------------
    11     -0.931281  1 Ne px                46      0.931281  2 Ne px         
     8      0.897665  1 Ne px                43     -0.897665  2 Ne px         
    26     -0.199871  1 Ne fxxx              29     -0.199871  1 Ne fxyy       
    31     -0.199423  1 Ne fxzz              61      0.199871  2 Ne fxxx       
    64      0.199871  2 Ne fxyy              66      0.199423  2 Ne fxzz       

 Vector   17  Occ=0.000000D+00  E= 1.059497D+00  Symmetry=eg
              MO Center= -2.5D-21, -1.2D-20,  4.2D-16, r^2= 3.1D+00
   Bfn.  Coefficient  Atom+Function         Bfn.  Coefficient  Atom+Function  
  ----- ------------  ---------------      ----- ------------  ---------------
    12     -0.931281  1 Ne py                47      0.931281  2 Ne py         
     9      0.897665  1 Ne py                44     -0.897665  2 Ne py         
    27     -0.199871  1 Ne fxxy              32     -0.199871  1 Ne fyyy       
    34     -0.199423  1 Ne fyzz              62      0.199871  2 Ne fxxy       
    67      0.199871  2 Ne fyyy              69      0.199423  2 Ne fyzz       

 Vector   18  Occ=0.000000D+00  E= 1.265583D+00  Symmetry=a2u
              MO Center= -7.0D-25, -1.5D-24,  3.5D-16, r^2= 2.3D+00
   Bfn.  Coefficient  Atom+Function         Bfn.  Coefficient  Atom+Function  
  ----- ------------  ---------------      ----- ------------  ---------------
    13      0.940985  1 Ne pz                48      0.940985  2 Ne pz         
     4      0.833303  1 Ne s                 39     -0.833303  2 Ne s          
    10     -0.822674  1 Ne pz                45     -0.822674  2 Ne pz         
    25     -0.253847  1 Ne dzz               60      0.253847  2 Ne dzz        
     3     -0.212874  1 Ne s                 38      0.212874  2 Ne s          

 Vector   19  Occ=0.000000D+00  E= 2.813215D+00  Symmetry=a1g
              MO Center= -4.3D-22, -2.9D-22,  3.2D-16, r^2= 2.3D+00
   Bfn.  Coefficient  Atom+Function         Bfn.  Coefficient  Atom+Function  
  ----- ------------  ---------------      ----- ------------  ---------------
    25      0.689565  1 Ne dzz               60      0.689565  2 Ne dzz        
    20     -0.373868  1 Ne dxx               23     -0.373868  1 Ne dyy        
    55     -0.373868  2 Ne dxx               58     -0.373868  2 Ne dyy        

 Vector   20  Occ=0.000000D+00  E= 2.813671D+00  Symmetry=eu
              MO Center=  6.0D-15, -4.6D-15, -9.8D-14, r^2= 2.3D+00
   Bfn.  Coefficient  Atom+Function         Bfn.  Coefficient  Atom+Function  
  ----- ------------  ---------------      ----- ------------  ---------------
    24      1.001506  1 Ne dyz               59     -1.001506  2 Ne dyz        
    22      0.712447  1 Ne dxz               57     -0.712447  2 Ne dxz        


 center of mass
 --------------
 x =   0.00000000 y =   0.00000000 z =   0.00000000

 moments of inertia (a.u.)
 ------------------
         260.232183376187           0.000000000000           0.000000000000
           0.000000000000         260.232183376187           0.000000000000
           0.000000000000           0.000000000000           0.000000000000

  Mulliken analysis of the total density
  --------------------------------------

    Atom       Charge   Shell Charges
 -----------   ------   -------------------------------------------------------
    1 Ne  10    10.00   1.94  1.11  0.29  0.65  1.84  2.69  1.44  0.01  0.01  0.02
    2 Ne  10    10.00   1.94  1.11  0.29  0.65  1.84  2.69  1.44  0.01  0.01  0.02

       Multipole analysis of the density wrt the origin
       ------------------------------------------------

     L   x y z        total         open         nuclear
     -   - - -        -----         ----         -------
     0   0 0 0     -0.000000      0.000000     20.000000

     1   1 0 0     -0.000000      0.000000      0.000000
     1   0 1 0      0.000000      0.000000      0.000000
     1   0 0 1     -0.000000      0.000000      0.000000

     2   2 0 0     -6.181818      0.000000      0.000000
     2   1 1 0     -0.000000      0.000000      0.000000
     2   1 0 1     -0.000000      0.000000      0.000000
     2   0 2 0     -6.181818      0.000000      0.000000
     2   0 1 1      0.000000      0.000000      0.000000
     2   0 0 2     -6.177896      0.000000    130.165294

                               NWChem RI-MP2 Module
                               --------------------
                         ne dimer test for 3c integral bug



 SCF Reference Information:
            File: './ne2.movecs'
           Title: 'ne dimer test for 3c integral bug'
    Size (AOxMO):     70 x     70
       Total Occ:              20.00
 RI-MP2 Calculation Information:
          Nr. of AO basis functions:         70
     Nr. of fitting basis functions:         30
               Nr. of MO spin cases:          1
        Nr. of MOs to be correlated:         70
     Nr. of occupied MOs correlated:         10
      Nr. of virtual MOs correlated:         60

          RI integral approximation: 'V'
    Threshold for Schwarz screening:  1.000E-09
 Smallest eigenvalue retained in fit  1.000E-08
     Base file name for MO integrals 'mo3cint'
    Type of storage for MO integrals 'EAF library'

 Transformation block size   10, requiring     1 integral passes.
 XForm_3cInts: Completed     1:   10 pass.             @Sun Jun 30 05:39:49 2019
 Energy evaluation using block sizes    10   10
 RIMP2_V_E2: Approx. ints. done (    1:   10,    1:   10) @Sun Jun 30 05:39:49 2019
 RIMP2_V_E2: Copy to B done (    1:   10,    1:   10)  @Sun Jun 30 05:39:49 2019
 RIMP2_V_E2: Denominators done (    1:   10,    1:   10) @Sun Jun 30 05:39:49 2019
 RIMP2_V_E2: Completed block (    1:   10,    1:   10) @Sun Jun 30 05:39:49 2019


          -------------------------------------------
          SCF energy                -257.063778608245
          Correlation energy          -0.597783717992
          Total MP2 energy          -257.661562326236
          -------------------------------------------

 -----------------------
 Performance information
 -----------------------

 Timer overhead =  2.58D-07 seconds/call

               Nr. of calls         CPU time (s)                 Wall time (s)                GFlops
             ---------------    -------------------     ------------------------------   -------------------
Name         Min   Avg   Max    Min     Avg     Max     Min     Avg     Max   Mx/calls   Min     Max     Sum
Overall       1     1     1   0.45    0.46    0.46     0.46    0.46    0.46    0.46      0.0     0.0     0.0   
3c integr     1     1     1   9.67E-3 9.67E-3 9.68E-3  9.68E-3 9.68E-3 9.68E-3 9.68E-3   0.0     0.0     0.0   
Energy        1     1     1   4.37E-2 4.38E-2 4.38E-2  4.38E-2 4.38E-2 4.38E-2 4.38E-2   0.0     0.0     0.0   
3c integr     0     0     1    0.0    4.45E-3 8.92E-3   0.0    4.45E-3 8.92E-3 8.92E-3   0.0     0.0     0.0   
First 2/3     0     1     3    0.0    6.37E-5 1.39E-4   0.0    6.42E-5 1.40E-4 4.67E-5   0.0     0.0     0.0   
Final 1/3     1     1     1   2.70E-4 2.71E-4 2.71E-4  2.71E-4 2.71E-4 2.71E-4 2.71E-4   0.0     0.0     0.0   
Write 3c      1     1     1   1.00E-6 3.65E-5 7.30E-5  7.20E-7 3.64E-5 7.28E-5 7.28E-5   0.0     0.0     0.0   
Read 3c i     1     1     1   2.00E-6 1.43E-5 2.70E-5  7.87E-7 1.37E-5 2.70E-5 2.70E-5   0.0     0.0     0.0   
Fitting b     1     1     1   1.21E-3 1.22E-3 1.22E-3  1.22E-3 1.22E-3 1.22E-3 1.22E-3   0.0     0.0     0.0   
Schwarz i     1     1     1   5.12E-3 5.17E-3 5.21E-3  5.19E-3 5.20E-3 5.21E-3 5.21E-3   0.0     0.0     0.0   
Form 4ci      1     1     1   2.01E-3 2.01E-3 2.01E-3  2.01E-3 2.01E-3 2.01E-3 2.01E-3   0.0     0.0     0.0   
Form A &      1     1     1   3.96E-2 3.97E-2 3.97E-2  3.97E-2 3.97E-2 3.97E-2 3.97E-2   0.0     0.0     0.0   
Denominat     1     1     1   6.50E-5 6.92E-5 7.30E-5  6.54E-5 7.00E-5 7.44E-5 7.44E-5   0.0     0.0     0.0   
Pair Ener     1     1     1   1.47E-3 1.47E-3 1.47E-3  1.47E-3 1.47E-3 1.47E-3 1.47E-3   0.0     0.0     0.0   

 The average no. of pstat calls per process was 1.30D+01
 with a timing overhead of 3.35D-06s


 Task  times  cpu:        0.5s     wall:        0.5s


                                NWChem Input Module
                                -------------------


                                 NWChem SCF Module
                                 -----------------


                         ne dimer test for 3c integral bug



  ao basis        = "ao basis"
  functions       =    70
  atoms           =     2
  closed shells   =    10
  open shells     =     0
  charge          =   0.00
  wavefunction    = RHF 
  input vectors   = atomic
  output vectors  = ./ne2.movecs
  use symmetry    = T
  symmetry adapt  = T


 Summary of "ao basis" -> "ao basis" (cartesian)
 ------------------------------------------------------------------------------
       Tag                 Description            Shells   Functions and Types
 ---------------- ------------------------------  ------  ---------------------
 Ne                         cc-pVTZ                 10       35   4s3p2d1f


      Symmetry analysis of basis
      --------------------------

        a1g        13
        a1u         0
        a2g         0
        a2u        13
        b1g         3
        b1u         3
        b2g         3
        b2u         3
        eg         16
        eu         16

  int_init: cando_txs set to always be  F

 Forming initial guess at       0.9s


      Superposition of Atomic Density Guess
      -------------------------------------

 Sum of atomic energies:        -257.06371022

      Non-variational initial energy
      ------------------------------

 Total energy =    -257.064183
 1-e energy   =    -404.395999
 2-e energy   =     127.732658
 HOMO         =      -0.833073
 LUMO         =       0.770571


      Symmetry analysis of molecular orbitals - initial
      -------------------------------------------------

  Numbering of irreducible representations: 

     1 a1g         2 a1u         3 a2g         4 a2u         5 b1g     
     6 b1u         7 b2g         8 b2u         9 eg         10 eu      

  Orbital symmetries:

     1 a1g         2 a2u         3 a1g         4 a2u         5 a1g     
     6 eu          7 eu          8 eg          9 eg         10 a2u     
    11 a1g        12 a2u        13 a1g        14 eu         15 eu      
    16 eg         17 eg         18 a2u        19 a1g        20 eu      


 Starting SCF solution at       0.9s



 ----------------------------------------------
         Quadratically convergent ROHF

 Convergence threshold     :          1.000E-06
 Maximum no. of iterations :           30
 Final Fock-matrix accuracy:          1.000E-08
 ----------------------------------------------


              iter       energy          gnorm     gmax       time
             ----- ------------------- --------- --------- --------
                 1     -257.0637756693  8.71D-03  3.24D-03      1.1
                 2     -257.0637786081  1.36D-05  4.39D-06      1.4
                 3     -257.0637786081  9.19D-09  2.41D-09      1.7


       Final RHF  results 
       ------------------ 

         Total SCF energy =   -257.063778608113
      One-electron energy =   -404.389605329481
      Two-electron energy =    127.726669351009
 Nuclear repulsion energy =     19.599157370359

        Time for solution =      0.7s



       Symmetry analysis of molecular orbitals - final
       -----------------------------------------------

  Numbering of irreducible representations: 

     1 a1g         2 a1u         3 a2g         4 a2u         5 b1g     
     6 b1u         7 b2g         8 b2u         9 eg         10 eu      

  Orbital symmetries:

     1 a2u         2 a1g         3 a1g         4 a2u         5 a1g     
     6 eu          7 eu          8 eg          9 eg         10 a2u     
    11 a1g        12 a2u        13 a1g        14 eu         15 eu      
    16 eg         17 eg         18 a2u        19 a1g        20 eu      

             Final eigenvalues
             -----------------

              1      
    1  -32.7697
    2  -32.7697
    3   -1.9285
    4   -1.9263
    5   -0.8549
    6   -0.8470
    7   -0.8470
    8   -0.8443
    9   -0.8443
   10   -0.8364
   11    0.7701
   12    0.9067
   13    0.9624
   14    0.9981
   15    0.9981
   16    1.0595
   17    1.0595
   18    1.2656
   19    2.8132
   20    2.8137

                       ROHF Final Molecular Orbital Analysis
                       -------------------------------------

 Vector    2  Occ=2.000000D+00  E=-3.276971D+01  Symmetry=a1g
              MO Center=  2.0D-37, -2.8D-37,  4.1D-16, r^2= 1.8D+00
   Bfn.  Coefficient  Atom+Function         Bfn.  Coefficient  Atom+Function  
  ----- ------------  ---------------      ----- ------------  ---------------
     1      0.686359  1 Ne s                 36      0.686359  2 Ne s          

 Vector    3  Occ=2.000000D+00  E=-1.928535D+00  Symmetry=a1g
              MO Center= -2.7D-37, -2.8D-37, -8.6D-17, r^2= 2.1D+00
   Bfn.  Coefficient  Atom+Function         Bfn.  Coefficient  Atom+Function  
  ----- ------------  ---------------      ----- ------------  ---------------
     2      0.413077  1 Ne s                 37      0.413077  2 Ne s          
     4      0.258482  1 Ne s                 39      0.258482  2 Ne s          

 Vector    4  Occ=2.000000D+00  E=-1.926287D+00  Symmetry=a2u
              MO Center=  3.2D-18, -7.3D-19,  2.1D-16, r^2= 2.1D+00
   Bfn.  Coefficient  Atom+Function         Bfn.  Coefficient  Atom+Function  
  ----- ------------  ---------------      ----- ------------  ---------------
     2      0.413268  1 Ne s                 37     -0.413268  2 Ne s          
     4      0.255459  1 Ne s                 39     -0.255459  2 Ne s          

 Vector    5  Occ=2.000000D+00  E=-8.548848D-01  Symmetry=a1g
              MO Center= -4.9D-36,  2.9D-36,  5.9D-17, r^2= 2.1D+00
   Bfn.  Coefficient  Atom+Function         Bfn.  Coefficient  Atom+Function  
  ----- ------------  ---------------      ----- ------------  ---------------
    10      0.334821  1 Ne pz                45     -0.334821  2 Ne pz         
     7      0.284078  1 Ne pz                42     -0.284078  2 Ne pz         
    13      0.236686  1 Ne pz                48     -0.236686  2 Ne pz         

 Vector    6  Occ=2.000000D+00  E=-8.469794D-01  Symmetry=eu
              MO Center=  4.0D-35, -5.0D-36,  3.6D-17, r^2= 2.2D+00
   Bfn.  Coefficient  Atom+Function         Bfn.  Coefficient  Atom+Function  
  ----- ------------  ---------------      ----- ------------  ---------------
     8      0.335144  1 Ne px                43      0.335144  2 Ne px         
     5      0.285111  1 Ne px                40      0.285111  2 Ne px         
    11      0.236286  1 Ne px                46      0.236286  2 Ne px         

 Vector    7  Occ=2.000000D+00  E=-8.469794D-01  Symmetry=eu
              MO Center=  9.0D-17,  2.3D-16, -5.1D-13, r^2= 2.2D+00
   Bfn.  Coefficient  Atom+Function         Bfn.  Coefficient  Atom+Function  
  ----- ------------  ---------------      ----- ------------  ---------------
     9      0.335144  1 Ne py                44      0.335144  2 Ne py         
     6      0.285111  1 Ne py                41      0.285111  2 Ne py         
    12      0.236286  1 Ne py                47      0.236286  2 Ne py         

 Vector    8  Occ=2.000000D+00  E=-8.443350D-01  Symmetry=eg
              MO Center= -6.2D-20, -2.8D-19,  5.0D-13, r^2= 2.2D+00
   Bfn.  Coefficient  Atom+Function         Bfn.  Coefficient  Atom+Function  
  ----- ------------  ---------------      ----- ------------  ---------------
     9      0.331848  1 Ne py                44     -0.331848  2 Ne py         
     6      0.280027  1 Ne py                41     -0.280027  2 Ne py         
    12      0.229772  1 Ne py                47     -0.229772  2 Ne py         

 Vector    9  Occ=2.000000D+00  E=-8.443350D-01  Symmetry=eg
              MO Center= -1.1D-16,  5.2D-17,  9.2D-15, r^2= 2.2D+00
   Bfn.  Coefficient  Atom+Function         Bfn.  Coefficient  Atom+Function  
  ----- ------------  ---------------      ----- ------------  ---------------
     8      0.331848  1 Ne px                43     -0.331848  2 Ne px         
     5      0.280027  1 Ne px                40     -0.280027  2 Ne px         
    11      0.229772  1 Ne px                46     -0.229772  2 Ne px         

 Vector   10  Occ=2.000000D+00  E=-8.363825D-01  Symmetry=a2u
              MO Center= -1.2D-17,  1.3D-17,  3.2D-16, r^2= 2.2D+00
   Bfn.  Coefficient  Atom+Function         Bfn.  Coefficient  Atom+Function  
  ----- ------------  ---------------      ----- ------------  ---------------
    10      0.343183  1 Ne pz                45      0.343183  2 Ne pz         
     7      0.289451  1 Ne pz                42      0.289451  2 Ne pz         
    13      0.235513  1 Ne pz                48      0.235513  2 Ne pz         

 Vector   11  Occ=0.000000D+00  E= 7.700787D-01  Symmetry=a1g
              MO Center= -5.2D-18, -4.6D-17, -3.3D-16, r^2= 1.5D+00
   Bfn.  Coefficient  Atom+Function         Bfn.  Coefficient  Atom+Function  
  ----- ------------  ---------------      ----- ------------  ---------------
     4      1.673917  1 Ne s                 39      1.673917  2 Ne s          
    20     -0.527168  1 Ne dxx               23     -0.527168  1 Ne dyy        
    55     -0.527168  2 Ne dxx               58     -0.527168  2 Ne dyy        
    25     -0.507836  1 Ne dzz               60     -0.507836  2 Ne dzz        
    10     -0.470750  1 Ne pz                45      0.470750  2 Ne pz         

 Vector   12  Occ=0.000000D+00  E= 9.067315D-01  Symmetry=a2u
              MO Center= -3.3D-18,  6.6D-19,  5.6D-16, r^2= 4.1D+00
   Bfn.  Coefficient  Atom+Function         Bfn.  Coefficient  Atom+Function  
  ----- ------------  ---------------      ----- ------------  ---------------
     4      1.893590  1 Ne s                 39     -1.893590  2 Ne s          
    25     -0.571761  1 Ne dzz               60      0.571761  2 Ne dzz        
    20     -0.568795  1 Ne dxx               23     -0.568795  1 Ne dyy        
    55      0.568795  2 Ne dxx               58      0.568795  2 Ne dyy        
     3     -0.500887  1 Ne s                 38      0.500887  2 Ne s          

 Vector   13  Occ=0.000000D+00  E= 9.624234D-01  Symmetry=a1g
              MO Center= -1.2D-17, -1.2D-16,  1.0D-16, r^2= 4.4D+00
   Bfn.  Coefficient  Atom+Function         Bfn.  Coefficient  Atom+Function  
  ----- ------------  ---------------      ----- ------------  ---------------
     4      1.134860  1 Ne s                 39      1.134860  2 Ne s          
    10      0.748443  1 Ne pz                45     -0.748443  2 Ne pz         
    13     -0.744005  1 Ne pz                48      0.744005  2 Ne pz         
    25     -0.349211  1 Ne dzz               60     -0.349211  2 Ne dzz        
    20     -0.336085  1 Ne dxx               23     -0.336085  1 Ne dyy        

 Vector   14  Occ=0.000000D+00  E= 9.981132D-01  Symmetry=eu
              MO Center=  6.9D-17, -6.8D-17,  1.7D-14, r^2= 3.0D+00
   Bfn.  Coefficient  Atom+Function         Bfn.  Coefficient  Atom+Function  
  ----- ------------  ---------------      ----- ------------  ---------------
    12     -0.849901  1 Ne py                47     -0.849901  2 Ne py         
     9      0.844740  1 Ne py                44      0.844740  2 Ne py         
    11      0.342793  1 Ne px                46      0.342793  2 Ne px         
     8     -0.340711  1 Ne px                43     -0.340711  2 Ne px         
    27     -0.191717  1 Ne fxxy              32     -0.191717  1 Ne fyyy       

 Vector   15  Occ=0.000000D+00  E= 9.981132D-01  Symmetry=eu
              MO Center= -1.2D-16, -1.2D-16,  1.8D-14, r^2= 3.0D+00
   Bfn.  Coefficient  Atom+Function         Bfn.  Coefficient  Atom+Function  
  ----- ------------  ---------------      ----- ------------  ---------------
    11     -0.849901  1 Ne px                46     -0.849901  2 Ne px         
     8      0.844740  1 Ne px                43      0.844740  2 Ne px         
    12     -0.342793  1 Ne py                47     -0.342793  2 Ne py         
     9      0.340711  1 Ne py                44      0.340711  2 Ne py         
    26     -0.191717  1 Ne fxxx              29     -0.191717  1 Ne fxyy       

 Vector   16  Occ=0.000000D+00  E= 1.059497D+00  Symmetry=eg
              MO Center= -2.3D-17,  1.8D-16, -8.3D-15, r^2= 3.1D+00
   Bfn.  Coefficient  Atom+Function         Bfn.  Coefficient  Atom+Function  
  ----- ------------  ---------------      ----- ------------  ---------------
    12     -0.927543  1 Ne py                47      0.927543  2 Ne py         
     9      0.894063  1 Ne py                44     -0.894063  2 Ne py         
    27     -0.199068  1 Ne fxxy              32     -0.199068  1 Ne fyyy       
    34     -0.198622  1 Ne fyzz              62      0.199068  2 Ne fxxy       
    67      0.199068  2 Ne fyyy              69      0.198622  2 Ne fyzz       

 Vector   17  Occ=0.000000D+00  E= 1.059497D+00  Symmetry=eg
              MO Center=  1.2D-18, -1.3D-19, -2.6D-14, r^2= 3.1D+00
   Bfn.  Coefficient  Atom+Function         Bfn.  Coefficient  Atom+Function  
  ----- ------------  ---------------      ----- ------------  ---------------
    11     -0.927543  1 Ne px                46      0.927543  2 Ne px         
     8      0.894063  1 Ne px                43     -0.894063  2 Ne px         
    26     -0.199068  1 Ne fxxx              29     -0.199068  1 Ne fxyy       
    31     -0.198622  1 Ne fxzz              61      0.199068  2 Ne fxxx       
    64      0.199068  2 Ne fxyy              66      0.198622  2 Ne fxzz       

 Vector   18  Occ=0.000000D+00  E= 1.265583D+00  Symmetry=a2u
              MO Center= -3.3D-17, -1.8D-16, -3.8D-16, r^2= 2.3D+00
   Bfn.  Coefficient  Atom+Function         Bfn.  Coefficient  Atom+Function  
  ----- ------------  ---------------      ----- ------------  ---------------
    13      0.940985  1 Ne pz                48      0.940985  2 Ne pz         
     4      0.833304  1 Ne s                 39     -0.833304  2 Ne s          
    10     -0.822674  1 Ne pz                45     -0.822674  2 Ne pz         
    25     -0.253847  1 Ne dzz               60      0.253847  2 Ne dzz        
     3     -0.212874  1 Ne s                 38      0.212874  2 Ne s          

 Vector   19  Occ=0.000000D+00  E= 2.813215D+00  Symmetry=a1g
              MO Center= -1.4D-17, -9.9D-17, -5.0D-17, r^2= 2.3D+00
   Bfn.  Coefficient  Atom+Function         Bfn.  Coefficient  Atom+Function  
  ----- ------------  ---------------      ----- ------------  ---------------
    25      0.689565  1 Ne dzz               60      0.689565  2 Ne dzz        
    20     -0.373868  1 Ne dxx               23     -0.373868  1 Ne dyy        
    55     -0.373868  2 Ne dxx               58     -0.373868  2 Ne dyy        

 Vector   20  Occ=0.000000D+00  E= 2.813671D+00  Symmetry=eu
              MO Center=  8.3D-20,  1.0D-19,  9.1D-17, r^2= 2.3D+00
   Bfn.  Coefficient  Atom+Function         Bfn.  Coefficient  Atom+Function  
  ----- ------------  ---------------      ----- ------------  ---------------
    24      0.952227  1 Ne dyz               59     -0.952227  2 Ne dyz        
    22      0.777083  1 Ne dxz               57     -0.777083  2 Ne dxz        


 center of mass
 --------------
 x =   0.00000000 y =   0.00000000 z =   0.00000000

 moments of inertia (a.u.)
 ------------------
         260.232183376187           0.000000000000           0.000000000000
           0.000000000000         260.232183376187           0.000000000000
           0.000000000000           0.000000000000           0.000000000000

  Mulliken analysis of the total density
  --------------------------------------

    Atom       Charge   Shell Charges
 -----------   ------   -------------------------------------------------------
    1 Ne  10    10.00   1.94  1.11  0.29  0.65  1.84  2.69  1.44  0.01  0.01  0.02
    2 Ne  10    10.00   1.94  1.11  0.29  0.65  1.84  2.69  1.44  0.01  0.01  0.02

       Multipole analysis of the density wrt the origin
       ------------------------------------------------

     L   x y z        total         open         nuclear
     -   - - -        -----         ----         -------
     0   0 0 0     -0.000000      0.000000     20.000000

     1   1 0 0      0.000000      0.000000      0.000000
     1   0 1 0     -0.000000      0.000000      0.000000
     1   0 0 1      0.000000      0.000000      0.000000

     2   2 0 0     -6.181818      0.000000      0.000000
     2   1 1 0     -0.000000      0.000000      0.000000
     2   1 0 1     -0.000000      0.000000      0.000000
     2   0 2 0     -6.181818      0.000000      0.000000
     2   0 1 1     -0.000000      0.000000      0.000000
     2   0 0 2     -6.177896      0.000000    130.165294


 Task  times  cpu:        0.8s     wall:        0.8s


                                NWChem Input Module
                                -------------------


                                 NWChem SCF Module
                                 -----------------


                         ne dimer test for 3c integral bug



  ao basis        = "ao basis"
  functions       =    70
  atoms           =     2
  closed shells   =    10
  open shells     =     0
  charge          =   0.00
  wavefunction    = RHF 
  input vectors   = ./ne2.movecs
  output vectors  = ./ne2.movecs
  use symmetry    = T
  symmetry adapt  = T


 Summary of "ao basis" -> "ao basis" (cartesian)
 ------------------------------------------------------------------------------
       Tag                 Description            Shells   Functions and Types
 ---------------- ------------------------------  ------  ---------------------
 Ne                         cc-pVTZ                 10       35   4s3p2d1f


      Symmetry analysis of basis
      --------------------------

        a1g        13
        a1u         0
        a2g         0
        a2u        13
        b1g         3
        b1u         3
        b2g         3
        b2u         3
        eg         16
        eu         16


  The SCF is already converged 

         Total SCF energy =   -257.063778608113

                               NWChem RI-MP2 Module
                               --------------------
                         ne dimer test for 3c integral bug



 SCF Reference Information:
            File: './ne2.movecs'
           Title: 'ne dimer test for 3c integral bug'
    Size (AOxMO):     70 x     70
       Total Occ:              20.00
 RI-MP2 Calculation Information:
          Nr. of AO basis functions:         70
     Nr. of fitting basis functions:         30
               Nr. of MO spin cases:          1
        Nr. of MOs to be correlated:         70
     Nr. of occupied MOs correlated:         10
      Nr. of virtual MOs correlated:         60

          RI integral approximation: 'V'
    Threshold for Schwarz screening:  1.000E-09
 Smallest eigenvalue retained in fit  1.000E-08
     Base file name for MO integrals 'mo3cint'
    Type of storage for MO integrals 'EAF library'

  int_init: cando_txs set to always be  F
 Transformation block size   10, requiring     1 integral passes.
 XForm_3cInts: Completed     1:   10 pass.             @Sun Jun 30 05:39:49 2019
 Energy evaluation using block sizes    10   10
 RIMP2_V_E2: Approx. ints. done (    1:   10,    1:   10) @Sun Jun 30 05:39:49 2019
 RIMP2_V_E2: Copy to B done (    1:   10,    1:   10)  @Sun Jun 30 05:39:49 2019
 RIMP2_V_E2: Denominators done (    1:   10,    1:   10) @Sun Jun 30 05:39:49 2019
 RIMP2_V_E2: Completed block (    1:   10,    1:   10) @Sun Jun 30 05:39:49 2019


          -------------------------------------------
          SCF energy                -257.063778608113
          Correlation energy          -0.597783718029
          Total MP2 energy          -257.661562326143
          -------------------------------------------

 -----------------------
 Performance information
 -----------------------

 Timer overhead =  4.27D-07 seconds/call

               Nr. of calls         CPU time (s)                 Wall time (s)                GFlops
             ---------------    -------------------     ------------------------------   -------------------
Name         Min   Avg   Max    Min     Avg     Max     Min     Avg     Max   Mx/calls   Min     Max     Sum
Overall       1     1     1   6.39E-2 6.69E-2 6.79E-2  6.79E-2 6.79E-2 6.79E-2 6.79E-2   0.0     0.0     0.0   
3c integr     1     1     1   9.27E-3 9.30E-3 9.31E-3  9.31E-3 9.31E-3 9.31E-3 9.31E-3   0.0     0.0     0.0   
Energy        1     1     1   4.37E-2 4.37E-2 4.37E-2  4.37E-2 4.37E-2 4.37E-2 4.37E-2   0.0     0.0     0.0   
3c integr     0     0     1    0.0    4.32E-3 8.65E-3   0.0    4.33E-3 8.65E-3 8.65E-3   0.0     0.0     0.0   
First 2/3     0     1     3    0.0    4.87E-5 9.80E-5   0.0    4.99E-5 1.01E-4 3.38E-5   0.0     0.0     0.0   
Final 1/3     1     1     1   2.17E-4 2.23E-4 2.25E-4  2.24E-4 2.24E-4 2.25E-4 2.25E-4   0.0     0.0     0.0   
Write 3c      1     1     1   1.00E-6 3.65E-5 7.30E-5  7.98E-7 3.73E-5 7.41E-5 7.41E-5   0.0     0.0     0.0   
Read 3c i     1     1     1   1.00E-6 1.45E-5 2.90E-5  7.52E-7 1.41E-5 2.78E-5 2.78E-5   0.0     0.0     0.0   
Fitting b     1     1     1   1.14E-3 1.17E-3 1.18E-3  1.18E-3 1.18E-3 1.18E-3 1.18E-3   0.0     0.0     0.0   
Schwarz i     1     1     1   8.36E-3 8.37E-3 8.38E-3  8.36E-3 8.37E-3 8.38E-3 8.38E-3   0.0     0.0     0.0   
Form 4ci      1     1     1   1.85E-3 1.86E-3 1.86E-3  1.86E-3 1.86E-3 1.86E-3 1.86E-3   0.0     0.0     0.0   
Form A &      1     1     1   3.97E-2 3.97E-2 3.97E-2  3.97E-2 3.97E-2 3.97E-2 3.97E-2   0.0     0.0     0.0   
Denominat     1     1     1   1.50E-4 1.65E-4 1.72E-4  1.51E-4 1.66E-4 1.73E-4 1.73E-4   0.0     0.0     0.0   
Pair Ener     1     1     1   1.48E-3 1.48E-3 1.48E-3  1.48E-3 1.48E-3 1.48E-3 1.48E-3   0.0     0.0     0.0   

 The average no. of pstat calls per process was 1.30D+01
 with a timing overhead of 5.55D-06s


 Task  times  cpu:        0.1s     wall:        0.1s


                                NWChem Input Module
                                -------------------


 Summary of allocated global arrays
-----------------------------------
  No active global arrays



                         GA Statistics for process    0
                         ------------------------------

       create   destroy   get      put      acc     scatter   gather  read&inc
calls:  708      708     1.14e+04 4836     3133       30        0     1529     
number of processes/call 1.66e+00 1.26e+00 1.32e+00 0.00e+00 0.00e+00
bytes total:             2.86e+07 6.44e+06 1.88e+07 2.88e+04 0.00e+00 1.22e+04
bytes remote:            1.30e+07 2.15e+06 9.76e+06 0.00e+00 0.00e+00 0.00e+00
Max memory consumed for GA by this process: 1512200 bytes

MA_summarize_allocated_blocks: starting scan ...
MA_summarize_allocated_blocks: scan completed: 0 heap blocks, 0 stack blocks
MA usage statistics:

	allocation statistics:
					      heap	     stack
					      ----	     -----
	current number of blocks	         0	         0
	maximum number of blocks	        24	        14
	current total bytes		         0	         0
	maximum total bytes		     80120	  22510712
	maximum total K-bytes		        81	     22511
	maximum total M-bytes		         1	        23


                                     CITATION
                                     --------
                Please cite the following reference when publishing
                           results obtained with NWChem:

                 M. Valiev, E.J. Bylaska, N. Govind, K. Kowalski,
              T.P. Straatsma, H.J.J. van Dam, D. Wang, J. Nieplocha,
                        E. Apra, T.L. Windus, W.A. de Jong
                 "NWChem: a comprehensive and scalable open-source
                  solution for large scale molecular simulations"
                      Comput. Phys. Commun. 181, 1477 (2010)
                           doi:10.1016/j.cpc.2010.04.018

                                      AUTHORS
                                      -------
          E. Apra, E. J. Bylaska, W. A. de Jong, N. Govind, K. Kowalski,
       T. P. Straatsma, M. Valiev, H. J. J. van Dam, D. Wang, T. L. Windus,
        J. Hammond, J. Autschbach, K. Bhaskaran-Nair, J. Brabec, K. Lopata,
    S. A. Fischer, S. Krishnamoorthy, M. Jacquelin, W. Ma, M. Klemm, O. Villa,
      Y. Chen, V. Anisimov, F. Aquino, S. Hirata, M. T. Hackler, V. Konjkov,
            D. Mejia-Rodriguez, T. Risthaus, M. Malagoli, A. Marenich,
   A. Otero-de-la-Roza, J. Mullin, P. Nichols, R. Peverati, J. Pittner, Y. Zhao,
        P.-D. Fan, A. Fonari, M. J. Williamson, R. J. Harrison, J. R. Rehr,
      M. Dupuis, D. Silverstein, D. M. A. Smith, J. Nieplocha, V. Tipparaju,
    M. Krishnan, B. E. Van Kuiken, A. Vazquez-Mayagoitia, L. Jensen, M. Swart,
      Q. Wu, T. Van Voorhis, A. A. Auer, M. Nooijen, L. D. Crosby, E. Brown,
      G. Cisneros, G. I. Fann, H. Fruchtl, J. Garza, K. Hirao, R. A. Kendall,
      J. A. Nichols, K. Tsemekhman, K. Wolinski, J. Anchell, D. E. Bernholdt,
      P. Borowski, T. Clark, D. Clerc, H. Dachsel, M. J. O. Deegan, K. Dyall,
    D. Elwood, E. Glendening, M. Gutowski, A. C. Hess, J. Jaffe, B. G. Johnson,
     J. Ju, R. Kobayashi, R. Kutteh, Z. Lin, R. Littlefield, X. Long, B. Meng,
      T. Nakajima, S. Niu, L. Pollack, M. Rosing, K. Glaesemann, G. Sandrone,
      M. Stave, H. Taylor, G. Thomas, J. H. van Lenthe, A. T. Wong, Z. Zhang.

 Total times  cpu:        1.7s     wall:        1.7s
