 argument  1 = /home/list1234/source/nwchem-6.8.1-release/QA/tests/scf_feco5/scf_feco5.nw



============================== echo of input deck ==============================
echo

start scf_feco5

# Sequential test of semi-direct SCF ... to run in parallel it is
# necessary to reduce the file sizes below by a factor of NPROC.

#fe(co)5  SCF total energy -1816.677508 ... should vary by 1 or 2 in last D.P.

# There is a total of 2 million integrals

geometry units au
  symmetry group d3h

  fe 0.0 0.0 0.0

  c 0.0 0.0 3.414358
  o 0.0 0.0 5.591323

  c 2.4417087 2.4417087 0.0
  o 3.9810552 3.9810552 0.0
end

basis noprint
  fe library 3-21g
  o  library 3-21g
  c  library 3-21g
end

title "case s2: fe(co)5  --- Default SCF ... usually disk resident"
task scf

title "case s3a: fe(co)5 --- Semi-direct SCF ... 75% caching"
scf; vectors atomic; semidirect memsize 0 filesize 300000; end
task scf

title "case s3b: fe(co)5 --- Semi-direct SCF ... 50% caching"
scf; vectors atomic; semidirect memsize 0 filesize 200000; end
task scf

#title "case s3c: fe(co)5 --- Semi-direct SCF ... 25% caching"
#scf; vectors atomic; semidirect memsize 0 filesize 100000; end
#task scf

title "case s4: fe(co)5 --- Fully-direct SCF"
scf; vectors atomic; direct; end
task scf





================================================================================


                                         
                                         


              Northwest Computational Chemistry Package (NWChem) 6.8
              ------------------------------------------------------


                    Environmental Molecular Sciences Laboratory
                       Pacific Northwest National Laboratory
                                Richland, WA 99352

                              Copyright (c) 1994-2018
                       Pacific Northwest National Laboratory
                            Battelle Memorial Institute

             NWChem is an open-source computational chemistry package
                        distributed under the terms of the
                      Educational Community License (ECL) 2.0
             A copy of the license is included with this distribution
                              in the LICENSE.TXT file

                                  ACKNOWLEDGMENT
                                  --------------

            This software and its documentation were developed at the
            EMSL at Pacific Northwest National Laboratory, a multiprogram
            national laboratory, operated for the U.S. Department of Energy
            by Battelle under Contract Number DE-AC05-76RL01830. Support
            for this work was provided by the Department of Energy Office
            of Biological and Environmental Research, Office of Basic
            Energy Sciences, and the Office of Advanced Scientific Computing.


           Job information
           ---------------

    hostname        = list1234-B360M-H
    program         = /home/list1234/source/nwchem-6.8.1-release/bin/LINUX64/nwchem
    date            = Sun Jun 30 05:39:51 2019

    compiled        = Sun_Jun_30_05:21:11_2019
    source          = /home/list1234/source/nwchem-6.8.1-release
    nwchem branch   = Development
    nwchem revision = N/A
    ga revision     = 5.6.5
    use scalapack   = T
    input           = /home/list1234/source/nwchem-6.8.1-release/QA/tests/scf_feco5/scf_feco5.nw
    prefix          = scf_feco5.
    data base       = ./scf_feco5.db
    status          = startup
    nproc           =        4
    time left       =     -1s



           Memory information
           ------------------

    heap     =   86247166 doubles =    658.0 Mbytes
    stack    =   86247163 doubles =    658.0 Mbytes
    global   =  172494336 doubles =   1316.0 Mbytes (distinct from heap & stack)
    total    =  344988665 doubles =   2632.1 Mbytes
    verify   = yes
    hardfail = no 


           Directory information
           ---------------------

  0 permanent = .
  0 scratch   = .




                                NWChem Input Module
                                -------------------


 Turning off AUTOSYM since
 SYMMETRY directive was detected!


          ------
          auto-z
          ------
  Looking for out-of-plane bends
  no constraints, skipping    0.0000000000000000     
  no constraints, skipping    0.0000000000000000     


                             Geometry "geometry" -> ""
                             -------------------------

 Output coordinates in a.u. (scale by  1.000000000 to convert to a.u.)

  No.       Tag          Charge          X              Y              Z
 ---- ---------------- ---------- -------------- -------------- --------------
    1 fe                  26.0000     0.00000000     0.00000000     0.00000000
    2 c                    6.0000    -0.00000000    -0.00000000     3.41435800
    3 c                    6.0000     0.00000000    -0.00000000    -3.41435800
    4 o                    8.0000    -0.00000000    -0.00000000     5.59132300
    5 o                    8.0000     0.00000000    -0.00000000    -5.59132300
    6 c                    6.0000     2.44170870     2.44170870     0.00000000
    7 c                    6.0000    -3.33543611     0.89372741     0.00000000
    8 c                    6.0000     0.89372741    -3.33543611     0.00000000
    9 o                    8.0000     3.98105520     3.98105520     0.00000000
   10 o                    8.0000    -5.43822254     1.45716734     0.00000000
   11 o                    8.0000     1.45716734    -5.43822254     0.00000000

      Atomic Mass 
      ----------- 

      fe                55.934900
      c                 12.000000
      o                 15.994910


 Effective nuclear repulsion energy (a.u.)     798.4956180942

            Nuclear Dipole moment (a.u.) 
            ----------------------------
        X                 Y               Z
 ---------------- ---------------- ----------------
    -0.0000000000    -0.0000000000     0.0000000000

      Symmetry information
      --------------------

 Group name             D3h       
 Group number             27
 Group order              12
 No. of unique centers     5

      Symmetry unique atoms

     1    2    4    6    9



                                Z-matrix (autoz)
                                -------- 

 Units are Angstrom for bonds and degrees for angles

      Type          Name      I     J     K     L     M      Value
      ----------- --------  ----- ----- ----- ----- ----- ----------
    1 Stretch                  1     2                       1.80680
    2 Stretch                  1     3                       1.80680
    3 Stretch                  1     6                       1.82730
    4 Stretch                  1     7                       1.82730
    5 Stretch                  1     8                       1.82730
    6 Stretch                  2     4                       1.15200
    7 Stretch                  3     5                       1.15200
    8 Stretch                  6     9                       1.15200
    9 Stretch                  7    10                       1.15200
   10 Stretch                  8    11                       1.15200
   11 Bend                     2     1     6                90.00000
   12 Bend                     2     1     7                90.00000
   13 Bend                     2     1     8                90.00000
   14 Bend                     3     1     6                90.00000
   15 Bend                     3     1     7                90.00000
   16 Bend                     3     1     8                90.00000
   17 Bend                     4     1     6                90.00000
   18 Bend                     4     1     7                90.00000
   19 Bend                     4     1     8                90.00000
   20 Bend                     5     1     6                90.00000
   21 Bend                     5     1     7                90.00000
   22 Bend                     5     1     8                90.00000
   23 Bend                     6     1     7               120.00000
   24 Bend                     6     1     8               120.00000
   25 Bend                     7     1     8               120.00000
   26 Bend                     9     1     2                90.00000
   27 Bend                     9     1     3                90.00000
   28 Bend                     9     1     7               120.00000
   29 Bend                     9     1     8               120.00000
   30 Bend                    10     1     2                90.00000
   31 Bend                    10     1     3                90.00000
   32 Bend                    10     1     6               120.00000
   33 Bend                    10     1     8               120.00000
   34 Bend                    11     1     2                90.00000
   35 Bend                    11     1     3                90.00000
   36 Bend                    11     1     6               120.00000
   37 Bend                    11     1     7               120.00000
   38 Torsion                  1     2     6     9         180.00000
   39 Torsion                  1     2     7    10         180.00000
   40 Torsion                  1     2     8    11        -180.00000
   41 Torsion                  1     3     6     9        -180.00000
   42 Torsion                  1     3     7    10        -180.00000
   43 Torsion                  1     3     8    11         180.00000
   44 Torsion                  1     6     2     4         180.00000
   45 Torsion                  1     6     3     5        -180.00000
   46 Torsion                  1     6     7    10         180.00000
   47 Torsion                  1     6     8    11         180.00000
   48 Torsion                  1     7     2     4        -180.00000
   49 Torsion                  1     7     3     5         180.00000
   50 Torsion                  1     7     6     9         180.00000
   51 Torsion                  1     7     8    11         180.00000
   52 Torsion                  1     8     2     4         180.00000
   53 Torsion                  1     8     3     5        -180.00000
   54 Torsion                  1     8     6     9         180.00000
   55 Torsion                  1     8     7    10         180.00000


            XYZ format geometry
            -------------------
    11
 geometry
 fe                    0.00000000     0.00000000     0.00000000
 c                    -0.00000000    -0.00000000     1.80680057
 c                     0.00000000    -0.00000000    -1.80680057
 o                    -0.00000000    -0.00000000     2.95880092
 o                     0.00000000    -0.00000000    -2.95880092
 c                     1.29209669     1.29209669     0.00000000
 c                    -1.76503691     0.47294021     0.00000000
 c                     0.47294021    -1.76503691     0.00000000
 o                     2.10668384     2.10668384     0.00000000
 o                    -2.87778364     0.77109980     0.00000000
 o                     0.77109980    -2.87778364     0.00000000

 ==============================================================================
                                internuclear distances
 ------------------------------------------------------------------------------
       center one      |      center two      | atomic units |       a.u.
 ------------------------------------------------------------------------------
    2 c                |   1 fe               |     3.41436  |     3.41436
    3 c                |   1 fe               |     3.41436  |     3.41436
    4 o                |   2 c                |     2.17697  |     2.17697
    5 o                |   3 c                |     2.17697  |     2.17697
    6 c                |   1 fe               |     3.45310  |     3.45310
    7 c                |   1 fe               |     3.45310  |     3.45310
    8 c                |   1 fe               |     3.45310  |     3.45310
    9 o                |   6 c                |     2.17696  |     2.17696
   10 o                |   7 c                |     2.17696  |     2.17696
   11 o                |   8 c                |     2.17696  |     2.17696
 ------------------------------------------------------------------------------
                         number of included internuclear distances:         10
 ==============================================================================



 ==============================================================================
                                 internuclear angles
 ------------------------------------------------------------------------------
        center 1       |       center 2       |       center 3       |  degrees
 ------------------------------------------------------------------------------
    2 c                |   1 fe               |   3 c                |   180.00
    2 c                |   1 fe               |   6 c                |    90.00
    2 c                |   1 fe               |   7 c                |    90.00
    2 c                |   1 fe               |   8 c                |    90.00
    3 c                |   1 fe               |   6 c                |    90.00
    3 c                |   1 fe               |   7 c                |    90.00
    3 c                |   1 fe               |   8 c                |    90.00
    6 c                |   1 fe               |   7 c                |   120.00
    6 c                |   1 fe               |   8 c                |   120.00
    7 c                |   1 fe               |   8 c                |   120.00
    1 fe               |   2 c                |   4 o                |   180.00
    1 fe               |   3 c                |   5 o                |   180.00
    1 fe               |   6 c                |   9 o                |   180.00
    1 fe               |   7 c                |  10 o                |   180.00
    1 fe               |   8 c                |  11 o                |   180.00
 ------------------------------------------------------------------------------
                            number of included internuclear angles:         15
 ==============================================================================



            case s2: fe(co)5  --- Default SCF ... usually disk resident
            -----------------------------------------------------------
                                 NWChem SCF Module
                                 -----------------


            case s2: fe(co)5  --- Default SCF ... usually disk resident



  ao basis        = "ao basis"
  functions       =   119
  atoms           =    11
  closed shells   =    48
  open shells     =     0
  charge          =   0.00
  wavefunction    = RHF 
  input vectors   = atomic
  output vectors  = ./scf_feco5.movecs
  use symmetry    = T
  symmetry adapt  = T


 Summary of "ao basis" -> "ao basis" (cartesian)
 ------------------------------------------------------------------------------
       Tag                 Description            Shells   Functions and Types
 ---------------- ------------------------------  ------  ---------------------
 fe                          3-21g                  11       29   5s4p2d
 o                           3-21g                   5        9   3s2p
 c                           3-21g                   5        9   3s2p


      Symmetry analysis of basis
      --------------------------

        a1'        29
        a1"         0
        a2'         4
        a2"        18
        e'         48
        e"         20


 Forming initial guess at       0.1s


      Superposition of Atomic Density Guess
      -------------------------------------

 Sum of atomic energies:       -1815.24436401

      Non-variational initial energy
      ------------------------------

 Total energy =   -1818.607107
 1-e energy   =   -4094.538473
 2-e energy   =    1477.435748
 HOMO         =      -0.233831
 LUMO         =      -0.015290


      Symmetry analysis of molecular orbitals - initial
      -------------------------------------------------

  Numbering of irreducible representations: 

     1 a1'         2 a1"         3 a2'         4 a2"         5 e'      
     6 e"      

  Orbital symmetries:

     1 a1'         2 a1'         3 a2"         4 e'          5 e'      
     6 a1'         7 a1'         8 a2"         9 e'         10 e'      
    11 a1'        12 a2"        13 a1'        14 e'         15 e'      
    16 a1'        17 a2"        18 e'         19 e'         20 a1'     
    21 a2"        22 e'         23 e'         24 a1'        25 a1'     
    26 a2"        27 e'         28 e'         29 a1'        30 a1'     
    31 e"         32 e"         33 a2"        34 e'         35 e'      
    36 e'         37 e'         38 a2'        39 e"         40 e"      
    41 a1'        42 e'         43 e'         44 a2"        45 e"      
    46 e"         47 e'         48 e'         49 a1'        50 e"      
    51 e"         52 e'         53 e'         54 a2"        55 a2'     
    56 e'         57 e'         58 a1'     


 Starting SCF solution at       0.3s



 ----------------------------------------------
         Quadratically convergent ROHF

 Convergence threshold     :          1.000E-04
 Maximum no. of iterations :           30
 Final Fock-matrix accuracy:          1.000E-07
 ----------------------------------------------


              iter       energy          gnorm     gmax       time
             ----- ------------------- --------- --------- --------
                 1    -1816.3884257343  1.87D+00  5.01D-01      0.6
                 2    -1816.6015391276  7.93D-01  2.38D-01      1.2
                 3    -1816.6471661922  5.87D-01  2.10D-01      1.4
                 4    -1816.6610413484  3.06D-01  6.91D-02      2.2
                 5    -1816.6770931966  7.76D-02  3.82D-02      3.7
                 6    -1816.6775027543  4.06D-03  1.50D-03      4.7
                 7    -1816.6775061803  2.04D-05  7.53D-06      6.9


       Final RHF  results 
       ------------------ 

         Total SCF energy =  -1816.677506180290
      One-electron energy =  -4092.290745419317
      Two-electron energy =   1477.117621144838
 Nuclear repulsion energy =    798.495618094190

        Time for solution =      6.6s



       Symmetry analysis of molecular orbitals - final
       -----------------------------------------------

  Numbering of irreducible representations: 

     1 a1'         2 a1"         3 a2'         4 a2"         5 e'      
     6 e"      

  Orbital symmetries:

     1 a1'         2 a1'         3 a2"         4 e'          5 e'      
     6 a1'         7 a2"         8 a1'         9 e'         10 e'      
    11 a2"        12 a1'        13 a1'        14 e'         15 e'      
    16 a1'        17 a2"        18 e'         19 e'         20 a1'     
    21 a2"        22 a1'        23 e'         24 e'         25 a1'     
    26 a2"        27 e'         28 e'         29 a1'        30 a1'     
    31 e"         32 e"         33 a2"        34 e'         35 e'      
    36 e'         37 e'         38 a2'        39 e"         40 e"      
    41 e'         42 e'         43 a1'        44 a2"        45 e"      
    46 e"         47 e'         48 e'         49 e"         50 e"      
    51 a1'        52 a2"        53 e'         54 e'         55 a2'     
    56 e'         57 e'         58 a2"     

             Final eigenvalues
             -----------------

              1      
    1 -259.8147
    2  -31.8753
    3  -27.3166
    4  -27.3115
    5  -27.3115
    6  -20.6092
    7  -20.6087
    8  -20.5806
    9  -20.5801
   10  -20.5801
   11  -11.3717
   12  -11.3710
   13  -11.3538
   14  -11.3529
   15  -11.3529
   16   -4.1718
   17   -2.7392
   18   -2.7276
   19   -2.7276
   20   -1.5608
   21   -1.5603
   22   -1.5360
   23   -1.5350
   24   -1.5350
   25   -0.8706
   26   -0.8228
   27   -0.8008
   28   -0.8008
   29   -0.7991
   30   -0.7302
   31   -0.6834
   32   -0.6834
   33   -0.6770
   34   -0.6765
   35   -0.6765
   36   -0.6546
   37   -0.6546
   38   -0.6418
   39   -0.6322
   40   -0.6322
   41   -0.6288
   42   -0.6288
   43   -0.6193
   44   -0.6050
   45   -0.4815
   46   -0.4815
   47   -0.3311
   48   -0.3311
   49    0.0763
   50    0.0763
   51    0.0986
   52    0.1049
   53    0.1093
   54    0.1093
   55    0.1213
   56    0.1242
   57    0.1242
   58    0.1382

                       ROHF Final Molecular Orbital Analysis
                       -------------------------------------

 Vector   25  Occ=2.000000D+00  E=-8.706157D-01  Symmetry=a1'
              MO Center=  8.4D-16, -8.8D-16, -1.7D-16, r^2= 5.1D+00
   Bfn.  Coefficient  Atom+Function         Bfn.  Coefficient  Atom+Function  
  ----- ------------  ---------------      ----- ------------  ---------------
    35      0.302350   2 C  s                44      0.302350   3 C  s         
     6     -0.211001   1 Fe s                53     -0.208842   4 O  s         
    62     -0.208842   5 O  s                71      0.206866   6 C  s         
    80      0.206866   7 C  s                89      0.206866   8 C  s         

 Vector   26  Occ=2.000000D+00  E=-8.227907D-01  Symmetry=a2"
              MO Center= -1.8D-17, -7.0D-18, -3.3D-16, r^2= 8.4D+00
   Bfn.  Coefficient  Atom+Function         Bfn.  Coefficient  Atom+Function  
  ----- ------------  ---------------      ----- ------------  ---------------
    35      0.357602   2 C  s                44     -0.357602   3 C  s         
    53     -0.332293   4 O  s                62      0.332293   5 O  s         
    52     -0.244330   4 O  pz               61     -0.244330   5 O  pz        
    56     -0.216738   4 O  pz               65     -0.216738   5 O  pz        

 Vector   27  Occ=2.000000D+00  E=-8.007898D-01  Symmetry=e'
              MO Center= -1.3D+00,  3.0D-02,  6.5D-18, r^2= 6.6D+00
   Bfn.  Coefficient  Atom+Function         Bfn.  Coefficient  Atom+Function  
  ----- ------------  ---------------      ----- ------------  ---------------
    80      0.371464   7 C  s               107     -0.369499  10 O  s         
   104      0.264811  10 O  px              108      0.241798  10 O  px        
    89     -0.224412   8 C  s               116      0.223225  11 O  s         
    76      0.164024   7 C  s               114     -0.160124  11 O  py        

 Vector   28  Occ=2.000000D+00  E=-8.007898D-01  Symmetry=e'
              MO Center=  1.3D+00, -3.0D-02, -1.8D-18, r^2= 6.6D+00
   Bfn.  Coefficient  Atom+Function         Bfn.  Coefficient  Atom+Function  
  ----- ------------  ---------------      ----- ------------  ---------------
    71      0.344029   6 C  s                98     -0.342209   9 O  s         
    89     -0.299365   8 C  s               116      0.297782  11 O  s         
   114     -0.213276  11 O  py              118     -0.195503  11 O  py        
    95     -0.179734   9 O  px               96     -0.179310   9 O  py        
   100     -0.164991   9 O  py               99     -0.163028   9 O  px        

 Vector   29  Occ=2.000000D+00  E=-7.991256D-01  Symmetry=a1'
              MO Center= -3.5D-16,  6.2D-16,  9.2D-16, r^2= 9.0D+00
   Bfn.  Coefficient  Atom+Function         Bfn.  Coefficient  Atom+Function  
  ----- ------------  ---------------      ----- ------------  ---------------
    53      0.210121   4 O  s                62      0.210121   5 O  s         
    52      0.195828   4 O  pz               61     -0.195828   5 O  pz        
    71      0.195233   6 C  s                80      0.195233   7 C  s         
    89      0.195233   8 C  s                56      0.184962   4 O  pz        
    65     -0.184962   5 O  pz               98     -0.178897   9 O  s         

 Vector   30  Occ=2.000000D+00  E=-7.302359D-01  Symmetry=a1'
              MO Center=  3.1D-16, -1.1D-16, -8.3D-17, r^2= 7.7D+00
   Bfn.  Coefficient  Atom+Function         Bfn.  Coefficient  Atom+Function  
  ----- ------------  ---------------      ----- ------------  ---------------
    34      0.202702   2 C  pz               43     -0.202702   3 C  pz        
    52     -0.195103   4 O  pz               61      0.195103   5 O  pz        
    56     -0.179477   4 O  pz               65      0.179477   5 O  pz        
   104      0.164057  10 O  px              114      0.164057  11 O  py        
     6      0.152769   1 Fe s               108      0.152329  10 O  px        

 Vector   31  Occ=2.000000D+00  E=-6.833727D-01  Symmetry=e"
              MO Center=  2.4D-01, -1.0D-02,  4.8D-17, r^2= 6.7D+00
   Bfn.  Coefficient  Atom+Function         Bfn.  Coefficient  Atom+Function  
  ----- ------------  ---------------      ----- ------------  ---------------
    28      0.248497   1 Fe dyz              22      0.242870   1 Fe dyz       
    55      0.236541   4 O  py               64     -0.236541   5 O  py        
    51      0.231457   4 O  py               60     -0.231457   5 O  py        
    33      0.158544   2 C  py               42     -0.158544   3 C  py        
    37      0.151784   2 C  py               46     -0.151784   3 C  py        

 Vector   32  Occ=2.000000D+00  E=-6.833727D-01  Symmetry=e"
              MO Center= -2.4D-01,  1.0D-02,  4.6D-17, r^2= 6.7D+00
   Bfn.  Coefficient  Atom+Function         Bfn.  Coefficient  Atom+Function  
  ----- ------------  ---------------      ----- ------------  ---------------
    26      0.248497   1 Fe dxz              20      0.242870   1 Fe dxz       
    54      0.236541   4 O  px               63     -0.236541   5 O  px        
    50      0.231457   4 O  px               59     -0.231457   5 O  px        
    32      0.158544   2 C  px               41     -0.158544   3 C  px        
    36      0.151784   2 C  px               45     -0.151784   3 C  px        

 Vector   33  Occ=2.000000D+00  E=-6.769749D-01  Symmetry=a2"
              MO Center=  1.8D-15,  1.5D-15,  2.9D-16, r^2= 5.8D+00
   Bfn.  Coefficient  Atom+Function         Bfn.  Coefficient  Atom+Function  
  ----- ------------  ---------------      ----- ------------  ---------------
    35      0.332193   2 C  s                44     -0.332193   3 C  s         
    34     -0.228306   2 C  pz               43     -0.228306   3 C  pz        
    52      0.174132   4 O  pz               61      0.174132   5 O  pz        
     9     -0.169746   1 Fe pz               38     -0.160559   2 C  pz        
    47     -0.160559   3 C  pz               56      0.158359   4 O  pz        

 Vector   34  Occ=2.000000D+00  E=-6.764662D-01  Symmetry=e'
              MO Center=  2.2D-01,  1.7D-01, -1.4D-16, r^2= 6.9D+00
   Bfn.  Coefficient  Atom+Function         Bfn.  Coefficient  Atom+Function  
  ----- ------------  ---------------      ----- ------------  ---------------
    71      0.224748   6 C  s                55      0.190734   4 O  py        
    64      0.190734   5 O  py               51      0.183673   4 O  py        
    60      0.183673   5 O  py               54      0.169670   4 O  px        
    63      0.169670   5 O  px               50      0.163389   4 O  px        
    59      0.163389   5 O  px        

 Vector   35  Occ=2.000000D+00  E=-6.764662D-01  Symmetry=e'
              MO Center= -2.2D-01, -1.7D-01, -3.2D-16, r^2= 6.9D+00
   Bfn.  Coefficient  Atom+Function         Bfn.  Coefficient  Atom+Function  
  ----- ------------  ---------------      ----- ------------  ---------------
    80     -0.201205   7 C  s                54      0.190734   4 O  px        
    63      0.190734   5 O  px               89      0.188070   8 C  s         
    50      0.183673   4 O  px               59      0.183673   5 O  px        
    55     -0.169670   4 O  py               64     -0.169670   5 O  py        
    51     -0.163389   4 O  py               60     -0.163389   5 O  py        

 Vector   36  Occ=2.000000D+00  E=-6.546476D-01  Symmetry=e'
              MO Center= -5.8D-01, -8.4D-01,  1.6D-19, r^2= 6.2D+00
   Bfn.  Coefficient  Atom+Function         Bfn.  Coefficient  Atom+Function  
  ----- ------------  ---------------      ----- ------------  ---------------
   117      0.304330  11 O  px              113      0.294963  11 O  px        
   109      0.277720  10 O  py              105      0.269326  10 O  py        
    25     -0.201175   1 Fe dxy              19     -0.178728   1 Fe dxy       
    86      0.169160   8 C  px               90      0.161762   8 C  px        

 Vector   37  Occ=2.000000D+00  E=-6.546476D-01  Symmetry=e'
              MO Center=  5.8D-01,  8.4D-01, -4.9D-19, r^2= 6.2D+00
   Bfn.  Coefficient  Atom+Function         Bfn.  Coefficient  Atom+Function  
  ----- ------------  ---------------      ----- ------------  ---------------
    99      0.242930   9 O  px               95      0.235380   9 O  px        
   100     -0.234399   9 O  py               96     -0.226729   9 O  py        
   109     -0.174142  10 O  py              105     -0.167934  10 O  py        
    69     -0.151771   6 C  py        

 Vector   38  Occ=2.000000D+00  E=-6.417544D-01  Symmetry=a2'
              MO Center= -5.0D-16, -2.0D-16, -6.3D-34, r^2= 8.1D+00
   Bfn.  Coefficient  Atom+Function         Bfn.  Coefficient  Atom+Function  
  ----- ------------  ---------------      ----- ------------  ---------------
   109      0.267422  10 O  py              117     -0.267422  11 O  px        
   105      0.250407  10 O  py              113     -0.250407  11 O  px        
    99      0.195767   9 O  px              100     -0.195767   9 O  py        
    95      0.183310   9 O  px               96     -0.183310   9 O  py        

 Vector   39  Occ=2.000000D+00  E=-6.322426D-01  Symmetry=e"
              MO Center= -3.2D-01, -9.5D-01, -5.0D-15, r^2= 7.0D+00
   Bfn.  Coefficient  Atom+Function         Bfn.  Coefficient  Atom+Function  
  ----- ------------  ---------------      ----- ------------  ---------------
   119      0.313088  11 O  pz              115      0.294635  11 O  pz        
   110     -0.238393  10 O  pz              106     -0.224342  10 O  pz        
    88      0.180789   8 C  pz               92      0.175148   8 C  pz        

 Vector   40  Occ=2.000000D+00  E=-6.322426D-01  Symmetry=e"
              MO Center=  3.2D-01,  9.5D-01,  1.4D-16, r^2= 7.0D+00
   Bfn.  Coefficient  Atom+Function         Bfn.  Coefficient  Atom+Function  
  ----- ------------  ---------------      ----- ------------  ---------------
   101      0.318397   9 O  pz               97      0.299632   9 O  pz        
   110     -0.223887  10 O  pz              106     -0.210691  10 O  pz        
    70      0.183855   6 C  pz               74      0.178119   6 C  pz        

 Vector   41  Occ=2.000000D+00  E=-6.288248D-01  Symmetry=e'
              MO Center= -2.5D-01, -1.8D-01,  3.2D-15, r^2= 5.7D+00
   Bfn.  Coefficient  Atom+Function         Bfn.  Coefficient  Atom+Function  
  ----- ------------  ---------------      ----- ------------  ---------------
    80      0.369592   7 C  s                89     -0.335524   8 C  s         
    77      0.230247   7 C  px               87     -0.211717   8 C  py        
    81      0.171351   7 C  px               54      0.157866   4 O  px        
    63      0.157866   5 O  px               91     -0.157980   8 C  py        

 Vector   42  Occ=2.000000D+00  E=-6.288248D-01  Symmetry=e'
              MO Center=  2.5D-01,  1.8D-01,  1.2D-15, r^2= 5.7D+00
   Bfn.  Coefficient  Atom+Function         Bfn.  Coefficient  Atom+Function  
  ----- ------------  ---------------      ----- ------------  ---------------
    71      0.407098   6 C  s                89     -0.233053   8 C  s         
    25      0.223512   1 Fe dxy              19      0.199525   1 Fe dxy       
    68     -0.183961   6 C  px               69     -0.177280   6 C  py        
    80     -0.174045   7 C  s                55     -0.157866   4 O  py        
    64     -0.157866   5 O  py        

 Vector   43  Occ=2.000000D+00  E=-6.193133D-01  Symmetry=a1'
              MO Center=  1.9D-16, -2.2D-17, -1.5D-16, r^2= 3.5D+00
   Bfn.  Coefficient  Atom+Function         Bfn.  Coefficient  Atom+Function  
  ----- ------------  ---------------      ----- ------------  ---------------
    35      0.347210   2 C  s                44      0.347210   3 C  s         
    71     -0.268286   6 C  s                80     -0.268286   7 C  s         
    89     -0.268286   8 C  s                34     -0.198417   2 C  pz        
    43      0.198417   3 C  pz               29      0.195140   1 Fe dzz       
    77     -0.177194   7 C  px               87     -0.177194   8 C  py        

 Vector   44  Occ=2.000000D+00  E=-6.050386D-01  Symmetry=a2"
              MO Center= -1.8D-15,  2.4D-15,  1.1D-16, r^2= 6.7D+00
   Bfn.  Coefficient  Atom+Function         Bfn.  Coefficient  Atom+Function  
  ----- ------------  ---------------      ----- ------------  ---------------
    35      0.284855   2 C  s                44     -0.284855   3 C  s         
   101     -0.227715   9 O  pz              110     -0.227715  10 O  pz        
   119     -0.227715  11 O  pz               97     -0.210987   9 O  pz        
   106     -0.210987  10 O  pz              115     -0.210987  11 O  pz        
    34     -0.185392   2 C  pz               43     -0.185392   3 C  pz        

 Vector   45  Occ=2.000000D+00  E=-4.815078D-01  Symmetry=e"
              MO Center= -6.8D-02,  1.2D-01,  4.1D-18, r^2= 2.1D+00
   Bfn.  Coefficient  Atom+Function         Bfn.  Coefficient  Atom+Function  
  ----- ------------  ---------------      ----- ------------  ---------------
    26      0.909446   1 Fe dxz              20      0.886962   1 Fe dxz       
    54     -0.170088   4 O  px               63      0.170088   5 O  px        
   110      0.161160  10 O  pz        

 Vector   46  Occ=2.000000D+00  E=-4.815078D-01  Symmetry=e"
              MO Center=  6.8D-02, -1.2D-01, -4.5D-19, r^2= 2.1D+00
   Bfn.  Coefficient  Atom+Function         Bfn.  Coefficient  Atom+Function  
  ----- ------------  ---------------      ----- ------------  ---------------
    28      0.909446   1 Fe dyz              22      0.886962   1 Fe dyz       
   119      0.173070  11 O  pz               55     -0.170088   4 O  py        
    64      0.170088   5 O  py        

 Vector   47  Occ=2.000000D+00  E=-3.311260D-01  Symmetry=e'
              MO Center= -1.9D-01, -3.9D-01,  1.1D-17, r^2= 2.8D+00
   Bfn.  Coefficient  Atom+Function         Bfn.  Coefficient  Atom+Function  
  ----- ------------  ---------------      ----- ------------  ---------------
    25     -0.693819   1 Fe dxy              11      0.667197   1 Fe px        
    19     -0.653356   1 Fe dxy              12      0.480261   1 Fe py        
    71     -0.209006   6 C  s               117     -0.207988  11 O  px        
   109     -0.177392  10 O  py              113     -0.150875  11 O  px        

 Vector   48  Occ=2.000000D+00  E=-3.311260D-01  Symmetry=e'
              MO Center=  1.9D-01,  3.9D-01, -1.8D-17, r^2= 2.8D+00
   Bfn.  Coefficient  Atom+Function         Bfn.  Coefficient  Atom+Function  
  ----- ------------  ---------------      ----- ------------  ---------------
    12      0.667197   1 Fe py               11     -0.480261   1 Fe px        
    24     -0.346910   1 Fe dxx              27      0.346910   1 Fe dyy       
    18     -0.326678   1 Fe dxx              21      0.326678   1 Fe dyy       
    89      0.198029   8 C  s                80     -0.163979   7 C  s         
    99      0.163218   9 O  px        

 Vector   49  Occ=0.000000D+00  E= 7.628347D-02  Symmetry=e"
              MO Center= -3.5D-01,  1.9D-01,  1.2D-16, r^2= 4.8D+00
   Bfn.  Coefficient  Atom+Function         Bfn.  Coefficient  Atom+Function  
  ----- ------------  ---------------      ----- ------------  ---------------
    20      0.439560   1 Fe dxz              26      0.419352   1 Fe dxz       
    36     -0.324340   2 C  px               45      0.324340   3 C  px        
    83      0.313764   7 C  pz              110     -0.256910  10 O  pz        
    54      0.248710   4 O  px               63     -0.248710   5 O  px        
    32     -0.189783   2 C  px               41      0.189783   3 C  px        

 Vector   50  Occ=0.000000D+00  E= 7.628347D-02  Symmetry=e"
              MO Center=  3.5D-01, -1.9D-01, -3.6D-17, r^2= 4.8D+00
   Bfn.  Coefficient  Atom+Function         Bfn.  Coefficient  Atom+Function  
  ----- ------------  ---------------      ----- ------------  ---------------
    22      0.439560   1 Fe dyz              28      0.419352   1 Fe dyz       
    37     -0.324340   2 C  py               46      0.324340   3 C  py        
    92      0.289316   8 C  pz               74     -0.254139   6 C  pz        
    55      0.248710   4 O  py               64     -0.248710   5 O  py        
   119     -0.236892  11 O  pz              101      0.208089   9 O  pz        

 Vector   51  Occ=0.000000D+00  E= 9.863474D-02  Symmetry=a1'
              MO Center=  1.2D-16,  1.1D-16, -7.0D-18, r^2= 1.1D+01
   Bfn.  Coefficient  Atom+Function         Bfn.  Coefficient  Atom+Function  
  ----- ------------  ---------------      ----- ------------  ---------------
    14      2.202288   1 Fe s                10     -1.364414   1 Fe s         
    71     -0.224515   6 C  s                80     -0.224515   7 C  s         
    89     -0.224515   8 C  s                35     -0.170339   2 C  s         
    44     -0.170339   3 C  s         

 Vector   52  Occ=0.000000D+00  E= 1.049467D-01  Symmetry=a2"
              MO Center= -2.1D-16,  4.4D-16, -2.1D-16, r^2= 1.1D+01
   Bfn.  Coefficient  Atom+Function         Bfn.  Coefficient  Atom+Function  
  ----- ------------  ---------------      ----- ------------  ---------------
    17      1.309594   1 Fe pz               13     -0.400118   1 Fe pz        
    35     -0.341398   2 C  s                44      0.341398   3 C  s         
   101     -0.179070   9 O  pz              110     -0.179070  10 O  pz        
   119     -0.179070  11 O  pz        

 Vector   53  Occ=0.000000D+00  E= 1.093122D-01  Symmetry=e'
              MO Center=  1.7D-02, -2.1D-01, -1.7D-16, r^2= 1.1D+01
   Bfn.  Coefficient  Atom+Function         Bfn.  Coefficient  Atom+Function  
  ----- ------------  ---------------      ----- ------------  ---------------
    15      1.245105   1 Fe px               11     -0.656249   1 Fe px        
    16      0.458638   1 Fe py               71     -0.291150   6 C  s         
    80      0.261968   7 C  s                19      0.258846   1 Fe dxy       
    25      0.249262   1 Fe dxy              12     -0.241731   1 Fe py        
    54     -0.187750   4 O  px               63     -0.187750   5 O  px        

 Vector   54  Occ=0.000000D+00  E= 1.093122D-01  Symmetry=e'
              MO Center= -1.7D-02,  2.1D-01,  6.9D-16, r^2= 1.1D+01
   Bfn.  Coefficient  Atom+Function         Bfn.  Coefficient  Atom+Function  
  ----- ------------  ---------------      ----- ------------  ---------------
    16      1.245105   1 Fe py               12     -0.656249   1 Fe py        
    15     -0.458638   1 Fe px               89      0.319343   8 C  s         
    11      0.241731   1 Fe px               55     -0.187750   4 O  py        
    64     -0.187750   5 O  py               80     -0.184945   7 C  s         
    37      0.179803   2 C  py               46      0.179803   3 C  py        

 Vector   55  Occ=0.000000D+00  E= 1.213409D-01  Symmetry=a2'
              MO Center= -7.6D-16, -6.4D-16,  1.6D-32, r^2= 5.6D+00
   Bfn.  Coefficient  Atom+Function         Bfn.  Coefficient  Atom+Function  
  ----- ------------  ---------------      ----- ------------  ---------------
    82      0.403846   7 C  py               90     -0.403846   8 C  px        
    72      0.295636   6 C  px               73     -0.295636   6 C  py        
   109     -0.285720  10 O  py              117      0.285720  11 O  px        
    78      0.260070   7 C  py               86     -0.260070   8 C  px        
    99     -0.209162   9 O  px              100      0.209162   9 O  py        

 Vector   56  Occ=0.000000D+00  E= 1.241828D-01  Symmetry=e'
              MO Center=  1.0D-01, -1.6D-01,  1.5D-16, r^2= 7.4D+00
   Bfn.  Coefficient  Atom+Function         Bfn.  Coefficient  Atom+Function  
  ----- ------------  ---------------      ----- ------------  ---------------
    15      0.798745   1 Fe px               36     -0.461062   2 C  px        
    45     -0.461062   3 C  px               11     -0.418630   1 Fe px        
    32     -0.286699   2 C  px               41     -0.286699   3 C  px        
    54      0.287834   4 O  px               63      0.287834   5 O  px        
    50      0.169966   4 O  px               59      0.169966   5 O  px        

 Vector   57  Occ=0.000000D+00  E= 1.241828D-01  Symmetry=e'
              MO Center= -1.0D-01,  1.6D-01,  6.4D-16, r^2= 7.4D+00
   Bfn.  Coefficient  Atom+Function         Bfn.  Coefficient  Atom+Function  
  ----- ------------  ---------------      ----- ------------  ---------------
    16      0.798745   1 Fe py               37     -0.461062   2 C  py        
    46     -0.461062   3 C  py               12     -0.418630   1 Fe py        
    33     -0.286699   2 C  py               42     -0.286699   3 C  py        
    55      0.287834   4 O  py               64      0.287834   5 O  py        
    51      0.169966   4 O  py               60      0.169966   5 O  py        

 Vector   58  Occ=0.000000D+00  E= 1.381883D-01  Symmetry=a2"
              MO Center=  9.5D-17, -5.3D-16, -3.4D-16, r^2= 8.7D+00
   Bfn.  Coefficient  Atom+Function         Bfn.  Coefficient  Atom+Function  
  ----- ------------  ---------------      ----- ------------  ---------------
    13      1.419051   1 Fe pz               17     -1.157072   1 Fe pz        
    35     -0.491340   2 C  s                44      0.491340   3 C  s         
    38      0.388582   2 C  pz               47      0.388582   3 C  pz        
    74      0.272233   6 C  pz               83      0.272233   7 C  pz        
    92      0.272233   8 C  pz               70      0.231566   6 C  pz        

 Vector   59  Occ=0.000000D+00  E= 1.555099D-01  Symmetry=e'
              MO Center=  3.6D-02,  3.9D-01,  1.3D-16, r^2= 4.7D+00
   Bfn.  Coefficient  Atom+Function         Bfn.  Coefficient  Atom+Function  
  ----- ------------  ---------------      ----- ------------  ---------------
    16      0.447981   1 Fe py               82     -0.323691   7 C  py        
    72      0.303779   6 C  px               89     -0.290719   8 C  s         
    73     -0.288803   6 C  py               24     -0.283517   1 Fe dxx       
    27      0.283517   1 Fe dyy              12     -0.275284   1 Fe py        
    18     -0.269604   1 Fe dxx              21      0.269604   1 Fe dyy       

 Vector   60  Occ=0.000000D+00  E= 1.555099D-01  Symmetry=e'
              MO Center= -3.6D-02, -3.9D-01, -1.7D-17, r^2= 4.7D+00
   Bfn.  Coefficient  Atom+Function         Bfn.  Coefficient  Atom+Function  
  ----- ------------  ---------------      ----- ------------  ---------------
    25      0.567034   1 Fe dxy              19      0.539207   1 Fe dxy       
    15     -0.447981   1 Fe px               90      0.424989   8 C  px        
    82      0.283636   7 C  py               71     -0.277798   6 C  s         
    86      0.278535   8 C  px               11      0.275284   1 Fe px        
   117     -0.271728  11 O  px               80      0.225741   7 C  s         

 Vector   61  Occ=0.000000D+00  E= 2.046551D-01  Symmetry=e"
              MO Center=  5.3D-01, -2.6D-01, -4.2D-16, r^2= 5.2D+00
   Bfn.  Coefficient  Atom+Function         Bfn.  Coefficient  Atom+Function  
  ----- ------------  ---------------      ----- ------------  ---------------
    92      0.444039   8 C  pz               74     -0.398825   6 C  pz        
    37      0.364372   2 C  py               46     -0.364372   3 C  py        
   119     -0.301118  11 O  pz               88      0.295953   8 C  pz        
   101      0.270457   9 O  pz               70     -0.265818   6 C  pz        
    33      0.256889   2 C  py               42     -0.256889   3 C  py        

 Vector   62  Occ=0.000000D+00  E= 2.046551D-01  Symmetry=e"
              MO Center= -5.3D-01,  2.6D-01,  8.9D-17, r^2= 5.2D+00
   Bfn.  Coefficient  Atom+Function         Bfn.  Coefficient  Atom+Function  
  ----- ------------  ---------------      ----- ------------  ---------------
    83      0.486628   7 C  pz               36      0.364372   2 C  px        
    45     -0.364372   3 C  px              110     -0.329999  10 O  pz        
    79      0.324338   7 C  pz               74     -0.282470   6 C  pz        
    32      0.256889   2 C  px               41     -0.256889   3 C  px        
    54     -0.237370   4 O  px               63      0.237370   5 O  px        

 Vector   63  Occ=0.000000D+00  E= 2.805596D-01  Symmetry=a1'
              MO Center= -2.7D-17, -3.1D-17, -4.2D-16, r^2= 2.4D+00
   Bfn.  Coefficient  Atom+Function         Bfn.  Coefficient  Atom+Function  
  ----- ------------  ---------------      ----- ------------  ---------------
    29      0.523676   1 Fe dzz              35     -0.509044   2 C  s         
    44     -0.509044   3 C  s                53      0.493878   4 O  s         
    62      0.493878   5 O  s                23      0.472780   1 Fe dzz       
    10     -0.427675   1 Fe s                38     -0.426308   2 C  pz        
    47      0.426308   3 C  pz               71      0.357223   6 C  s         

 Vector   64  Occ=0.000000D+00  E= 4.961060D-01  Symmetry=a2"
              MO Center=  6.3D-17, -3.3D-17, -8.2D-16, r^2= 8.5D+00
   Bfn.  Coefficient  Atom+Function         Bfn.  Coefficient  Atom+Function  
  ----- ------------  ---------------      ----- ------------  ---------------
    13      4.252875   1 Fe pz               38      1.887963   2 C  pz        
    47      1.887963   3 C  pz               17     -1.310403   1 Fe pz        
    53     -1.054827   4 O  s                62      1.054827   5 O  s         
    35     -0.974541   2 C  s                44      0.974541   3 C  s         
    74     -0.408099   6 C  pz               83     -0.408099   7 C  pz        

 Vector   65  Occ=0.000000D+00  E= 5.028690D-01  Symmetry=a1'
              MO Center= -2.7D-17,  4.0D-16,  3.5D-16, r^2= 4.6D+00
   Bfn.  Coefficient  Atom+Function         Bfn.  Coefficient  Atom+Function  
  ----- ------------  ---------------      ----- ------------  ---------------
    10      1.389294   1 Fe s                35     -1.201657   2 C  s         
    44     -1.201657   3 C  s                71     -1.074800   6 C  s         
    80     -1.074800   7 C  s                89     -1.074800   8 C  s         
    53      0.626850   4 O  s                62      0.626850   5 O  s         
    14      0.578703   1 Fe s                98      0.484487   9 O  s         


 center of mass
 --------------
 x =  -0.00000000 y =  -0.00000000 z =   0.00000000

 moments of inertia (a.u.)
 ------------------
        2255.012792094188           0.000000000000           0.000000000000
           0.000000000000        2255.012792094188           0.000000000000
           0.000000000000           0.000000000000        1950.260605202691

  Mulliken analysis of the total density
  --------------------------------------

    Atom       Charge   Shell Charges
 -----------   ------   -------------------------------------------------------
    1 Fe  26    25.25   1.99  2.01  6.00  1.68  5.97 -0.05  0.99  0.09  0.12  3.00  3.45
    2 C    6     5.71   1.99  0.46  1.31  1.10  0.85
    3 C    6     5.71   1.99  0.46  1.31  1.10  0.85
    4 O    8     8.47   1.99  0.44  2.07  1.57  2.41
    5 O    8     8.47   1.99  0.44  2.07  1.57  2.41
    6 C    6     5.63   1.99  0.45  1.31  1.01  0.87
    7 C    6     5.63   1.99  0.45  1.31  1.01  0.87
    8 C    6     5.63   1.99  0.45  1.31  1.01  0.87
    9 O    8     8.50   1.99  0.44  2.07  1.57  2.42
   10 O    8     8.50   1.99  0.44  2.07  1.57  2.42
   11 O    8     8.50   1.99  0.44  2.07  1.57  2.42

       Multipole analysis of the density wrt the origin
       ------------------------------------------------

     L   x y z        total         open         nuclear
     -   - - -        -----         ----         -------
     0   0 0 0     -0.000000      0.000000     96.000000

     1   1 0 0      0.000000      0.000000     -0.000000
     1   0 1 0      0.000000      0.000000     -0.000000
     1   0 0 1      0.000000      0.000000      0.000000

     2   2 0 0    -57.470433      0.000000    487.686157
     2   1 1 0     -0.000000      0.000000     -0.000000
     2   1 0 1     -0.000000      0.000000     -0.000000
     2   0 2 0    -57.470433      0.000000    487.686157
     2   0 1 1     -0.000000      0.000000      0.000000
     2   0 0 2    -55.298866      0.000000    640.100373


 Task  times  cpu:        6.9s     wall:        7.0s


                                NWChem Input Module
                                -------------------


               case s3a: fe(co)5 --- Semi-direct SCF ... 75% caching
               -----------------------------------------------------
                                 NWChem SCF Module
                                 -----------------


               case s3a: fe(co)5 --- Semi-direct SCF ... 75% caching



  ao basis        = "ao basis"
  functions       =   119
  atoms           =    11
  closed shells   =    48
  open shells     =     0
  charge          =   0.00
  wavefunction    = RHF 
  input vectors   = atomic
  output vectors  = ./scf_feco5.movecs
  use symmetry    = T
  symmetry adapt  = T


 Summary of "ao basis" -> "ao basis" (cartesian)
 ------------------------------------------------------------------------------
       Tag                 Description            Shells   Functions and Types
 ---------------- ------------------------------  ------  ---------------------
 fe                          3-21g                  11       29   5s4p2d
 o                           3-21g                   5        9   3s2p
 c                           3-21g                   5        9   3s2p


      Symmetry analysis of basis
      --------------------------

        a1'        29
        a1"         0
        a2'         4
        a2"        18
        e'         48
        e"         20


 Forming initial guess at       7.0s


      Superposition of Atomic Density Guess
      -------------------------------------

 Sum of atomic energies:       -1815.24436401

 Integral file          = ./scf_feco5.aoints.0
 Record size in doubles =  65536        No. of integs per rec  =  65534
 Max. records in memory =      0        Max. records in file   =      3
 No. of bits per label  =      8        No. of bits per value  =     32


 #quartets = 1.511D+05 #integrals = 1.336D+06 #direct = 25.2% #cached = 74.8%


      Non-variational initial energy
      ------------------------------

 Total energy =   -1818.607108
 1-e energy   =   -4094.538473
 2-e energy   =    1477.435746
 HOMO         =      -0.233831
 LUMO         =      -0.015290


      Symmetry analysis of molecular orbitals - initial
      -------------------------------------------------

  Numbering of irreducible representations: 

     1 a1'         2 a1"         3 a2'         4 a2"         5 e'      
     6 e"      

  Orbital symmetries:

     1 a1'         2 a1'         3 a2"         4 e'          5 e'      
     6 a1'         7 a1'         8 a2"         9 e'         10 e'      
    11 a1'        12 a2"        13 a1'        14 e'         15 e'      
    16 a1'        17 a2"        18 e'         19 e'         20 a1'     
    21 a2"        22 e'         23 e'         24 a1'        25 a1'     
    26 a2"        27 e'         28 e'         29 a1'        30 a1'     
    31 e"         32 e"         33 a2"        34 e'         35 e'      
    36 e'         37 e'         38 a2'        39 e"         40 e"      
    41 a1'        42 e'         43 e'         44 a2"        45 e"      
    46 e"         47 e'         48 e'         49 a1'        50 e"      
    51 e"         52 e'         53 e'         54 a2"        55 a2'     
    56 e'         57 e'         58 a1'     


 Starting SCF solution at       7.3s



 ----------------------------------------------
         Quadratically convergent ROHF

 Convergence threshold     :          1.000E-04
 Maximum no. of iterations :           30
 Final Fock-matrix accuracy:          1.000E-07
 ----------------------------------------------


              iter       energy          gnorm     gmax       time
             ----- ------------------- --------- --------- --------
                 1    -1816.3884281231  1.87D+00  5.01D-01      7.4
                 2    -1816.6015415742  7.93D-01  2.38D-01      7.5
                 3    -1816.6471691201  5.87D-01  2.10D-01      7.6
                 4    -1816.6610441941  3.06D-01  8.88D-02      7.8
                 5    -1816.6770961587  7.76D-02  3.82D-02      8.2
                 6    -1816.6775057123  4.06D-03  1.14D-03      8.4
                 7    -1816.6775091409  2.04D-05  7.57D-06      8.9


       Final RHF  results 
       ------------------ 

         Total SCF energy =  -1816.677509140865
      One-electron energy =  -4092.290737596437
      Two-electron energy =   1477.117610361382
 Nuclear repulsion energy =    798.495618094190

        Time for solution =      1.6s



       Symmetry analysis of molecular orbitals - final
       -----------------------------------------------

  Numbering of irreducible representations: 

     1 a1'         2 a1"         3 a2'         4 a2"         5 e'      
     6 e"      

  Orbital symmetries:

     1 a1'         2 a1'         3 a2"         4 e'          5 e'      
     6 a1'         7 a2"         8 a1'         9 e'         10 e'      
    11 a2"        12 a1'        13 a1'        14 e'         15 e'      
    16 a1'        17 a2"        18 e'         19 e'         20 a1'     
    21 a2"        22 a1'        23 e'         24 e'         25 a1'     
    26 a2"        27 e'         28 e'         29 a1'        30 a1'     
    31 e"         32 e"         33 a2"        34 e'         35 e'      
    36 e'         37 e'         38 a2'        39 e"         40 e"      
    41 e'         42 e'         43 a1'        44 a2"        45 e"      
    46 e"         47 e'         48 e'         49 e"         50 e"      
    51 a1'        52 a2"        53 e'         54 e'         55 a2'     
    56 e'         57 e'         58 a2"     

             Final eigenvalues
             -----------------

              1      
    1 -259.8147
    2  -31.8753
    3  -27.3166
    4  -27.3115
    5  -27.3115
    6  -20.6092
    7  -20.6087
    8  -20.5806
    9  -20.5801
   10  -20.5801
   11  -11.3717
   12  -11.3710
   13  -11.3538
   14  -11.3529
   15  -11.3529
   16   -4.1718
   17   -2.7392
   18   -2.7276
   19   -2.7276
   20   -1.5608
   21   -1.5603
   22   -1.5360
   23   -1.5350
   24   -1.5350
   25   -0.8706
   26   -0.8228
   27   -0.8008
   28   -0.8008
   29   -0.7991
   30   -0.7302
   31   -0.6834
   32   -0.6834
   33   -0.6770
   34   -0.6765
   35   -0.6765
   36   -0.6546
   37   -0.6546
   38   -0.6418
   39   -0.6322
   40   -0.6322
   41   -0.6288
   42   -0.6288
   43   -0.6193
   44   -0.6050
   45   -0.4815
   46   -0.4815
   47   -0.3311
   48   -0.3311
   49    0.0763
   50    0.0763
   51    0.0986
   52    0.1049
   53    0.1093
   54    0.1093
   55    0.1213
   56    0.1242
   57    0.1242
   58    0.1382

                       ROHF Final Molecular Orbital Analysis
                       -------------------------------------

 Vector   25  Occ=2.000000D+00  E=-8.706154D-01  Symmetry=a1'
              MO Center= -2.7D-15, -2.2D-15,  1.2D-15, r^2= 5.1D+00
   Bfn.  Coefficient  Atom+Function         Bfn.  Coefficient  Atom+Function  
  ----- ------------  ---------------      ----- ------------  ---------------
    35      0.302350   2 C  s                44      0.302350   3 C  s         
     6     -0.211001   1 Fe s                53     -0.208840   4 O  s         
    62     -0.208840   5 O  s                71      0.206866   6 C  s         
    80      0.206866   7 C  s                89      0.206866   8 C  s         

 Vector   26  Occ=2.000000D+00  E=-8.227912D-01  Symmetry=a2"
              MO Center=  2.8D-17, -1.5D-16, -7.8D-16, r^2= 8.4D+00
   Bfn.  Coefficient  Atom+Function         Bfn.  Coefficient  Atom+Function  
  ----- ------------  ---------------      ----- ------------  ---------------
    35      0.357606   2 C  s                44     -0.357606   3 C  s         
    53     -0.332294   4 O  s                62      0.332294   5 O  s         
    52     -0.244330   4 O  pz               61     -0.244330   5 O  pz        
    56     -0.216737   4 O  pz               65     -0.216737   5 O  pz        

 Vector   27  Occ=2.000000D+00  E=-8.007896D-01  Symmetry=e'
              MO Center=  1.3D+00, -3.9D-01,  2.0D-18, r^2= 6.6D+00
   Bfn.  Coefficient  Atom+Function         Bfn.  Coefficient  Atom+Function  
  ----- ------------  ---------------      ----- ------------  ---------------
    89     -0.327322   8 C  s               116      0.325590  11 O  s         
    71      0.320604   6 C  s                98     -0.318907   9 O  s         
   114     -0.233226  11 O  py              118     -0.213603  11 O  py        
    95     -0.167575   9 O  px               96     -0.167020   9 O  py        
   100     -0.154128   9 O  py               99     -0.151554   9 O  px        

 Vector   28  Occ=2.000000D+00  E=-8.007896D-01  Symmetry=e'
              MO Center= -1.3D+00,  3.9D-01,  4.8D-17, r^2= 6.6D+00
   Bfn.  Coefficient  Atom+Function         Bfn.  Coefficient  Atom+Function  
  ----- ------------  ---------------      ----- ------------  ---------------
    80      0.374080   7 C  s               107     -0.372100  10 O  s         
   104      0.266648  10 O  px              108      0.243627  10 O  px        
    71     -0.192858   6 C  s                98      0.191838   9 O  s         
    89     -0.181222   8 C  s               116      0.180263  11 O  s         
    76      0.165178   7 C  s         

 Vector   29  Occ=2.000000D+00  E=-7.991259D-01  Symmetry=a1'
              MO Center=  3.3D-14, -8.0D-15, -4.2D-16, r^2= 9.0D+00
   Bfn.  Coefficient  Atom+Function         Bfn.  Coefficient  Atom+Function  
  ----- ------------  ---------------      ----- ------------  ---------------
    53      0.210120   4 O  s                62      0.210120   5 O  s         
    52      0.195828   4 O  pz               61     -0.195828   5 O  pz        
    71      0.195231   6 C  s                80      0.195231   7 C  s         
    89      0.195231   8 C  s                56      0.184962   4 O  pz        
    65     -0.184962   5 O  pz               98     -0.178899   9 O  s         

 Vector   30  Occ=2.000000D+00  E=-7.302360D-01  Symmetry=a1'
              MO Center=  8.3D-15, -1.9D-15,  5.6D-17, r^2= 7.7D+00
   Bfn.  Coefficient  Atom+Function         Bfn.  Coefficient  Atom+Function  
  ----- ------------  ---------------      ----- ------------  ---------------
    34      0.202702   2 C  pz               43     -0.202702   3 C  pz        
    52     -0.195103   4 O  pz               61      0.195103   5 O  pz        
    56     -0.179477   4 O  pz               65      0.179477   5 O  pz        
   104      0.164057  10 O  px              114      0.164057  11 O  py        
     6      0.152768   1 Fe s               108      0.152329  10 O  px        

 Vector   31  Occ=2.000000D+00  E=-6.833727D-01  Symmetry=e"
              MO Center=  2.2D-01, -1.0D-01,  5.7D-17, r^2= 6.7D+00
   Bfn.  Coefficient  Atom+Function         Bfn.  Coefficient  Atom+Function  
  ----- ------------  ---------------      ----- ------------  ---------------
    28      0.262619   1 Fe dyz              22      0.256673   1 Fe dyz       
    55      0.249983   4 O  py               64     -0.249983   5 O  py        
    51      0.244611   4 O  py               60     -0.244611   5 O  py        
    33      0.167554   2 C  py               42     -0.167554   3 C  py        
    37      0.160410   2 C  py               46     -0.160410   3 C  py        

 Vector   32  Occ=2.000000D+00  E=-6.833727D-01  Symmetry=e"
              MO Center= -2.2D-01,  1.0D-01, -3.0D-16, r^2= 6.7D+00
   Bfn.  Coefficient  Atom+Function         Bfn.  Coefficient  Atom+Function  
  ----- ------------  ---------------      ----- ------------  ---------------
    26      0.262619   1 Fe dxz              20      0.256673   1 Fe dxz       
    54      0.249983   4 O  px               63     -0.249983   5 O  px        
    50      0.244611   4 O  px               59     -0.244611   5 O  px        
    32      0.167554   2 C  px               41     -0.167554   3 C  px        
    36      0.160410   2 C  px               45     -0.160410   3 C  px        

 Vector   33  Occ=2.000000D+00  E=-6.769749D-01  Symmetry=a2"
              MO Center= -6.8D-17,  5.8D-18,  1.1D-16, r^2= 5.8D+00
   Bfn.  Coefficient  Atom+Function         Bfn.  Coefficient  Atom+Function  
  ----- ------------  ---------------      ----- ------------  ---------------
    35      0.332190   2 C  s                44     -0.332190   3 C  s         
    34     -0.228306   2 C  pz               43     -0.228306   3 C  pz        
    52      0.174131   4 O  pz               61      0.174131   5 O  pz        
     9     -0.169746   1 Fe pz               38     -0.160558   2 C  pz        
    47     -0.160558   3 C  pz               56      0.158359   4 O  pz        

 Vector   34  Occ=2.000000D+00  E=-6.764663D-01  Symmetry=e'
              MO Center= -2.5D-01,  1.2D-01,  7.6D-17, r^2= 6.9D+00
   Bfn.  Coefficient  Atom+Function         Bfn.  Coefficient  Atom+Function  
  ----- ------------  ---------------      ----- ------------  ---------------
    54      0.252020   4 O  px               63      0.252020   5 O  px        
    50      0.242692   4 O  px               59      0.242692   5 O  px        
    80     -0.223967   7 C  s                77     -0.175257   7 C  px        
    32      0.157317   2 C  px               41      0.157317   3 C  px        

 Vector   35  Occ=2.000000D+00  E=-6.764663D-01  Symmetry=e'
              MO Center=  2.5D-01, -1.2D-01,  9.3D-17, r^2= 6.9D+00
   Bfn.  Coefficient  Atom+Function         Bfn.  Coefficient  Atom+Function  
  ----- ------------  ---------------      ----- ------------  ---------------
    55      0.252020   4 O  py               64      0.252020   5 O  py        
    51      0.242692   4 O  py               60      0.242692   5 O  py        
    89     -0.205407   8 C  s                71      0.182515   6 C  s         
    87     -0.158609   8 C  py               33      0.157317   2 C  py        
    42      0.157317   3 C  py        

 Vector   36  Occ=2.000000D+00  E=-6.546476D-01  Symmetry=e'
              MO Center= -9.6D-01,  3.6D-01,  1.5D-18, r^2= 6.2D+00
   Bfn.  Coefficient  Atom+Function         Bfn.  Coefficient  Atom+Function  
  ----- ------------  ---------------      ----- ------------  ---------------
   109      0.326016  10 O  py              105      0.315579  10 O  py        
    78      0.200167   7 C  py               82      0.185628   7 C  py        
    25     -0.169526   1 Fe dxy              99     -0.170253   9 O  px        
    95     -0.166662   9 O  px              117      0.164467  11 O  px        
   113      0.159937  11 O  px               19     -0.150611   1 Fe dxy       

 Vector   37  Occ=2.000000D+00  E=-6.546476D-01  Symmetry=e'
              MO Center=  9.6D-01, -3.6D-01, -1.4D-16, r^2= 6.2D+00
   Bfn.  Coefficient  Atom+Function         Bfn.  Coefficient  Atom+Function  
  ----- ------------  ---------------      ----- ------------  ---------------
   117      0.283556  11 O  px              113      0.274150  11 O  px        
   100     -0.227013   9 O  py               96     -0.220965   9 O  py        
    86      0.189609   8 C  px               99      0.175224   9 O  px        
    90      0.171551   8 C  px               95      0.168447   9 O  px        
    68      0.162670   6 C  px        

 Vector   38  Occ=2.000000D+00  E=-6.417544D-01  Symmetry=a2'
              MO Center=  4.9D-15,  2.4D-14,  2.2D-32, r^2= 8.1D+00
   Bfn.  Coefficient  Atom+Function         Bfn.  Coefficient  Atom+Function  
  ----- ------------  ---------------      ----- ------------  ---------------
   109      0.267422  10 O  py              117     -0.267422  11 O  px        
   105      0.250407  10 O  py              113     -0.250407  11 O  px        
    99      0.195767   9 O  px              100     -0.195767   9 O  py        
    95      0.183310   9 O  px               96     -0.183310   9 O  py        

 Vector   39  Occ=2.000000D+00  E=-6.322426D-01  Symmetry=e"
              MO Center=  7.4D-01, -6.8D-01, -1.3D-16, r^2= 7.0D+00
   Bfn.  Coefficient  Atom+Function         Bfn.  Coefficient  Atom+Function  
  ----- ------------  ---------------      ----- ------------  ---------------
   119      0.314319  11 O  pz              115      0.295794  11 O  pz        
   101     -0.235389   9 O  pz               97     -0.221516   9 O  pz        
    88      0.181500   8 C  pz               55      0.176252   4 O  py        
    64     -0.176252   5 O  py               92      0.175837   8 C  pz        
    51      0.162711   4 O  py               60     -0.162711   5 O  py        

 Vector   40  Occ=2.000000D+00  E=-6.322426D-01  Symmetry=e"
              MO Center= -7.4D-01,  6.8D-01, -1.7D-16, r^2= 7.0D+00
   Bfn.  Coefficient  Atom+Function         Bfn.  Coefficient  Atom+Function  
  ----- ------------  ---------------      ----- ------------  ---------------
   110      0.317374  10 O  pz              106      0.298669  10 O  pz        
   101     -0.227042   9 O  pz               97     -0.213661   9 O  pz        
    79      0.183264   7 C  pz               83      0.177546   7 C  pz        
    54      0.176252   4 O  px               63     -0.176252   5 O  px        
    50      0.162711   4 O  px               59     -0.162711   5 O  px        

 Vector   41  Occ=2.000000D+00  E=-6.288249D-01  Symmetry=e'
              MO Center= -3.0D-01,  4.5D-02,  2.1D-16, r^2= 5.7D+00
   Bfn.  Coefficient  Atom+Function         Bfn.  Coefficient  Atom+Function  
  ----- ------------  ---------------      ----- ------------  ---------------
    80      0.407849   7 C  s                77      0.248028   7 C  px        
    89     -0.224252   8 C  s                54      0.196287   4 O  px        
    63      0.196287   5 O  px               71     -0.183597   6 C  s         
    81      0.183641   7 C  px               50      0.178471   4 O  px        
    59      0.178471   5 O  px              104     -0.158273  10 O  px        

 Vector   42  Occ=2.000000D+00  E=-6.288249D-01  Symmetry=e'
              MO Center=  3.0D-01, -4.5D-02,  3.0D-16, r^2= 5.7D+00
   Bfn.  Coefficient  Atom+Function         Bfn.  Coefficient  Atom+Function  
  ----- ------------  ---------------      ----- ------------  ---------------
    71      0.364944   6 C  s                89     -0.341471   8 C  s         
    25      0.200365   1 Fe dxy              87     -0.198907   8 C  py        
    55     -0.196287   4 O  py               64     -0.196287   5 O  py        
    68     -0.179920   6 C  px               19      0.178863   1 Fe dxy       
    51     -0.178471   4 O  py               60     -0.178471   5 O  py        

 Vector   43  Occ=2.000000D+00  E=-6.193137D-01  Symmetry=a1'
              MO Center= -1.1D-15,  3.1D-16, -1.4D-17, r^2= 3.5D+00
   Bfn.  Coefficient  Atom+Function         Bfn.  Coefficient  Atom+Function  
  ----- ------------  ---------------      ----- ------------  ---------------
    35      0.347213   2 C  s                44      0.347213   3 C  s         
    71     -0.268283   6 C  s                80     -0.268283   7 C  s         
    89     -0.268283   8 C  s                34     -0.198417   2 C  pz        
    43      0.198417   3 C  pz               29      0.195139   1 Fe dzz       
    77     -0.177194   7 C  px               87     -0.177194   8 C  py        

 Vector   44  Occ=2.000000D+00  E=-6.050386D-01  Symmetry=a2"
              MO Center= -4.5D-16, -2.2D-15, -8.3D-17, r^2= 6.7D+00
   Bfn.  Coefficient  Atom+Function         Bfn.  Coefficient  Atom+Function  
  ----- ------------  ---------------      ----- ------------  ---------------
    35      0.284854   2 C  s                44     -0.284854   3 C  s         
   101     -0.227715   9 O  pz              110     -0.227715  10 O  pz        
   119     -0.227715  11 O  pz               97     -0.210987   9 O  pz        
   106     -0.210987  10 O  pz              115     -0.210987  11 O  pz        
    34     -0.185392   2 C  pz               43     -0.185392   3 C  pz        

 Vector   45  Occ=2.000000D+00  E=-4.815087D-01  Symmetry=e"
              MO Center=  9.1D-02, -1.0D-01,  3.2D-17, r^2= 2.1D+00
   Bfn.  Coefficient  Atom+Function         Bfn.  Coefficient  Atom+Function  
  ----- ------------  ---------------      ----- ------------  ---------------
    28      0.917150   1 Fe dyz              22      0.894475   1 Fe dyz       
    55     -0.171529   4 O  py               64      0.171529   5 O  py        
   119      0.169692  11 O  pz        

 Vector   46  Occ=2.000000D+00  E=-4.815087D-01  Symmetry=e"
              MO Center= -9.1D-02,  1.0D-01,  2.4D-17, r^2= 2.1D+00
   Bfn.  Coefficient  Atom+Function         Bfn.  Coefficient  Atom+Function  
  ----- ------------  ---------------      ----- ------------  ---------------
    26      0.917150   1 Fe dxz              20      0.894475   1 Fe dxz       
    54     -0.171529   4 O  px               63      0.171529   5 O  px        
   110      0.167368  10 O  pz        

 Vector   47  Occ=2.000000D+00  E=-3.311259D-01  Symmetry=e'
              MO Center=  3.3D-01, -2.7D-01, -2.7D-17, r^2= 2.8D+00
   Bfn.  Coefficient  Atom+Function         Bfn.  Coefficient  Atom+Function  
  ----- ------------  ---------------      ----- ------------  ---------------
    11      0.821069   1 Fe px               25     -0.471881   1 Fe dxy       
    19     -0.444361   1 Fe dxy              24      0.260523   1 Fe dxx       
    27     -0.260523   1 Fe dyy              18      0.245329   1 Fe dxx       
    21     -0.245329   1 Fe dyy              80      0.207008   7 C  s         
   117     -0.201573  11 O  px               81      0.156886   7 C  px        

 Vector   48  Occ=2.000000D+00  E=-3.311259D-01  Symmetry=e'
              MO Center= -3.3D-01,  2.7D-01, -3.6D-17, r^2= 2.8D+00
   Bfn.  Coefficient  Atom+Function         Bfn.  Coefficient  Atom+Function  
  ----- ------------  ---------------      ----- ------------  ---------------
    12      0.821069   1 Fe py               25     -0.521046   1 Fe dxy       
    19     -0.490659   1 Fe dxy              24     -0.235941   1 Fe dxx       
    27      0.235941   1 Fe dyy              18     -0.222181   1 Fe dxx       
    21      0.222181   1 Fe dyy             109     -0.208573  10 O  py        
    89      0.201587   8 C  s                71     -0.156962   6 C  s         

 Vector   49  Occ=0.000000D+00  E= 7.628322D-02  Symmetry=e"
              MO Center=  1.2D-01,  3.8D-01, -3.2D-17, r^2= 4.8D+00
   Bfn.  Coefficient  Atom+Function         Bfn.  Coefficient  Atom+Function  
  ----- ------------  ---------------      ----- ------------  ---------------
    20      0.379844   1 Fe dxz              26      0.362381   1 Fe dxz       
    74     -0.306752   6 C  pz               36     -0.280279   2 C  px        
    45      0.280279   3 C  px              101      0.251168   9 O  pz        
    22      0.230982   1 Fe dyz              28      0.220363   1 Fe dyz       
    83      0.218117   7 C  pz               54      0.214923   4 O  px        

 Vector   50  Occ=0.000000D+00  E= 7.628322D-02  Symmetry=e"
              MO Center= -1.2D-01, -3.8D-01, -4.3D-15, r^2= 4.8D+00
   Bfn.  Coefficient  Atom+Function         Bfn.  Coefficient  Atom+Function  
  ----- ------------  ---------------      ----- ------------  ---------------
    22      0.379844   1 Fe dyz              28      0.362381   1 Fe dyz       
    92      0.303033   8 C  pz               37     -0.280279   2 C  py        
    46      0.280279   3 C  py              119     -0.248124  11 O  pz        
    20     -0.230982   1 Fe dxz              83     -0.228276   7 C  pz        
    26     -0.220363   1 Fe dxz              55      0.214923   4 O  py        

 Vector   51  Occ=0.000000D+00  E= 9.863406D-02  Symmetry=a1'
              MO Center=  1.2D-16,  7.5D-17, -2.1D-17, r^2= 1.1D+01
   Bfn.  Coefficient  Atom+Function         Bfn.  Coefficient  Atom+Function  
  ----- ------------  ---------------      ----- ------------  ---------------
    14      2.202285   1 Fe s                10     -1.364409   1 Fe s         
    71     -0.224511   6 C  s                80     -0.224511   7 C  s         
    89     -0.224511   8 C  s                35     -0.170340   2 C  s         
    44     -0.170340   3 C  s         

 Vector   52  Occ=0.000000D+00  E= 1.049468D-01  Symmetry=a2"
              MO Center= -1.1D-16,  2.5D-16,  1.5D-16, r^2= 1.1D+01
   Bfn.  Coefficient  Atom+Function         Bfn.  Coefficient  Atom+Function  
  ----- ------------  ---------------      ----- ------------  ---------------
    17      1.309581   1 Fe pz               13     -0.400088   1 Fe pz        
    35     -0.341411   2 C  s                44      0.341411   3 C  s         
   101     -0.179071   9 O  pz              110     -0.179071  10 O  pz        
   119     -0.179071  11 O  pz        

 Vector   53  Occ=0.000000D+00  E= 1.093124D-01  Symmetry=e'
              MO Center= -1.1D-01,  1.8D-01,  3.5D-15, r^2= 1.1D+01
   Bfn.  Coefficient  Atom+Function         Bfn.  Coefficient  Atom+Function  
  ----- ------------  ---------------      ----- ------------  ---------------
    16      1.318805   1 Fe py               12     -0.695085   1 Fe py        
    89      0.317011   8 C  s                71     -0.200377   6 C  s         
    55     -0.198862   4 O  py               64     -0.198862   5 O  py        
    37      0.190443   2 C  py               46      0.190443   3 C  py        
    19      0.178144   1 Fe dxy              25      0.171548   1 Fe dxy       

 Vector   54  Occ=0.000000D+00  E= 1.093124D-01  Symmetry=e'
              MO Center=  1.1D-01, -1.8D-01,  3.5D-15, r^2= 1.1D+01
   Bfn.  Coefficient  Atom+Function         Bfn.  Coefficient  Atom+Function  
  ----- ------------  ---------------      ----- ------------  ---------------
    15      1.318805   1 Fe px               11     -0.695085   1 Fe px        
    80      0.298714   7 C  s                71     -0.250364   6 C  s         
    19      0.222584   1 Fe dxy              25      0.214344   1 Fe dxy       
    54     -0.198862   4 O  px               63     -0.198862   5 O  px        
    36      0.190443   2 C  px               45      0.190443   3 C  px        

 Vector   55  Occ=0.000000D+00  E= 1.213409D-01  Symmetry=a2'
              MO Center= -3.1D-16, -5.5D-16, -5.6D-32, r^2= 5.6D+00
   Bfn.  Coefficient  Atom+Function         Bfn.  Coefficient  Atom+Function  
  ----- ------------  ---------------      ----- ------------  ---------------
    82      0.403846   7 C  py               90     -0.403846   8 C  px        
    72      0.295636   6 C  px               73     -0.295636   6 C  py        
   109     -0.285720  10 O  py              117      0.285720  11 O  px        
    78      0.260070   7 C  py               86     -0.260070   8 C  px        
    99     -0.209162   9 O  px              100      0.209162   9 O  py        

 Vector   56  Occ=0.000000D+00  E= 1.241828D-01  Symmetry=e'
              MO Center=  1.8D-01, -4.7D-02, -2.8D-15, r^2= 7.4D+00
   Bfn.  Coefficient  Atom+Function         Bfn.  Coefficient  Atom+Function  
  ----- ------------  ---------------      ----- ------------  ---------------
    15      0.774878   1 Fe px               36     -0.447289   2 C  px        
    45     -0.447289   3 C  px               11     -0.406115   1 Fe px        
    32     -0.278133   2 C  px               41     -0.278133   3 C  px        
    54      0.279236   4 O  px               63      0.279236   5 O  px        
    16     -0.213201   1 Fe py               50      0.164889   4 O  px        

 Vector   57  Occ=0.000000D+00  E= 1.241828D-01  Symmetry=e'
              MO Center= -1.8D-01,  4.7D-02, -7.5D-17, r^2= 7.4D+00
   Bfn.  Coefficient  Atom+Function         Bfn.  Coefficient  Atom+Function  
  ----- ------------  ---------------      ----- ------------  ---------------
    16      0.774878   1 Fe py               37     -0.447289   2 C  py        
    46     -0.447289   3 C  py               12     -0.406115   1 Fe py        
    33     -0.278133   2 C  py               42     -0.278133   3 C  py        
    55      0.279236   4 O  py               64      0.279236   5 O  py        
    15      0.213201   1 Fe px               51      0.164889   4 O  py        

 Vector   58  Occ=0.000000D+00  E= 1.381889D-01  Symmetry=a2"
              MO Center= -3.9D-17, -1.8D-16, -2.1D-16, r^2= 8.7D+00
   Bfn.  Coefficient  Atom+Function         Bfn.  Coefficient  Atom+Function  
  ----- ------------  ---------------      ----- ------------  ---------------
    13      1.419016   1 Fe pz               17     -1.157075   1 Fe pz        
    35     -0.491319   2 C  s                44      0.491319   3 C  s         
    38      0.388573   2 C  pz               47      0.388573   3 C  pz        
    74      0.272237   6 C  pz               83      0.272237   7 C  pz        
    92      0.272237   8 C  pz               70      0.231566   6 C  pz        

 Vector   59  Occ=0.000000D+00  E= 1.555100D-01  Symmetry=e'
              MO Center= -6.6D-02, -3.9D-01,  3.0D-18, r^2= 4.7D+00
   Bfn.  Coefficient  Atom+Function         Bfn.  Coefficient  Atom+Function  
  ----- ------------  ---------------      ----- ------------  ---------------
    25      0.574429   1 Fe dxy              19      0.546239   1 Fe dxy       
    15     -0.439632   1 Fe px               90      0.422089   8 C  px        
    82      0.295776   7 C  py               71     -0.281422   6 C  s         
    86      0.276188   8 C  px               11      0.270153   1 Fe px        
   117     -0.268861  11 O  px               16     -0.227279   1 Fe py        

 Vector   60  Occ=0.000000D+00  E= 1.555100D-01  Symmetry=e'
              MO Center=  6.6D-02,  3.9D-01,  1.3D-16, r^2= 4.7D+00
   Bfn.  Coefficient  Atom+Function         Bfn.  Coefficient  Atom+Function  
  ----- ------------  ---------------      ----- ------------  ---------------
    16      0.439632   1 Fe py               82     -0.312636   7 C  py        
    72      0.306846   6 C  px               73     -0.293463   6 C  py        
    24     -0.287214   1 Fe dxx              27      0.287214   1 Fe dyy       
    89     -0.288523   8 C  s                18     -0.273120   1 Fe dxx       
    21      0.273120   1 Fe dyy              12     -0.270153   1 Fe py        

 Vector   61  Occ=0.000000D+00  E= 2.046554D-01  Symmetry=e"
              MO Center= -5.4D-01, -2.3D-01, -8.3D-17, r^2= 5.2D+00
   Bfn.  Coefficient  Atom+Function         Bfn.  Coefficient  Atom+Function  
  ----- ------------  ---------------      ----- ------------  ---------------
    83      0.462110   7 C  pz               92     -0.368817   8 C  pz        
   110     -0.313373  10 O  pz               36      0.306469   2 C  px        
[...]
              MO Center= -3.0D-16, -6.1D-16,  1.4D-17, r^2= 6.7D+00
   Bfn.  Coefficient  Atom+Function         Bfn.  Coefficient  Atom+Function  
  ----- ------------  ---------------      ----- ------------  ---------------
    35      0.284855   2 C  s                44     -0.284855   3 C  s         
   101     -0.227715   9 O  pz              110     -0.227715  10 O  pz        
   119     -0.227715  11 O  pz               97     -0.210987   9 O  pz        
   106     -0.210987  10 O  pz              115     -0.210987  11 O  pz        
    34     -0.185392   2 C  pz               43     -0.185392   3 C  pz        

 Vector   45  Occ=2.000000D+00  E=-4.815078D-01  Symmetry=e"
              MO Center=  1.2D-01, -7.3D-02, -9.1D-17, r^2= 2.1D+00
   Bfn.  Coefficient  Atom+Function         Bfn.  Coefficient  Atom+Function  
  ----- ------------  ---------------      ----- ------------  ---------------
    28      0.911821   1 Fe dyz              22      0.889278   1 Fe dyz       
    55     -0.170533   4 O  py               64      0.170533   5 O  py        
   119      0.162553  11 O  pz        

 Vector   46  Occ=2.000000D+00  E=-4.815078D-01  Symmetry=e"
              MO Center= -1.2D-01,  7.3D-02,  6.2D-17, r^2= 2.1D+00
   Bfn.  Coefficient  Atom+Function         Bfn.  Coefficient  Atom+Function  
  ----- ------------  ---------------      ----- ------------  ---------------
    26      0.911821   1 Fe dxz              20      0.889278   1 Fe dxz       
   110      0.172549  10 O  pz               54     -0.170533   4 O  px        
    63      0.170533   5 O  px        

 Vector   47  Occ=2.000000D+00  E=-3.311260D-01  Symmetry=e'
              MO Center=  1.1D-01, -4.2D-01, -6.0D-18, r^2= 2.8D+00
   Bfn.  Coefficient  Atom+Function         Bfn.  Coefficient  Atom+Function  
  ----- ------------  ---------------      ----- ------------  ---------------
    11      0.793160   1 Fe px               25     -0.610258   1 Fe dxy       
    19     -0.574668   1 Fe dxy              12      0.216102   1 Fe py        
   117     -0.216708  11 O  px               71     -0.183834   6 C  s         
    80      0.182944   7 C  s                24      0.174461   1 Fe dxx       
    27     -0.174461   1 Fe dyy              18      0.164287   1 Fe dxx       

 Vector   48  Occ=2.000000D+00  E=-3.311260D-01  Symmetry=e'
              MO Center= -1.1D-01,  4.2D-01, -2.2D-17, r^2= 2.8D+00
   Bfn.  Coefficient  Atom+Function         Bfn.  Coefficient  Atom+Function  
  ----- ------------  ---------------      ----- ------------  ---------------
    12      0.793160   1 Fe py               25     -0.348923   1 Fe dxy       
    19     -0.328574   1 Fe dxy              24     -0.305129   1 Fe dxx       
    27      0.305129   1 Fe dyy              18     -0.287334   1 Fe dxx       
    21      0.287334   1 Fe dyy              11     -0.216102   1 Fe px        
    89      0.211759   8 C  s               109     -0.179499  10 O  py        

 Vector   49  Occ=0.000000D+00  E= 7.628347D-02  Symmetry=e"
              MO Center= -3.8D-01,  1.2D-01,  3.9D-17, r^2= 4.8D+00
   Bfn.  Coefficient  Atom+Function         Bfn.  Coefficient  Atom+Function  
  ----- ------------  ---------------      ----- ------------  ---------------
    20      0.432169   1 Fe dxz              26      0.412301   1 Fe dxz       
    36     -0.318887   2 C  px               45      0.318887   3 C  px        
    83      0.315630   7 C  pz              110     -0.258438  10 O  pz        
    54      0.244529   4 O  px               63     -0.244529   5 O  px        
    32     -0.186592   2 C  px               41      0.186592   3 C  px        

 Vector   50  Occ=0.000000D+00  E= 7.628347D-02  Symmetry=e"
              MO Center=  3.8D-01, -1.2D-01, -3.5D-16, r^2= 4.8D+00
   Bfn.  Coefficient  Atom+Function         Bfn.  Coefficient  Atom+Function  
  ----- ------------  ---------------      ----- ------------  ---------------
    22      0.432169   1 Fe dyz              28      0.412301   1 Fe dyz       
    37     -0.318887   2 C  py               46      0.318887   3 C  py        
    92      0.277310   8 C  pz               74     -0.269377   6 C  pz        
    55      0.244529   4 O  py               64     -0.244529   5 O  py        
   119     -0.227061  11 O  pz              101      0.220566   9 O  pz        

 Vector   51  Occ=0.000000D+00  E= 9.863474D-02  Symmetry=a1'
              MO Center=  2.6D-16, -1.8D-16, -7.9D-16, r^2= 1.1D+01
   Bfn.  Coefficient  Atom+Function         Bfn.  Coefficient  Atom+Function  
  ----- ------------  ---------------      ----- ------------  ---------------
    14      2.202288   1 Fe s                10     -1.364414   1 Fe s         
    71     -0.224515   6 C  s                80     -0.224515   7 C  s         
    89     -0.224515   8 C  s                35     -0.170339   2 C  s         
    44     -0.170339   3 C  s         

 Vector   52  Occ=0.000000D+00  E= 1.049467D-01  Symmetry=a2"
              MO Center= -2.3D-17,  4.4D-17, -8.9D-17, r^2= 1.1D+01
   Bfn.  Coefficient  Atom+Function         Bfn.  Coefficient  Atom+Function  
  ----- ------------  ---------------      ----- ------------  ---------------
    17      1.309594   1 Fe pz               13     -0.400118   1 Fe pz        
    35     -0.341398   2 C  s                44      0.341398   3 C  s         
   101     -0.179070   9 O  pz              110     -0.179070  10 O  pz        
   119     -0.179070  11 O  pz        

 Vector   53  Occ=0.000000D+00  E= 1.093122D-01  Symmetry=e'
              MO Center= -1.2D-01,  1.7D-01, -6.9D-18, r^2= 1.1D+01
   Bfn.  Coefficient  Atom+Function         Bfn.  Coefficient  Atom+Function  
  ----- ------------  ---------------      ----- ------------  ---------------
    16      1.321125   1 Fe py               12     -0.696317   1 Fe py        
    89      0.316129   8 C  s                71     -0.204653   6 C  s         
    55     -0.199213   4 O  py               64     -0.199213   5 O  py        
    37      0.190781   2 C  py               46      0.190781   3 C  py        
    19      0.181946   1 Fe dxy              25      0.175209   1 Fe dxy       

 Vector   54  Occ=0.000000D+00  E= 1.093122D-01  Symmetry=e'
              MO Center=  1.2D-01, -1.7D-01,  7.4D-17, r^2= 1.1D+01
   Bfn.  Coefficient  Atom+Function         Bfn.  Coefficient  Atom+Function  
  ----- ------------  ---------------      ----- ------------  ---------------
    15      1.321125   1 Fe px               11     -0.696317   1 Fe px        
    80      0.300673   7 C  s                71     -0.246878   6 C  s         
    19      0.219486   1 Fe dxy              25      0.211360   1 Fe dxy       
    54     -0.199213   4 O  px               63     -0.199213   5 O  px        
    36      0.190781   2 C  px               45      0.190781   3 C  px        

 Vector   55  Occ=0.000000D+00  E= 1.213409D-01  Symmetry=a2'
              MO Center=  8.5D-16, -2.8D-16,  5.3D-33, r^2= 5.6D+00
   Bfn.  Coefficient  Atom+Function         Bfn.  Coefficient  Atom+Function  
  ----- ------------  ---------------      ----- ------------  ---------------
    82      0.403846   7 C  py               90     -0.403846   8 C  px        
    72      0.295636   6 C  px               73     -0.295636   6 C  py        
   109     -0.285720  10 O  py              117      0.285720  11 O  px        
    78      0.260070   7 C  py               86     -0.260070   8 C  px        
    99     -0.209162   9 O  px              100      0.209162   9 O  py        

 Vector   56  Occ=0.000000D+00  E= 1.241828D-01  Symmetry=e'
              MO Center=  1.4D-01, -1.3D-01, -2.5D-17, r^2= 7.4D+00
   Bfn.  Coefficient  Atom+Function         Bfn.  Coefficient  Atom+Function  
  ----- ------------  ---------------      ----- ------------  ---------------
    15      0.803349   1 Fe px               36     -0.463719   2 C  px        
    45     -0.463719   3 C  px               11     -0.421042   1 Fe px        
    32     -0.288351   2 C  px               41     -0.288351   3 C  px        
    54      0.289493   4 O  px               63      0.289493   5 O  px        
    50      0.170946   4 O  px               59      0.170946   5 O  px        

 Vector   57  Occ=0.000000D+00  E= 1.241828D-01  Symmetry=e'
              MO Center= -1.4D-01,  1.3D-01,  4.0D-17, r^2= 7.4D+00
   Bfn.  Coefficient  Atom+Function         Bfn.  Coefficient  Atom+Function  
  ----- ------------  ---------------      ----- ------------  ---------------
    16      0.803349   1 Fe py               37     -0.463719   2 C  py        
    46     -0.463719   3 C  py               12     -0.421042   1 Fe py        
    33     -0.288351   2 C  py               42     -0.288351   3 C  py        
    55      0.289493   4 O  py               64      0.289493   5 O  py        
    51      0.170946   4 O  py               60      0.170946   5 O  py        

 Vector   58  Occ=0.000000D+00  E= 1.381883D-01  Symmetry=a2"
              MO Center= -1.6D-16, -3.1D-16,  1.1D-16, r^2= 8.7D+00
   Bfn.  Coefficient  Atom+Function         Bfn.  Coefficient  Atom+Function  
  ----- ------------  ---------------      ----- ------------  ---------------
    13      1.419051   1 Fe pz               17     -1.157072   1 Fe pz        
    35     -0.491340   2 C  s                44      0.491340   3 C  s         
    38      0.388582   2 C  pz               47      0.388582   3 C  pz        
    74      0.272233   6 C  pz               83      0.272233   7 C  pz        
    92      0.272233   8 C  pz               70      0.231566   6 C  pz        

 Vector   59  Occ=0.000000D+00  E= 1.555099D-01  Symmetry=e'
              MO Center=  9.6D-03,  3.9D-01,  2.9D-18, r^2= 4.7D+00
   Bfn.  Coefficient  Atom+Function         Bfn.  Coefficient  Atom+Function  
  ----- ------------  ---------------      ----- ------------  ---------------
    16      0.454882   1 Fe py               82     -0.333158   7 C  py        
    72      0.300669   6 C  px               89     -0.292322   8 C  s         
    73     -0.284289   6 C  py               12     -0.279524   1 Fe py        
    24     -0.279869   1 Fe dxx              27      0.279869   1 Fe dyy       
    18     -0.266135   1 Fe dxx              21      0.266135   1 Fe dyy       

 Vector   60  Occ=0.000000D+00  E= 1.555099D-01  Symmetry=e'
              MO Center= -9.6D-03, -3.9D-01,  1.9D-18, r^2= 4.7D+00
   Bfn.  Coefficient  Atom+Function         Bfn.  Coefficient  Atom+Function  
  ----- ------------  ---------------      ----- ------------  ---------------
    25      0.559738   1 Fe dxy              19      0.532270   1 Fe dxy       
    15     -0.454882   1 Fe px               90      0.427054   8 C  px        
    11      0.279524   1 Fe px               86      0.280287   8 C  px        
    71     -0.274224   6 C  s               117     -0.273952  11 O  px        
    82      0.272454   7 C  py               80      0.232093   7 C  s         

 Vector   61  Occ=0.000000D+00  E= 2.046551D-01  Symmetry=e"
              MO Center=  5.9D-01, -3.5D-02,  6.2D-17, r^2= 5.2D+00
   Bfn.  Coefficient  Atom+Function         Bfn.  Coefficient  Atom+Function  
  ----- ------------  ---------------      ----- ------------  ---------------
    74      0.445783   6 C  pz               92     -0.396374   8 C  pz        
    37     -0.345550   2 C  py               46      0.345550   3 C  py        
   101     -0.302301   9 O  pz               70      0.297116   6 C  pz        
   119      0.268794  11 O  pz               88     -0.264184   8 C  pz        
    33     -0.243619   2 C  py               42      0.243619   3 C  py        

 Vector   62  Occ=0.000000D+00  E= 2.046551D-01  Symmetry=e"
              MO Center= -5.9D-01,  3.5D-02, -8.9D-17, r^2= 5.2D+00
   Bfn.  Coefficient  Atom+Function         Bfn.  Coefficient  Atom+Function  
  ----- ------------  ---------------      ----- ------------  ---------------
    83      0.486219   7 C  pz               36      0.345550   2 C  px        
    45     -0.345550   3 C  px              110     -0.329722  10 O  pz        
    79      0.324066   7 C  pz               92     -0.285900   8 C  pz        
    32      0.243619   2 C  px               41     -0.243619   3 C  px        
    54     -0.225109   4 O  px               63      0.225109   5 O  px        

 Vector   63  Occ=0.000000D+00  E= 2.805596D-01  Symmetry=a1'
              MO Center=  2.8D-16, -1.0D-16,  3.2D-16, r^2= 2.4D+00
   Bfn.  Coefficient  Atom+Function         Bfn.  Coefficient  Atom+Function  
  ----- ------------  ---------------      ----- ------------  ---------------
    29      0.523676   1 Fe dzz              35     -0.509044   2 C  s         
    44     -0.509044   3 C  s                53      0.493878   4 O  s         
    62      0.493878   5 O  s                23      0.472780   1 Fe dzz       
    10     -0.427675   1 Fe s                38     -0.426308   2 C  pz        
    47      0.426308   3 C  pz               71      0.357223   6 C  s         

 Vector   64  Occ=0.000000D+00  E= 4.961060D-01  Symmetry=a2"
              MO Center=  2.8D-16,  2.5D-16,  3.0D-15, r^2= 8.5D+00
   Bfn.  Coefficient  Atom+Function         Bfn.  Coefficient  Atom+Function  
  ----- ------------  ---------------      ----- ------------  ---------------
    13      4.252875   1 Fe pz               38      1.887963   2 C  pz        
    47      1.887963   3 C  pz               17     -1.310403   1 Fe pz        
    53     -1.054827   4 O  s                62      1.054827   5 O  s         
    35     -0.974541   2 C  s                44      0.974541   3 C  s         
    74     -0.408099   6 C  pz               83     -0.408099   7 C  pz        

 Vector   65  Occ=0.000000D+00  E= 5.028690D-01  Symmetry=a1'
              MO Center= -1.8D-15, -8.5D-16,  8.4D-17, r^2= 4.6D+00
   Bfn.  Coefficient  Atom+Function         Bfn.  Coefficient  Atom+Function  
  ----- ------------  ---------------      ----- ------------  ---------------
    10      1.389294   1 Fe s                35     -1.201657   2 C  s         
    44     -1.201657   3 C  s                71     -1.074800   6 C  s         
    80     -1.074800   7 C  s                89     -1.074800   8 C  s         
    53      0.626850   4 O  s                62      0.626850   5 O  s         
    14      0.578703   1 Fe s                98      0.484487   9 O  s         


 center of mass
 --------------
 x =  -0.00000000 y =  -0.00000000 z =   0.00000000

 moments of inertia (a.u.)
 ------------------
        2255.012792094188           0.000000000000           0.000000000000
           0.000000000000        2255.012792094188           0.000000000000
           0.000000000000           0.000000000000        1950.260605202691

  Mulliken analysis of the total density
  --------------------------------------

    Atom       Charge   Shell Charges
 -----------   ------   -------------------------------------------------------
    1 Fe  26    25.25   1.99  2.01  6.00  1.68  5.97 -0.05  0.99  0.09  0.12  3.00  3.45
    2 C    6     5.71   1.99  0.46  1.31  1.10  0.85
    3 C    6     5.71   1.99  0.46  1.31  1.10  0.85
    4 O    8     8.47   1.99  0.44  2.07  1.57  2.41
    5 O    8     8.47   1.99  0.44  2.07  1.57  2.41
    6 C    6     5.63   1.99  0.45  1.31  1.01  0.87
    7 C    6     5.63   1.99  0.45  1.31  1.01  0.87
    8 C    6     5.63   1.99  0.45  1.31  1.01  0.87
    9 O    8     8.50   1.99  0.44  2.07  1.57  2.42
   10 O    8     8.50   1.99  0.44  2.07  1.57  2.42
   11 O    8     8.50   1.99  0.44  2.07  1.57  2.42

       Multipole analysis of the density wrt the origin
       ------------------------------------------------

     L   x y z        total         open         nuclear
     -   - - -        -----         ----         -------
     0   0 0 0     -0.000000      0.000000     96.000000

     1   1 0 0      0.000000      0.000000     -0.000000
     1   0 1 0     -0.000000      0.000000     -0.000000
     1   0 0 1      0.000000      0.000000      0.000000

     2   2 0 0    -57.470433      0.000000    487.686157
     2   1 1 0     -0.000000      0.000000     -0.000000
     2   1 0 1      0.000000      0.000000     -0.000000
     2   0 2 0    -57.470433      0.000000    487.686157
     2   0 1 1      0.000000      0.000000      0.000000
     2   0 0 2    -55.298866      0.000000    640.100373


 Task  times  cpu:        6.9s     wall:        6.9s


                                NWChem Input Module
                                -------------------


 Summary of allocated global arrays
-----------------------------------
  No active global arrays



                         GA Statistics for process    0
                         ------------------------------

       create   destroy   get      put      acc     scatter   gather  read&inc
calls: 2856     2856     5.73e+04 2.13e+04 8.00e+04    0        0     8216     
number of processes/call 1.37e+00 1.32e+00 1.02e+00 0.00e+00 0.00e+00
bytes total:             2.18e+08 7.17e+07 1.28e+08 0.00e+00 0.00e+00 6.57e+04
bytes remote:            1.36e+08 1.68e+07 7.30e+07 0.00e+00 0.00e+00 0.00e+00
Max memory consumed for GA by this process: 404736 bytes

MA_summarize_allocated_blocks: starting scan ...
MA_summarize_allocated_blocks: scan completed: 0 heap blocks, 0 stack blocks
MA usage statistics:

	allocation statistics:
					      heap	     stack
					      ----	     -----
	current number of blocks	         0	         0
	maximum number of blocks	        17	        14
	current total bytes		         0	         0
	maximum total bytes		    459080	  22512248
	maximum total K-bytes		       460	     22513
	maximum total M-bytes		         1	        23


                                     CITATION
                                     --------
                Please cite the following reference when publishing
                           results obtained with NWChem:

                 M. Valiev, E.J. Bylaska, N. Govind, K. Kowalski,
              T.P. Straatsma, H.J.J. van Dam, D. Wang, J. Nieplocha,
                        E. Apra, T.L. Windus, W.A. de Jong
                 "NWChem: a comprehensive and scalable open-source
                  solution for large scale molecular simulations"
                      Comput. Phys. Commun. 181, 1477 (2010)
                           doi:10.1016/j.cpc.2010.04.018

                                      AUTHORS
                                      -------
          E. Apra, E. J. Bylaska, W. A. de Jong, N. Govind, K. Kowalski,
       T. P. Straatsma, M. Valiev, H. J. J. van Dam, D. Wang, T. L. Windus,
        J. Hammond, J. Autschbach, K. Bhaskaran-Nair, J. Brabec, K. Lopata,
    S. A. Fischer, S. Krishnamoorthy, M. Jacquelin, W. Ma, M. Klemm, O. Villa,
      Y. Chen, V. Anisimov, F. Aquino, S. Hirata, M. T. Hackler, V. Konjkov,
            D. Mejia-Rodriguez, T. Risthaus, M. Malagoli, A. Marenich,
   A. Otero-de-la-Roza, J. Mullin, P. Nichols, R. Peverati, J. Pittner, Y. Zhao,
        P.-D. Fan, A. Fonari, M. J. Williamson, R. J. Harrison, J. R. Rehr,
      M. Dupuis, D. Silverstein, D. M. A. Smith, J. Nieplocha, V. Tipparaju,
    M. Krishnan, B. E. Van Kuiken, A. Vazquez-Mayagoitia, L. Jensen, M. Swart,
      Q. Wu, T. Van Voorhis, A. A. Auer, M. Nooijen, L. D. Crosby, E. Brown,
      G. Cisneros, G. I. Fann, H. Fruchtl, J. Garza, K. Hirao, R. A. Kendall,
      J. A. Nichols, K. Tsemekhman, K. Wolinski, J. Anchell, D. E. Bernholdt,
      P. Borowski, T. Clark, D. Clerc, H. Dachsel, M. J. O. Deegan, K. Dyall,
    D. Elwood, E. Glendening, M. Gutowski, A. C. Hess, J. Jaffe, B. G. Johnson,
     J. Ju, R. Kobayashi, R. Kutteh, Z. Lin, R. Littlefield, X. Long, B. Meng,
      T. Nakajima, S. Niu, L. Pollack, M. Rosing, K. Glaesemann, G. Sandrone,
      M. Stave, H. Taylor, G. Thomas, J. H. van Lenthe, A. T. Wong, Z. Zhang.

 Total times  cpu:       18.3s     wall:       18.5s
