 argument  1 = /home/list1234/source/nwchem-6.8.1-release/QA/tests/si2cl6_gc/si2cl6_gc.nw



============================== echo of input deck ==============================
echo

start si2cl6

title "disilicon hexachloride McM-D test"

geometry units angstrom autosym
  Si  0.0     0.0      0.0
  Si  1.35    1.35     1.35
  Cl  2.5     2.5      0.2
  Cl  2.5     0.2      2.5
  Cl  0.2     2.5      2.5
  Cl -1.15   -1.15     1.15
  Cl -1.15    1.15    -1.15
  Cl  1.15   -1.15    -1.15
end

basis segbas spherical noprint
  Si library cc-pvdz
  Cl  library aug-cc-pvdz
end


set atomscf:tags_z Si Cl
set atomscf:z +1.5 -0.5
set int:cando_txs logical false
set int:cando_hnd logical false

scf
 thresh 1e-10
 vectors atomic
end
set "ao basis" segbas
task scf

================================================================================


                                         
                                         


              Northwest Computational Chemistry Package (NWChem) 6.8
              ------------------------------------------------------


                    Environmental Molecular Sciences Laboratory
                       Pacific Northwest National Laboratory
                                Richland, WA 99352

                              Copyright (c) 1994-2018
                       Pacific Northwest National Laboratory
                            Battelle Memorial Institute

             NWChem is an open-source computational chemistry package
                        distributed under the terms of the
                      Educational Community License (ECL) 2.0
             A copy of the license is included with this distribution
                              in the LICENSE.TXT file

                                  ACKNOWLEDGMENT
                                  --------------

            This software and its documentation were developed at the
            EMSL at Pacific Northwest National Laboratory, a multiprogram
            national laboratory, operated for the U.S. Department of Energy
            by Battelle under Contract Number DE-AC05-76RL01830. Support
            for this work was provided by the Department of Energy Office
            of Biological and Environmental Research, Office of Basic
            Energy Sciences, and the Office of Advanced Scientific Computing.


           Job information
           ---------------

    hostname        = list1234-B360M-H
    program         = /home/list1234/source/nwchem-6.8.1-release/bin/LINUX64/nwchem
    date            = Sun Jun 30 06:04:34 2019

    compiled        = Sun_Jun_30_05:21:11_2019
    source          = /home/list1234/source/nwchem-6.8.1-release
    nwchem branch   = Development
    nwchem revision = N/A
    ga revision     = 5.6.5
    use scalapack   = T
    input           = /home/list1234/source/nwchem-6.8.1-release/QA/tests/si2cl6_gc/si2cl6_gc.nw
    prefix          = si2cl6.
    data base       = ./si2cl6.db
    status          = startup
    nproc           =        4
    time left       =     -1s



           Memory information
           ------------------

    heap     =   86247164 doubles =    658.0 Mbytes
    stack    =   86247169 doubles =    658.0 Mbytes
    global   =  172494336 doubles =   1316.0 Mbytes (distinct from heap & stack)
    total    =  344988669 doubles =   2632.1 Mbytes
    verify   = yes
    hardfail = no 


           Directory information
           ---------------------

  0 permanent = .
  0 scratch   = .




                                NWChem Input Module
                                -------------------


                         disilicon hexachloride McM-D test
                         ---------------------------------

 Scaling coordinates for geometry "geometry" by  1.889725989
 (inverse scale =  0.529177249)

 D3D symmetry detected

          ------
          auto-z
          ------
  no constraints, skipping    0.0000000000000000     
  no constraints, skipping    0.0000000000000000     


                             Geometry "geometry" -> ""
                             -------------------------

 Output coordinates in angstroms (scale by  1.889725989 to convert to a.u.)

  No.       Tag          Charge          X              Y              Z
 ---- ---------------- ---------- -------------- -------------- --------------
    1 Si                  14.0000     0.00000000    -0.00000000    -1.16913430
    2 Si                  14.0000    -0.00000000     0.00000000     1.16913430
    3 Cl                  17.0000    -1.32790562     1.32790562     1.83308710
    4 Cl                  17.0000     1.81395281     0.48604719     1.83308710
    5 Cl                  17.0000    -0.48604719    -1.81395281     1.83308710
    6 Cl                  17.0000     1.32790562    -1.32790562    -1.83308710
    7 Cl                  17.0000    -1.81395281    -0.48604719    -1.83308710
    8 Cl                  17.0000     0.48604719     1.81395281    -1.83308710

      Atomic Mass 
      ----------- 

      Si                27.976930
      Cl                34.968850


 Effective nuclear repulsion energy (a.u.)    1229.4057625114

            Nuclear Dipole moment (a.u.) 
            ----------------------------
        X                 Y               Z
 ---------------- ---------------- ----------------
     0.0000000000    -0.0000000000     0.0000000000

      Symmetry information
      --------------------

 Group name             D3d       
 Group number             33
 Group order              12
 No. of unique centers     2

      Symmetry unique atoms

     1    3



                                Z-matrix (autoz)
                                -------- 

 Units are Angstrom for bonds and degrees for angles

      Type          Name      I     J     K     L     M      Value
      ----------- --------  ----- ----- ----- ----- ----- ----------
    1 Stretch                  1     2                       2.33827
    2 Stretch                  1     6                       1.99186
    3 Stretch                  1     7                       1.99186
    4 Stretch                  1     8                       1.99186
    5 Stretch                  2     3                       1.99186
    6 Stretch                  2     4                       1.99186
    7 Stretch                  2     5                       1.99186
    8 Bend                     1     2     3               109.47122
    9 Bend                     1     2     4               109.47122
   10 Bend                     1     2     5               109.47122
   11 Bend                     2     1     6               109.47122
   12 Bend                     2     1     7               109.47122
   13 Bend                     2     1     8               109.47122
   14 Bend                     3     2     4               109.47122
   15 Bend                     3     2     5               109.47122
   16 Bend                     4     2     5               109.47122
   17 Bend                     6     1     7               109.47122
   18 Bend                     6     1     8               109.47122
   19 Bend                     7     1     8               109.47122
   20 Torsion                  3     2     1     6         180.00000
   21 Torsion                  3     2     1     7         -60.00000
   22 Torsion                  3     2     1     8          60.00000
   23 Torsion                  4     2     1     6          60.00000
   24 Torsion                  4     2     1     7         180.00000
   25 Torsion                  4     2     1     8         -60.00000
   26 Torsion                  5     2     1     6         -60.00000
   27 Torsion                  5     2     1     7          60.00000
   28 Torsion                  5     2     1     8        -180.00000


            XYZ format geometry
            -------------------
     8
 geometry
 Si                    0.00000000    -0.00000000    -1.16913430
 Si                   -0.00000000     0.00000000     1.16913430
 Cl                   -1.32790562     1.32790562     1.83308710
 Cl                    1.81395281     0.48604719     1.83308710
 Cl                   -0.48604719    -1.81395281     1.83308710
 Cl                    1.32790562    -1.32790562    -1.83308710
 Cl                   -1.81395281    -0.48604719    -1.83308710
 Cl                    0.48604719     1.81395281    -1.83308710

 ==============================================================================
                                internuclear distances
 ------------------------------------------------------------------------------
       center one      |      center two      | atomic units |  angstroms
 ------------------------------------------------------------------------------
    2 Si               |   1 Si               |     4.41869  |     2.33827
    3 Cl               |   2 Si               |     3.76407  |     1.99186
    4 Cl               |   2 Si               |     3.76407  |     1.99186
    5 Cl               |   2 Si               |     3.76407  |     1.99186
    6 Cl               |   1 Si               |     3.76407  |     1.99186
    7 Cl               |   1 Si               |     3.76407  |     1.99186
    8 Cl               |   1 Si               |     3.76407  |     1.99186
 ------------------------------------------------------------------------------
                         number of included internuclear distances:          7
 ==============================================================================



 ==============================================================================
                                 internuclear angles
 ------------------------------------------------------------------------------
        center 1       |       center 2       |       center 3       |  degrees
 ------------------------------------------------------------------------------
    2 Si               |   1 Si               |   6 Cl               |   109.47
    2 Si               |   1 Si               |   7 Cl               |   109.47
    2 Si               |   1 Si               |   8 Cl               |   109.47
    6 Cl               |   1 Si               |   7 Cl               |   109.47
    6 Cl               |   1 Si               |   8 Cl               |   109.47
    7 Cl               |   1 Si               |   8 Cl               |   109.47
    1 Si               |   2 Si               |   3 Cl               |   109.47
    1 Si               |   2 Si               |   4 Cl               |   109.47
    1 Si               |   2 Si               |   5 Cl               |   109.47
    3 Cl               |   2 Si               |   4 Cl               |   109.47
    3 Cl               |   2 Si               |   5 Cl               |   109.47
    4 Cl               |   2 Si               |   5 Cl               |   109.47
 ------------------------------------------------------------------------------
                            number of included internuclear angles:         12
 ==============================================================================



                                 NWChem SCF Module
                                 -----------------


                         disilicon hexachloride McM-D test



  ao basis        = "segbas"
  functions       =   198
  atoms           =     8
  closed shells   =    65
  open shells     =     0
  charge          =   0.00
  wavefunction    = RHF 
  input vectors   = atomic
  output vectors  = ./si2cl6.movecs
  use symmetry    = T
  symmetry adapt  = T


 Summary of "ao basis" -> "segbas" (spherical)
 ------------------------------------------------------------------------------
       Tag                 Description            Shells   Functions and Types
 ---------------- ------------------------------  ------  ---------------------
 Si                         cc-pvdz                  8       18   4s3p1d
 Cl                       aug-cc-pvdz               11       27   5s4p2d


      Symmetry analysis of basis
      --------------------------

        a1g        27
        a1u         8
        a2g         8
        a2u        27
        eg         64
        eu         64

  int_init: cando_txs set to always be  F
  int_init: cando_hnd set to always be  F

 Forming initial guess at       0.1s


      Superposition of Atomic Density Guess
      -------------------------------------

 Atomic density modified by a delta charge of   1.50 for atom tag Si
 Atomic density modified by a delta charge of  -0.50 for atom tag Cl
  
 Sum of atomic energies:       -3334.52717338

      Non-variational initial energy
      ------------------------------

 Total energy =   -3336.611709
 1-e energy   =   -7060.119559
 2-e energy   =    2494.102088
 HOMO         =      -0.438423
 LUMO         =      -0.106569


      Symmetry analysis of molecular orbitals - initial
      -------------------------------------------------

  Numbering of irreducible representations: 

     1 a1g         2 a1u         3 a2g         4 a2u         5 eg      
     6 eu      

  Orbital symmetries:

     1 a1g         2 a2u         3 eu          4 eu          5 eg      
     6 eg          7 a1g         8 a2u         9 a1g        10 a2u     
    11 eu         12 eu         13 eg         14 eg         15 a1g     
    16 a2u        17 eu         18 eu         19 eg         20 eg      
    21 a1g        22 a2u        23 eu         24 eu         25 eg      
    26 eg         27 eu         28 eu         29 eg         30 eg      
    31 a2g        32 a1u        33 a1g        34 a2u        35 a1g     
    36 a2u        37 eu         38 eu         39 eg         40 eg      
    41 a1g        42 a2u        43 eu         44 eu         45 eg      
    46 eg         47 a1g        48 a2u        49 a1g        50 eu      
    51 eu         52 eg         53 eg         54 a2u        55 eg      
    56 eg         57 eu         58 eu         59 eu         60 eu      
    61 eg         62 eg         63 a1u        64 a2g        65 a1g     
    66 a2u        67 eu         68 eu         69 a1g        70 a2u     
    71 eg         72 eg         73 a1g        74 eu         75 eu      


 Starting SCF solution at       1.4s



 ----------------------------------------------
         Quadratically convergent ROHF

 Convergence threshold     :          1.000E-10
 Maximum no. of iterations :           30
 Final Fock-matrix accuracy:          1.000E-12
 ----------------------------------------------


              iter       energy          gnorm     gmax       time
             ----- ------------------- --------- --------- --------
                 1    -3335.0768037500  1.22D+00  4.30D-01      6.0
                 2    -3335.1937834441  3.04D-01  5.77D-02     15.2
                 3    -3335.2059667803  2.44D-02  4.25D-03     26.1
                 4    -3335.2060594017  1.73D-04  2.09D-05     43.5
                 5    -3335.2060594051  8.42D-09  1.34D-09     72.7
                 6    -3335.2060594051  2.28D-11  5.84D-12     91.4


       Final RHF  results 
       ------------------ 

         Total SCF energy =  -3335.206059405120
      One-electron energy =  -7066.338994026972
      Two-electron energy =   2501.727172110407
 Nuclear repulsion energy =   1229.405762511445

        Time for solution =     89.9s



       Symmetry analysis of molecular orbitals - final
       -----------------------------------------------

  Numbering of irreducible representations: 

     1 a1g         2 a1u         3 a2g         4 a2u         5 eg      
     6 eu      

  Orbital symmetries:

     1 eg          2 eg          3 a2u         4 a1g         5 eu      
     6 eu          7 a1g         8 a2u         9 eg         10 eg      
    11 eu         12 eu         13 a1g        14 a2u        15 eu      
    16 eu         17 eg         18 eg         19 a2u        20 a1g     
    21 eu         22 eu         23 eg         24 eg         25 a1g     
    26 a2u        27 a2g        28 a1u        29 eg         30 eg      
    31 eu         32 eu         33 a1g        34 a2u        35 eu      
    36 eu         37 eg         38 eg         39 a1g        40 a2u     
    41 a1g        42 a2u        43 eu         44 eu         45 eg      
    46 eg         47 a1g        48 a2u        49 eu         50 eu      
    51 a1g        52 eg         53 eg         54 a2u        55 eg      
    56 eg         57 eu         58 eu         59 eu         60 eu      
    61 eg         62 eg         63 a1u        64 a2g        65 a1g     
    66 eu         67 eu         68 a2u        69 a1g        70 eg      
    71 eg         72 eu         73 eu         74 a2u        75 a1g     

             Final eigenvalues
             -----------------

              1      
    1 -104.8579
    2 -104.8579
    3 -104.8579
    4 -104.8579
    5 -104.8579
    6 -104.8579
    7  -68.9210
    8  -68.9210
    9  -10.5882
   10  -10.5882
   11  -10.5882
   12  -10.5882
   13  -10.5882
   14  -10.5882
   15   -8.0555
   16   -8.0555
   17   -8.0555
   18   -8.0555
   19   -8.0555
   20   -8.0555
   21   -8.0525
   22   -8.0525
   23   -8.0525
   24   -8.0525
   25   -8.0525
   26   -8.0525
   27   -8.0525
   28   -8.0525
   29   -8.0525
   30   -8.0525
   31   -8.0525
   32   -8.0525
   33   -6.2602
   34   -6.2601
   35   -4.3672
   36   -4.3672
   37   -4.3671
   38   -4.3671
   39   -4.3653
   40   -4.3645
   41   -1.1803
   42   -1.1706
   43   -1.1275
   44   -1.1275
   45   -1.1245
   46   -1.1245
   47   -0.7611
   48   -0.7006
   49   -0.6042
   50   -0.6042
   51   -0.6003
   52   -0.5907
   53   -0.5907
   54   -0.5281
   55   -0.5226
   56   -0.5226
   57   -0.5165
   58   -0.5165
   59   -0.4981
   60   -0.4981
   61   -0.4832
   62   -0.4832
   63   -0.4758
   64   -0.4713
   65   -0.4193
   66    0.0785
   67    0.0785
   68    0.0815
   69    0.0873
   70    0.1057
   71    0.1057
   72    0.1127
   73    0.1127
   74    0.1277
   75    0.1292

                       ROHF Final Molecular Orbital Analysis
                       -------------------------------------

 Vector   41  Occ=2.000000D+00  E=-1.180251D+00  Symmetry=a1g
              MO Center=  0.0D+00,  8.3D-17,  4.4D-16, r^2= 6.2D+00
   Bfn.  Coefficient  Atom+Function         Bfn.  Coefficient  Atom+Function  
  ----- ------------  ---------------      ----- ------------  ---------------
    40      0.213946  3 Cl s                 67      0.213946  4 Cl s          
    94      0.213946  5 Cl s                121      0.213946  6 Cl s          
   148      0.213946  7 Cl s                175      0.213946  8 Cl s          
    39      0.180814  3 Cl s                 66      0.180814  4 Cl s          
    93      0.180814  5 Cl s                120      0.180814  6 Cl s          

 Vector   42  Occ=2.000000D+00  E=-1.170619D+00  Symmetry=a2u
              MO Center=  0.0D+00, -1.7D-16,  3.3D-16, r^2= 6.4D+00
   Bfn.  Coefficient  Atom+Function         Bfn.  Coefficient  Atom+Function  
  ----- ------------  ---------------      ----- ------------  ---------------
    40      0.219976  3 Cl s                 67      0.219976  4 Cl s          
    94      0.219976  5 Cl s                121     -0.219976  6 Cl s          
   148     -0.219976  7 Cl s                175     -0.219976  8 Cl s          
    39      0.186182  3 Cl s                 66      0.186182  4 Cl s          
    93      0.186182  5 Cl s                120     -0.186182  6 Cl s          

 Vector   43  Occ=2.000000D+00  E=-1.127486D+00  Symmetry=eu
              MO Center=  4.3D-14,  4.6D-14,  8.0D-14, r^2= 7.0D+00
   Bfn.  Coefficient  Atom+Function         Bfn.  Coefficient  Atom+Function  
  ----- ------------  ---------------      ----- ------------  ---------------
    66      0.287163  4 Cl s                 67      0.288182  4 Cl s          
   147     -0.287163  7 Cl s                148     -0.288182  7 Cl s          
    93     -0.204888  5 Cl s                 94     -0.205615  5 Cl s          
   174      0.204888  8 Cl s                175      0.205615  8 Cl s          

 Vector   44  Occ=2.000000D+00  E=-1.127486D+00  Symmetry=eu
              MO Center=  8.1D-15, -6.8D-15, -1.8D-14, r^2= 7.0D+00
   Bfn.  Coefficient  Atom+Function         Bfn.  Coefficient  Atom+Function  
  ----- ------------  ---------------      ----- ------------  ---------------
    39      0.284085  3 Cl s                 40      0.285093  3 Cl s          
   120     -0.284085  6 Cl s                121     -0.285093  6 Cl s          
    93     -0.213295  5 Cl s                 94     -0.214052  5 Cl s          
   174      0.213295  8 Cl s                175      0.214052  8 Cl s          

 Vector   45  Occ=2.000000D+00  E=-1.124541D+00  Symmetry=eg
              MO Center=  1.8D-15, -7.8D-15,  1.6D-14, r^2= 7.0D+00
   Bfn.  Coefficient  Atom+Function         Bfn.  Coefficient  Atom+Function  
  ----- ------------  ---------------      ----- ------------  ---------------
    94      0.303357  5 Cl s                175      0.303357  8 Cl s          
    93      0.292714  5 Cl s                174      0.292714  8 Cl s          
    67     -0.190157  4 Cl s                148     -0.190157  7 Cl s          
    66     -0.183486  4 Cl s                147     -0.183486  7 Cl s          

 Vector   46  Occ=2.000000D+00  E=-1.124541D+00  Symmetry=eg
              MO Center= -5.1D-14, -3.7D-14, -7.2D-14, r^2= 7.0D+00
   Bfn.  Coefficient  Atom+Function         Bfn.  Coefficient  Atom+Function  
  ----- ------------  ---------------      ----- ------------  ---------------
    40      0.284930  3 Cl s                121      0.284930  6 Cl s          
    39      0.274934  3 Cl s                120      0.274934  6 Cl s          
    67     -0.240499  4 Cl s                148     -0.240499  7 Cl s          
    66     -0.232061  4 Cl s                147     -0.232061  7 Cl s          

 Vector   47  Occ=2.000000D+00  E=-7.610963D-01  Symmetry=a1g
              MO Center= -6.9D-17,  4.2D-17,  1.7D-16, r^2= 5.6D+00
   Bfn.  Coefficient  Atom+Function         Bfn.  Coefficient  Atom+Function  
  ----- ------------  ---------------      ----- ------------  ---------------
     3      0.306669  1 Si s                 21      0.306669  2 Si s          

 Vector   48  Occ=2.000000D+00  E=-7.006040D-01  Symmetry=a2u
              MO Center= -1.1D-15,  1.1D-16,  4.4D-16, r^2= 7.4D+00
   Bfn.  Coefficient  Atom+Function         Bfn.  Coefficient  Atom+Function  
  ----- ------------  ---------------      ----- ------------  ---------------
     3      0.266047  1 Si s                 21     -0.266047  2 Si s          
    72      0.171375  4 Cl px               100     -0.171375  5 Cl py         
   153      0.171375  7 Cl px               181     -0.171375  8 Cl py         

 Vector   49  Occ=2.000000D+00  E=-6.041649D-01  Symmetry=eu
              MO Center= -3.7D-15,  1.9D-15, -4.1D-15, r^2= 7.3D+00
   Bfn.  Coefficient  Atom+Function         Bfn.  Coefficient  Atom+Function  
  ----- ------------  ---------------      ----- ------------  ---------------
    72      0.229632  4 Cl px               153      0.229632  7 Cl px         
   100      0.184428  5 Cl py               181      0.184428  8 Cl py         
     8     -0.172697  1 Si px                26     -0.172697  2 Si px         

 Vector   50  Occ=2.000000D+00  E=-6.041649D-01  Symmetry=eu
              MO Center= -1.0D-14,  9.8D-15,  7.7D-15, r^2= 7.3D+00
   Bfn.  Coefficient  Atom+Function         Bfn.  Coefficient  Atom+Function  
  ----- ------------  ---------------      ----- ------------  ---------------
    45      0.185745  3 Cl px               126      0.185745  6 Cl px         
     9      0.172697  1 Si py                27      0.172697  2 Si py         

 Vector   51  Occ=2.000000D+00  E=-6.002983D-01  Symmetry=a1g
              MO Center=  1.7D-15,  1.4D-17,  4.4D-16, r^2= 6.0D+00
   Bfn.  Coefficient  Atom+Function         Bfn.  Coefficient  Atom+Function  
  ----- ------------  ---------------      ----- ------------  ---------------
    10      0.215409  1 Si pz                28     -0.215409  2 Si pz         

 Vector   52  Occ=2.000000D+00  E=-5.906997D-01  Symmetry=eg
              MO Center= -8.4D-15, -1.4D-14, -1.4D-15, r^2= 7.4D+00
   Bfn.  Coefficient  Atom+Function         Bfn.  Coefficient  Atom+Function  
  ----- ------------  ---------------      ----- ------------  ---------------
   100      0.244285  5 Cl py               181     -0.244285  8 Cl py         
    45     -0.191147  3 Cl px               126      0.191147  6 Cl px         
     9      0.188444  1 Si py                27     -0.188444  2 Si py         

 Vector   53  Occ=2.000000D+00  E=-5.906997D-01  Symmetry=eg
              MO Center= -2.4D-14,  8.6D-15, -4.2D-15, r^2= 7.4D+00
   Bfn.  Coefficient  Atom+Function         Bfn.  Coefficient  Atom+Function  
  ----- ------------  ---------------      ----- ------------  ---------------
    72     -0.212174  4 Cl px               153      0.212174  7 Cl px         
    46      0.208822  3 Cl py               127     -0.208822  6 Cl py         
     8     -0.188444  1 Si px                26      0.188444  2 Si px         

 Vector   54  Occ=2.000000D+00  E=-5.281094D-01  Symmetry=a2u
              MO Center=  1.8D-14,  4.4D-14, -1.3D-14, r^2= 7.6D+00
   Bfn.  Coefficient  Atom+Function         Bfn.  Coefficient  Atom+Function  
  ----- ------------  ---------------      ----- ------------  ---------------
    47      0.230524  3 Cl pz                74      0.230524  4 Cl pz         
   101      0.230524  5 Cl pz               128      0.230524  6 Cl pz         
   155      0.230524  7 Cl pz               182      0.230524  8 Cl pz         
    50      0.182476  3 Cl pz                77      0.182476  4 Cl pz         
   104      0.182476  5 Cl pz               131      0.182476  6 Cl pz         

 Vector   55  Occ=2.000000D+00  E=-5.225743D-01  Symmetry=eg
              MO Center=  2.2D-14, -3.0D-14, -2.8D-13, r^2= 7.7D+00
   Bfn.  Coefficient  Atom+Function         Bfn.  Coefficient  Atom+Function  
  ----- ------------  ---------------      ----- ------------  ---------------
    45      0.181004  3 Cl px                46      0.181169  3 Cl py         
   126     -0.181004  6 Cl px               127     -0.181169  6 Cl py         
    74      0.179410  4 Cl pz               101     -0.179721  5 Cl pz         
   155     -0.179410  7 Cl pz               182      0.179721  8 Cl pz         

 Vector   56  Occ=2.000000D+00  E=-5.225743D-01  Symmetry=eg
              MO Center=  2.3D-14,  2.6D-14, -1.8D-13, r^2= 7.7D+00
   Bfn.  Coefficient  Atom+Function         Bfn.  Coefficient  Atom+Function  
  ----- ------------  ---------------      ----- ------------  ---------------
    47      0.207345  3 Cl pz               128     -0.207345  6 Cl pz         
    73      0.203966  4 Cl py                99     -0.204389  5 Cl px         
   154     -0.203966  7 Cl py               180      0.204389  8 Cl px         
    76      0.161846  4 Cl py               102     -0.162161  5 Cl px         
   157     -0.161846  7 Cl py               183      0.162161  8 Cl px         

 Vector   57  Occ=2.000000D+00  E=-5.164789D-01  Symmetry=eu
              MO Center= -1.4D-15,  3.0D-14,  2.8D-13, r^2= 7.7D+00
   Bfn.  Coefficient  Atom+Function         Bfn.  Coefficient  Atom+Function  
  ----- ------------  ---------------      ----- ------------  ---------------
    74      0.218491  4 Cl pz               155      0.218491  7 Cl pz         
    45      0.177745  3 Cl px               126      0.177745  6 Cl px         
    46      0.174308  3 Cl py               127      0.174308  6 Cl py         
    99      0.171941  5 Cl px               180      0.171941  8 Cl px         
    77      0.167078  4 Cl pz               158      0.167078  7 Cl pz         

 Vector   58  Occ=2.000000D+00  E=-5.164789D-01  Symmetry=eu
              MO Center=  1.9D-16,  8.5D-15,  1.6D-13, r^2= 7.7D+00
   Bfn.  Coefficient  Atom+Function         Bfn.  Coefficient  Atom+Function  
  ----- ------------  ---------------      ----- ------------  ---------------
    73      0.236191  4 Cl py               154      0.236191  7 Cl py         
    47      0.221712  3 Cl pz               128      0.221712  6 Cl pz         
    76      0.178534  4 Cl py                99     -0.177659  5 Cl px         
   157      0.178534  7 Cl py               180     -0.177659  8 Cl px         
    50      0.169541  3 Cl pz               131      0.169541  6 Cl pz         

 Vector   59  Occ=2.000000D+00  E=-4.981162D-01  Symmetry=eu
              MO Center=  1.5D-14,  6.7D-15,  1.2D-13, r^2= 7.7D+00
   Bfn.  Coefficient  Atom+Function         Bfn.  Coefficient  Atom+Function  
  ----- ------------  ---------------      ----- ------------  ---------------
    72      0.204062  4 Cl px               153      0.204062  7 Cl px         
    74     -0.198968  4 Cl pz               155     -0.198968  7 Cl pz         
    77     -0.186224  4 Cl pz               158     -0.186224  7 Cl pz         
    45      0.169920  3 Cl px               126      0.169920  6 Cl px         
    99      0.166095  5 Cl px               180      0.166095  8 Cl px         

 Vector   60  Occ=2.000000D+00  E=-4.981162D-01  Symmetry=eu
              MO Center= -2.4D-15, -2.6D-14,  4.8D-14, r^2= 7.7D+00
   Bfn.  Coefficient  Atom+Function         Bfn.  Coefficient  Atom+Function  
  ----- ------------  ---------------      ----- ------------  ---------------
   100      0.193956  5 Cl py               181      0.193956  8 Cl py         
    46      0.190131  3 Cl py                47     -0.189407  3 Cl pz         
   127      0.190131  6 Cl py               128     -0.189407  6 Cl pz         
    50     -0.177275  3 Cl pz               131     -0.177275  6 Cl pz         
    73      0.155989  4 Cl py               101      0.155216  5 Cl pz         

 Vector   61  Occ=2.000000D+00  E=-4.832270D-01  Symmetry=eg
              MO Center=  1.1D-14,  8.4D-15, -1.0D-13, r^2= 7.8D+00
   Bfn.  Coefficient  Atom+Function         Bfn.  Coefficient  Atom+Function  
  ----- ------------  ---------------      ----- ------------  ---------------
   101      0.256394  5 Cl pz               182     -0.256394  8 Cl pz         
   104      0.213577  5 Cl pz               185     -0.213577  8 Cl pz         
    74     -0.184758  4 Cl pz               155      0.184758  7 Cl pz         
   100      0.162754  5 Cl py               181     -0.162754  8 Cl py         
    77     -0.153904  4 Cl pz               158      0.153904  7 Cl pz         

 Vector   62  Occ=2.000000D+00  E=-4.832270D-01  Symmetry=eg
              MO Center= -1.0D-14, -2.1D-15, -6.0D-14, r^2= 7.8D+00
   Bfn.  Coefficient  Atom+Function         Bfn.  Coefficient  Atom+Function  
  ----- ------------  ---------------      ----- ------------  ---------------
    47      0.254700  3 Cl pz               128     -0.254700  6 Cl pz         
    50      0.212165  3 Cl pz               131     -0.212165  6 Cl pz         
    74     -0.189389  4 Cl pz               155      0.189389  7 Cl pz         
    77     -0.157761  4 Cl pz               158      0.157761  7 Cl pz         
    45      0.155715  3 Cl px                72      0.156011  4 Cl px         

 Vector   63  Occ=2.000000D+00  E=-4.758492D-01  Symmetry=a1u
              MO Center= -3.2D-14, -4.8D-14,  4.4D-16, r^2= 7.9D+00
   Bfn.  Coefficient  Atom+Function         Bfn.  Coefficient  Atom+Function  
  ----- ------------  ---------------      ----- ------------  ---------------
    73      0.246394  4 Cl py                99      0.246394  5 Cl px         
   154      0.246394  7 Cl py               180      0.246394  8 Cl px         
    76      0.205354  4 Cl py               102      0.205354  5 Cl px         
   157      0.205354  7 Cl py               183      0.205354  8 Cl px         
    45     -0.180373  3 Cl px                46     -0.180373  3 Cl py         

 Vector   64  Occ=2.000000D+00  E=-4.713225D-01  Symmetry=a2g
              MO Center= -2.3D-14, -7.5D-15,  4.4D-16, r^2= 8.0D+00
   Bfn.  Coefficient  Atom+Function         Bfn.  Coefficient  Atom+Function  
  ----- ------------  ---------------      ----- ------------  ---------------
    73      0.248794  4 Cl py                99      0.248794  5 Cl px         
   154     -0.248794  7 Cl py               180     -0.248794  8 Cl px         
    76      0.206301  4 Cl py               102      0.206301  5 Cl px         
   157     -0.206301  7 Cl py               183     -0.206301  8 Cl px         
    45     -0.182130  3 Cl px                46     -0.182130  3 Cl py         

 Vector   65  Occ=2.000000D+00  E=-4.192673D-01  Symmetry=a1g
              MO Center= -7.2D-15, -5.7D-15,  9.2D-15, r^2= 5.5D+00
   Bfn.  Coefficient  Atom+Function         Bfn.  Coefficient  Atom+Function  
  ----- ------------  ---------------      ----- ------------  ---------------
    10      0.242640  1 Si pz                28     -0.242640  2 Si pz         
    47      0.192229  3 Cl pz                74      0.192229  4 Cl pz         
   101      0.192229  5 Cl pz               128     -0.192229  6 Cl pz         
   155     -0.192229  7 Cl pz               182     -0.192229  8 Cl pz         
    50      0.171527  3 Cl pz                77      0.171527  4 Cl pz         

 Vector   66  Occ=0.000000D+00  E= 7.854072D-02  Symmetry=eu
              MO Center= -2.2D-16,  7.8D-16,  0.0D+00, r^2= 2.1D+01
   Bfn.  Coefficient  Atom+Function         Bfn.  Coefficient  Atom+Function  
  ----- ------------  ---------------      ----- ------------  ---------------
    41      0.936463  3 Cl s                122     -0.936463  6 Cl s          
    51      0.702031  3 Cl px               132      0.702031  6 Cl px         
    52     -0.686403  3 Cl py               133     -0.686403  6 Cl py         
    78      0.568099  4 Cl px               159      0.568099  7 Cl px         
    11      0.507536  1 Si px                29      0.507536  2 Si px         

 Vector   67  Occ=0.000000D+00  E= 7.854072D-02  Symmetry=eu
              MO Center= -2.8D-16,  1.4D-15, -1.7D-15, r^2= 2.1D+01
   Bfn.  Coefficient  Atom+Function         Bfn.  Coefficient  Atom+Function  
  ----- ------------  ---------------      ----- ------------  ---------------
    95     -0.829361  5 Cl s                176      0.829361  8 Cl s          
   106     -0.805869  5 Cl py               187     -0.805869  8 Cl py         
    68      0.792640  4 Cl s                149     -0.792640  7 Cl s          
    78     -0.763728  4 Cl px               159     -0.763728  7 Cl px         
    12     -0.507536  1 Si py                30     -0.507536  2 Si py         

 Vector   68  Occ=0.000000D+00  E= 8.148251D-02  Symmetry=a2u
              MO Center= -1.2D-15,  5.6D-16,  8.9D-16, r^2= 2.3D+01
   Bfn.  Coefficient  Atom+Function         Bfn.  Coefficient  Atom+Function  
  ----- ------------  ---------------      ----- ------------  ---------------
     4      1.382986  1 Si s                 22     -1.382986  2 Si s          
    53     -0.514882  3 Cl pz                80     -0.514882  4 Cl pz         
   107     -0.514882  5 Cl pz               134     -0.514882  6 Cl pz         
   161     -0.514882  7 Cl pz               188     -0.514882  8 Cl pz         
    78     -0.343031  4 Cl px               106      0.343031  5 Cl py         

 Vector   69  Occ=0.000000D+00  E= 8.726074D-02  Symmetry=a1g
              MO Center= -1.2D-14, -2.0D-15,  5.6D-16, r^2= 2.0D+01
   Bfn.  Coefficient  Atom+Function         Bfn.  Coefficient  Atom+Function  
  ----- ------------  ---------------      ----- ------------  ---------------
    41      0.433723  3 Cl s                 68      0.433723  4 Cl s          
    95      0.433723  5 Cl s                122      0.433723  6 Cl s          
   149      0.433723  7 Cl s                176      0.433723  8 Cl s          
    78      0.333227  4 Cl px               106     -0.333227  5 Cl py         
   159     -0.333227  7 Cl px               187      0.333227  8 Cl py         

 Vector   70  Occ=0.000000D+00  E= 1.056947D-01  Symmetry=eg
              MO Center= -2.2D-16,  2.7D-15, -2.4D-15, r^2= 2.7D+01
   Bfn.  Coefficient  Atom+Function         Bfn.  Coefficient  Atom+Function  
  ----- ------------  ---------------      ----- ------------  ---------------
    41      1.174054  3 Cl s                122      1.174054  6 Cl s          
    51      0.853761  3 Cl px                52     -0.854281  3 Cl py         
   132     -0.853761  6 Cl px               133      0.854281  6 Cl py         
    95     -0.640638  5 Cl s                106     -0.638094  5 Cl py         
   176     -0.640638  8 Cl s                187      0.638094  8 Cl py         

 Vector   71  Occ=0.000000D+00  E= 1.056947D-01  Symmetry=eg
              MO Center= -1.7D-15, -3.9D-15, -2.2D-16, r^2= 2.7D+01
   Bfn.  Coefficient  Atom+Function         Bfn.  Coefficient  Atom+Function  
  ----- ------------  ---------------      ----- ------------  ---------------
    68      1.047713  4 Cl s                149      1.047713  7 Cl s          
    78     -1.040254  4 Cl px               159      1.040254  7 Cl px         
    95     -0.985808  5 Cl s                176     -0.985808  8 Cl s          
   106     -0.978576  5 Cl py               187      0.978576  8 Cl py         
    11      0.580006  1 Si px                29     -0.580006  2 Si px         

 Vector   72  Occ=0.000000D+00  E= 1.126507D-01  Symmetry=eu
              MO Center= -9.5D-14, -2.2D-14, -1.4D-13, r^2= 1.0D+01
   Bfn.  Coefficient  Atom+Function         Bfn.  Coefficient  Atom+Function  
  ----- ------------  ---------------      ----- ------------  ---------------
    41      0.550566  3 Cl s                122     -0.550566  6 Cl s          
    95     -0.544183  5 Cl s                176      0.544183  8 Cl s          
    52     -0.422347  3 Cl py                79     -0.423217  4 Cl py         
   106     -0.422043  5 Cl py               133     -0.422347  6 Cl py         
   160     -0.423217  7 Cl py               187     -0.422043  8 Cl py         

 Vector   73  Occ=0.000000D+00  E= 1.126507D-01  Symmetry=eu
              MO Center=  5.6D-14, -4.7D-14, -2.6D-14, r^2= 1.0D+01
   Bfn.  Coefficient  Atom+Function         Bfn.  Coefficient  Atom+Function  
  ----- ------------  ---------------      ----- ------------  ---------------
    68      0.632053  4 Cl s                149     -0.632053  7 Cl s          
    51     -0.422725  3 Cl px                78     -0.421854  4 Cl px         
   105     -0.423028  5 Cl px               132     -0.422725  6 Cl px         
   159     -0.421854  7 Cl px               186     -0.423028  8 Cl px         
    11      0.357735  1 Si px                29      0.357735  2 Si px         

 Vector   74  Occ=0.000000D+00  E= 1.277139D-01  Symmetry=a2u
              MO Center=  5.0D-15, -1.8D-14,  6.7D-16, r^2= 1.6D+01
   Bfn.  Coefficient  Atom+Function         Bfn.  Coefficient  Atom+Function  
  ----- ------------  ---------------      ----- ------------  ---------------
    13      0.803922  1 Si pz                31      0.803922  2 Si pz         
     4     -0.728638  1 Si s                 22      0.728638  2 Si s          
    78      0.358762  4 Cl px               106     -0.358762  5 Cl py         
   159      0.358762  7 Cl px               187     -0.358762  8 Cl py         
    53     -0.290566  3 Cl pz                80     -0.290566  4 Cl pz         

 Vector   75  Occ=0.000000D+00  E= 1.292407D-01  Symmetry=a1g
              MO Center= -6.1D-15, -1.6D-15, -2.2D-14, r^2= 1.8D+01
   Bfn.  Coefficient  Atom+Function         Bfn.  Coefficient  Atom+Function  
  ----- ------------  ---------------      ----- ------------  ---------------
     4      1.676878  1 Si s                 22      1.676878  2 Si s          
    13     -0.731020  1 Si pz                31      0.731020  2 Si pz         
    41     -0.494892  3 Cl s                 68     -0.494892  4 Cl s          
    95     -0.494892  5 Cl s                122     -0.494892  6 Cl s          
   149     -0.494892  7 Cl s                176     -0.494892  8 Cl s          

 Vector   76  Occ=0.000000D+00  E= 1.365629D-01  Symmetry=eg
              MO Center=  2.3D-14,  1.9D-14, -2.2D-15, r^2= 1.9D+01
   Bfn.  Coefficient  Atom+Function         Bfn.  Coefficient  Atom+Function  
  ----- ------------  ---------------      ----- ------------  ---------------
    12      0.691472  1 Si py                30     -0.691472  2 Si py         
    11      0.685432  1 Si px                29     -0.685432  2 Si px         
    51      0.429582  3 Cl px                52      0.428815  3 Cl py         
   132     -0.429582  6 Cl px               133     -0.428815  6 Cl py         
    95     -0.296419  5 Cl s                176     -0.296419  8 Cl s          

 Vector   77  Occ=0.000000D+00  E= 1.365629D-01  Symmetry=eg
              MO Center=  7.8D-16,  1.6D-14,  6.0D-15, r^2= 1.9D+01
   Bfn.  Coefficient  Atom+Function         Bfn.  Coefficient  Atom+Function  
  ----- ------------  ---------------      ----- ------------  ---------------
    11      0.691472  1 Si px                29     -0.691472  2 Si px         
    12     -0.685432  1 Si py                30      0.685432  2 Si py         
    79     -0.522586  4 Cl py               105      0.524914  5 Cl px         
   160      0.522586  7 Cl py               186     -0.524914  8 Cl px         
    41     -0.341411  3 Cl s                122     -0.341411  6 Cl s          

 Vector   78  Occ=0.000000D+00  E= 1.576671D-01  Symmetry=a1g
              MO Center=  1.5D-15,  8.5D-16,  8.9D-16, r^2= 1.3D+01
   Bfn.  Coefficient  Atom+Function         Bfn.  Coefficient  Atom+Function  
  ----- ------------  ---------------      ----- ------------  ---------------
     4      1.286531  1 Si s                 22      1.286531  2 Si s          
    53      0.358855  3 Cl pz                80      0.358855  4 Cl pz         
   107      0.358855  5 Cl pz               134     -0.358855  6 Cl pz         
   161     -0.358855  7 Cl pz               188     -0.358855  8 Cl pz         
    41     -0.325528  3 Cl s                 68     -0.325528  4 Cl s          

 Vector   79  Occ=0.000000D+00  E= 1.610293D-01  Symmetry=eu
              MO Center=  3.9D-15, -2.3D-15, -5.6D-15, r^2= 1.9D+01
   Bfn.  Coefficient  Atom+Function         Bfn.  Coefficient  Atom+Function  
  ----- ------------  ---------------      ----- ------------  ---------------
    41      0.792574  3 Cl s                122     -0.792574  6 Cl s          
    53     -0.779465  3 Cl pz               134     -0.779465  6 Cl pz         
    12     -0.619749  1 Si py                30     -0.619749  2 Si py         
    95     -0.536099  5 Cl s                176      0.536099  8 Cl s          
   107      0.527232  5 Cl pz               188      0.527232  8 Cl pz         

 Vector   80  Occ=0.000000D+00  E= 1.610293D-01  Symmetry=eu
              MO Center=  3.2D-15,  3.1D-15,  3.4D-15, r^2= 1.9D+01
   Bfn.  Coefficient  Atom+Function         Bfn.  Coefficient  Atom+Function  
  ----- ------------  ---------------      ----- ------------  ---------------
    68      0.767110  4 Cl s                149     -0.767110  7 Cl s          
    80     -0.754422  4 Cl pz               161     -0.754422  7 Cl pz         
    11     -0.619749  1 Si px                29     -0.619749  2 Si px         
    95     -0.605669  5 Cl s                176      0.605669  8 Cl s          
   107      0.595651  5 Cl pz               188      0.595651  8 Cl pz         

 Vector   81  Occ=0.000000D+00  E= 1.656760D-01  Symmetry=a2u
              MO Center=  1.9D-15, -2.5D-16, -1.2D-16, r^2= 7.8D+00
   Bfn.  Coefficient  Atom+Function         Bfn.  Coefficient  Atom+Function  
  ----- ------------  ---------------      ----- ------------  ---------------
    13      1.700262  1 Si pz                31      1.700262  2 Si pz         
     4      0.810534  1 Si s                 22     -0.810534  2 Si s          
    78      0.304763  4 Cl px               106     -0.304763  5 Cl py         
   159      0.304763  7 Cl px               187     -0.304763  8 Cl py         
    10      0.232700  1 Si pz                28      0.232700  2 Si pz         

 Vector   82  Occ=0.000000D+00  E= 1.718272D-01  Symmetry=eu
              MO Center= -7.0D-16, -9.1D-16, -2.0D-15, r^2= 2.0D+01
   Bfn.  Coefficient  Atom+Function         Bfn.  Coefficient  Atom+Function  
  ----- ------------  ---------------      ----- ------------  ---------------
   106      0.632438  5 Cl py               187      0.632438  8 Cl py         
    78      0.597407  4 Cl px               159      0.597407  7 Cl px         
   107      0.517907  5 Cl pz               188      0.517907  8 Cl pz         
    80     -0.469326  4 Cl pz               161     -0.469326  7 Cl pz         
    51     -0.393419  3 Cl px               132     -0.393419  6 Cl px         

 Vector   83  Occ=0.000000D+00  E= 1.718272D-01  Symmetry=eu
              MO Center=  8.2D-16, -4.5D-15,  9.8D-15, r^2= 2.0D+01
   Bfn.  Coefficient  Atom+Function         Bfn.  Coefficient  Atom+Function  
  ----- ------------  ---------------      ----- ------------  ---------------
    53      0.569979  3 Cl pz               134      0.569979  6 Cl pz         
   105     -0.511669  5 Cl px               186     -0.511669  8 Cl px         
    52     -0.495218  3 Cl py                79      0.495608  4 Cl py         
   133     -0.495218  6 Cl py               160      0.495608  7 Cl py         
    51      0.434910  3 Cl px               132      0.434910  6 Cl px         

 Vector   84  Occ=0.000000D+00  E= 1.730821D-01  Symmetry=a1u
              MO Center= -7.2D-16,  7.5D-16, -2.2D-16, r^2= 2.0D+01
   Bfn.  Coefficient  Atom+Function         Bfn.  Coefficient  Atom+Function  
  ----- ------------  ---------------      ----- ------------  ---------------
    79      0.868707  4 Cl py               105      0.868707  5 Cl px         
   160      0.868707  7 Cl py               186      0.868707  8 Cl px         
    51     -0.635937  3 Cl px                52     -0.635937  3 Cl py         
   132     -0.635937  6 Cl px               133     -0.635937  6 Cl py         
    78     -0.232769  4 Cl px               106     -0.232769  5 Cl py         

 Vector   85  Occ=0.000000D+00  E= 1.979792D-01  Symmetry=a1g
              MO Center=  1.4D-14,  8.7D-16,  2.8D-15, r^2= 1.2D+01
   Bfn.  Coefficient  Atom+Function         Bfn.  Coefficient  Atom+Function  
  ----- ------------  ---------------      ----- ------------  ---------------
    13      0.412471  1 Si pz                31     -0.412471  2 Si pz         
    78      0.389966  4 Cl px               106     -0.389966  5 Cl py         
   159     -0.389966  7 Cl px               187      0.389966  8 Cl py         
     4      0.365282  1 Si s                 22      0.365282  2 Si s          
    51     -0.285475  3 Cl px                52      0.285475  3 Cl py         

 Vector   86  Occ=0.000000D+00  E= 2.001897D-01  Symmetry=eg
              MO Center= -8.0D-14, -6.6D-14, -3.8D-14, r^2= 2.0D+01
   Bfn.  Coefficient  Atom+Function         Bfn.  Coefficient  Atom+Function  
  ----- ------------  ---------------      ----- ------------  ---------------
    80      1.178555  4 Cl pz               161     -1.178555  7 Cl pz         
   107     -0.900478  5 Cl pz               188      0.900478  8 Cl pz         
    78     -0.592867  4 Cl px               159      0.592867  7 Cl px         
    51     -0.541432  3 Cl px               105     -0.543421  5 Cl px         
   132      0.541432  6 Cl px               186      0.543421  8 Cl px         

 Vector   87  Occ=0.000000D+00  E= 2.001897D-01  Symmetry=eg
              MO Center=  2.1D-14, -3.0D-14,  2.8D-14, r^2= 2.0D+01
   Bfn.  Coefficient  Atom+Function         Bfn.  Coefficient  Atom+Function  
  ----- ------------  ---------------      ----- ------------  ---------------
    53      1.200330  3 Cl pz               134     -1.200330  6 Cl pz         
   107     -0.840987  5 Cl pz               188      0.840987  8 Cl pz         
    52     -0.577049  3 Cl py               106     -0.575059  5 Cl py         
   133      0.577049  6 Cl py               187      0.575059  8 Cl py         
    79     -0.525613  4 Cl py               160      0.525613  7 Cl py         

 Vector   88  Occ=0.000000D+00  E= 2.039832D-01  Symmetry=a2u
              MO Center= -6.9D-13, -6.1D-13, -3.8D-15, r^2= 1.5D+01
   Bfn.  Coefficient  Atom+Function         Bfn.  Coefficient  Atom+Function  
  ----- ------------  ---------------      ----- ------------  ---------------
     4      0.962367  1 Si s                 22     -0.962367  2 Si s          
    78     -0.572732  4 Cl px               106      0.572732  5 Cl py         
   159     -0.572732  7 Cl px               187      0.572732  8 Cl py         
    41      0.507293  3 Cl s                 68      0.507293  4 Cl s          
    95      0.507293  5 Cl s                122     -0.507293  6 Cl s          

 Vector   89  Occ=0.000000D+00  E= 2.050792D-01  Symmetry=a2g
              MO Center= -3.4D-14,  2.5D-15,  4.0D-15, r^2= 2.3D+01
   Bfn.  Coefficient  Atom+Function         Bfn.  Coefficient  Atom+Function  
  ----- ------------  ---------------      ----- ------------  ---------------
    79      1.233267  4 Cl py               105      1.233267  5 Cl px         
   160     -1.233267  7 Cl py               186     -1.233267  8 Cl px         
    51     -0.902814  3 Cl px                52     -0.902814  3 Cl py         
   132      0.902814  6 Cl px               133      0.902814  6 Cl py         
    78     -0.330453  4 Cl px               106     -0.330453  5 Cl py         

 Vector   90  Occ=0.000000D+00  E= 2.231567D-01  Symmetry=eg
              MO Center= -2.7D-14,  2.4D-14,  7.8D-15, r^2= 1.0D+01
   Bfn.  Coefficient  Atom+Function         Bfn.  Coefficient  Atom+Function  
  ----- ------------  ---------------      ----- ------------  ---------------
    41      1.456328  3 Cl s                122      1.456328  6 Cl s          
    11     -1.195278  1 Si px                29      1.195278  2 Si px         
    12      0.956707  1 Si py                30     -0.956707  2 Si py         
    68     -0.867984  4 Cl s                149     -0.867984  7 Cl s          
    95     -0.588345  5 Cl s                176     -0.588345  8 Cl s          

 Vector   91  Occ=0.000000D+00  E= 2.231567D-01  Symmetry=eg
              MO Center= -4.5D-14, -1.5D-13, -6.9D-14, r^2= 1.0D+01
   Bfn.  Coefficient  Atom+Function         Bfn.  Coefficient  Atom+Function  
  ----- ------------  ---------------      ----- ------------  ---------------
    95      1.341942  5 Cl s                176      1.341942  8 Cl s          
    12     -1.195278  1 Si py                30      1.195278  2 Si py         
    68     -1.180492  4 Cl s                149     -1.180492  7 Cl s          
    11     -0.956707  1 Si px                29      0.956707  2 Si px         
   106      0.486040  5 Cl py               187     -0.486040  8 Cl py         

 Vector   92  Occ=0.000000D+00  E= 2.388146D-01  Symmetry=a2u
              MO Center=  1.2D-14, -2.8D-16,  6.7D-16, r^2= 1.4D+01
   Bfn.  Coefficient  Atom+Function         Bfn.  Coefficient  Atom+Function  
  ----- ------------  ---------------      ----- ------------  ---------------
     4      1.914275  1 Si s                 22     -1.914275  2 Si s          
    41      1.485272  3 Cl s                 68      1.485272  4 Cl s          
    95      1.485272  5 Cl s                122     -1.485272  6 Cl s          
   149     -1.485272  7 Cl s                176     -1.485272  8 Cl s          
    13     -1.013863  1 Si pz                31     -1.013863  2 Si pz         

 Vector   93  Occ=0.000000D+00  E= 2.646132D-01  Symmetry=eg
              MO Center= -1.4D-13, -8.3D-14, -1.6D-12, r^2= 1.4D+01
   Bfn.  Coefficient  Atom+Function         Bfn.  Coefficient  Atom+Function  
  ----- ------------  ---------------      ----- ------------  ---------------
    41      2.839477  3 Cl s                122      2.839477  6 Cl s          
    95     -1.473579  5 Cl s                176     -1.473579  8 Cl s          
    68     -1.365897  4 Cl s                149     -1.365897  7 Cl s          
    12      0.885400  1 Si py                30     -0.885400  2 Si py         
    11     -0.847459  1 Si px                29      0.847459  2 Si px         

 Vector   94  Occ=0.000000D+00  E= 2.646132D-01  Symmetry=eg
              MO Center=  1.2D-13,  9.1D-14,  3.1D-14, r^2= 1.4D+01
   Bfn.  Coefficient  Atom+Function         Bfn.  Coefficient  Atom+Function  
  ----- ------------  ---------------      ----- ------------  ---------------
    68      2.490144  4 Cl s                149      2.490144  7 Cl s          
    95     -2.427974  5 Cl s                176     -2.427974  8 Cl s          
    78     -0.917199  4 Cl px               159      0.917199  7 Cl px         
   106     -0.894324  5 Cl py               187      0.894324  8 Cl py         
    11      0.885400  1 Si px                29     -0.885400  2 Si px         

 Vector   95  Occ=0.000000D+00  E= 2.825096D-01  Symmetry=eu
              MO Center= -7.5D-14,  2.5D-13,  7.4D-13, r^2= 1.5D+01
   Bfn.  Coefficient  Atom+Function         Bfn.  Coefficient  Atom+Function  
  ----- ------------  ---------------      ----- ------------  ---------------
    41      3.185318  3 Cl s                122     -3.185318  6 Cl s          
    95     -1.989177  5 Cl s                176      1.989177  8 Cl s          
    68     -1.196141  4 Cl s                149      1.196141  7 Cl s          
    12     -1.105550  1 Si py                30     -1.105550  2 Si py         
    11      0.827668  1 Si px                29      0.827668  2 Si px         

 Vector   96  Occ=0.000000D+00  E= 2.825096D-01  Symmetry=eu
              MO Center=  2.0D-13,  4.0D-13,  1.3D-14, r^2= 1.5D+01
   Bfn.  Coefficient  Atom+Function         Bfn.  Coefficient  Atom+Function  
  ----- ------------  ---------------      ----- ------------  ---------------
    68      2.987496  4 Cl s                149     -2.987496  7 Cl s          
    95     -2.529637  5 Cl s                176      2.529637  8 Cl s          
    11     -1.105550  1 Si px                29     -1.105550  2 Si px         
    78     -0.931132  4 Cl px               159     -0.931132  7 Cl px         
    12     -0.827668  1 Si py                30     -0.827668  2 Si py         

 Vector   97  Occ=0.000000D+00  E= 3.264006D-01  Symmetry=eu
              MO Center=  2.4D-13, -4.7D-13,  9.6D-13, r^2= 8.3D+00
   Bfn.  Coefficient  Atom+Function         Bfn.  Coefficient  Atom+Function  
  ----- ------------  ---------------      ----- ------------  ---------------
    41      0.509484  3 Cl s                122     -0.509484  6 Cl s          
    68     -0.458202  4 Cl s                149      0.458202  7 Cl s          
   105      0.252848  5 Cl px               186      0.252848  8 Cl px         
    40     -0.224937  3 Cl s                113      0.225488  5 Cl d -2       
   121      0.224937  6 Cl s                194     -0.225488  8 Cl d -2       

 Vector   98  Occ=0.000000D+00  E= 3.264006D-01  Symmetry=eu
              MO Center= -2.2D-14,  7.4D-14,  2.1D-13, r^2= 8.3D+00
   Bfn.  Coefficient  Atom+Function         Bfn.  Coefficient  Atom+Function  
  ----- ------------  ---------------      ----- ------------  ---------------
    95      0.558694  5 Cl s                176     -0.558694  8 Cl s          
    68     -0.323758  4 Cl s                149      0.323758  7 Cl s          
    94     -0.246663  5 Cl s                175      0.246663  8 Cl s          
    41     -0.234936  3 Cl s                 63      0.235043  3 Cl d  2       
   122      0.234936  6 Cl s                144     -0.235043  6 Cl d  2       

 Vector   99  Occ=0.000000D+00  E= 3.653868D-01  Symmetry=a1g
              MO Center= -1.8D-14, -7.0D-14, -2.8D-14, r^2= 9.6D+00
   Bfn.  Coefficient  Atom+Function         Bfn.  Coefficient  Atom+Function  
  ----- ------------  ---------------      ----- ------------  ---------------
     4      1.920291  1 Si s                 22      1.920291  2 Si s          
    13     -0.682313  1 Si pz                31      0.682313  2 Si pz         
     3     -0.476957  1 Si s                 21     -0.476957  2 Si s          
    41     -0.341316  3 Cl s                 68     -0.341316  4 Cl s          
    95     -0.341316  5 Cl s                122     -0.341316  6 Cl s          

 Vector  100  Occ=0.000000D+00  E= 3.917741D-01  Symmetry=a2u
              MO Center=  8.7D-14,  1.1D-13,  5.2D-14, r^2= 1.1D+01
   Bfn.  Coefficient  Atom+Function         Bfn.  Coefficient  Atom+Function  
  ----- ------------  ---------------      ----- ------------  ---------------
    13      2.610862  1 Si pz                31      2.610862  2 Si pz         
     4      2.047630  1 Si s                 22     -2.047630  2 Si s          
    10     -0.479532  1 Si pz                28     -0.479532  2 Si pz         
    53     -0.389171  3 Cl pz                80     -0.389171  4 Cl pz         
   107     -0.389171  5 Cl pz               134     -0.389171  6 Cl pz         

 Vector  101  Occ=0.000000D+00  E= 4.005736D-01  Symmetry=eg
              MO Center=  1.6D-14,  1.2D-12, -5.5D-13, r^2= 9.4D+00
   Bfn.  Coefficient  Atom+Function         Bfn.  Coefficient  Atom+Function  
  ----- ------------  ---------------      ----- ------------  ---------------
    12      1.635041  1 Si py                30     -1.635041  2 Si py         
    95     -1.100345  5 Cl s                176     -1.100345  8 Cl s          
    41      1.044431  3 Cl s                122      1.044431  6 Cl s          
   106     -0.406716  5 Cl py               187      0.406716  8 Cl py         
     9     -0.399445  1 Si py                27      0.399445  2 Si py         

 Vector  102  Occ=0.000000D+00  E= 4.005736D-01  Symmetry=eg
              MO Center=  1.5D-12,  3.1D-13, -4.5D-15, r^2= 9.4D+00
   Bfn.  Coefficient  Atom+Function         Bfn.  Coefficient  Atom+Function  
  ----- ------------  ---------------      ----- ------------  ---------------
    11      1.635041  1 Si px                29     -1.635041  2 Si px         
    68      1.238287  4 Cl s                149      1.238287  7 Cl s          
    41     -0.667566  3 Cl s                122     -0.667566  6 Cl s          
    95     -0.570720  5 Cl s                176     -0.570720  8 Cl s          
    78     -0.473619  4 Cl px               159      0.473619  7 Cl px         

 Vector  103  Occ=0.000000D+00  E= 4.355287D-01  Symmetry=eu
              MO Center= -1.3D-13,  4.2D-14,  3.9D-13, r^2= 1.3D+01
   Bfn.  Coefficient  Atom+Function         Bfn.  Coefficient  Atom+Function  
  ----- ------------  ---------------      ----- ------------  ---------------
    41      2.380088  3 Cl s                122     -2.380088  6 Cl s          
    95     -1.734402  5 Cl s                176      1.734402  8 Cl s          
    12     -1.576861  1 Si py                30     -1.576861  2 Si py         
    11      0.917984  1 Si px                29      0.917984  2 Si px         
    52     -0.729098  3 Cl py               106     -0.726424  5 Cl py         

 Vector  104  Occ=0.000000D+00  E= 4.355287D-01  Symmetry=eu
              MO Center= -1.3D-14, -1.7D-13,  8.7D-14, r^2= 1.3D+01
   Bfn.  Coefficient  Atom+Function         Bfn.  Coefficient  Atom+Function  
  ----- ------------  ---------------      ----- ------------  ---------------
    68      2.375502  4 Cl s                149     -2.375502  7 Cl s          
    95     -1.746931  5 Cl s                176      1.746931  8 Cl s          
    11     -1.576861  1 Si px                29     -1.576861  2 Si px         
    78     -0.942186  4 Cl px               159     -0.942186  7 Cl px         
    12     -0.917984  1 Si py                30     -0.917984  2 Si py         

 Vector  105  Occ=0.000000D+00  E= 4.415834D-01  Symmetry=a1g
              MO Center= -6.0D-15,  8.8D-14, -7.8D-14, r^2= 7.9D+00
   Bfn.  Coefficient  Atom+Function         Bfn.  Coefficient  Atom+Function  
  ----- ------------  ---------------      ----- ------------  ---------------
    10      0.379054  1 Si pz                28     -0.379054  2 Si pz         
    13     -0.305483  1 Si pz                31      0.305483  2 Si pz         
     4      0.278116  1 Si s                 22      0.278116  2 Si s          
    61     -0.213148  3 Cl d  0              88     -0.213148  4 Cl d  0       
   115     -0.213148  5 Cl d  0             142     -0.213148  6 Cl d  0       

 Vector  106  Occ=0.000000D+00  E= 4.518361D-01  Symmetry=eg
              MO Center= -9.8D-14,  9.0D-14,  2.8D-13, r^2= 1.0D+01
   Bfn.  Coefficient  Atom+Function         Bfn.  Coefficient  Atom+Function  
  ----- ------------  ---------------      ----- ------------  ---------------
    41      1.152160  3 Cl s                122      1.152160  6 Cl s          
    40     -0.686051  3 Cl s                121     -0.686051  6 Cl s          
    95     -0.583643  5 Cl s                176     -0.583643  8 Cl s          
    68     -0.568517  4 Cl s                149     -0.568517  7 Cl s          
    53     -0.468003  3 Cl pz               134      0.468003  6 Cl pz         

 Vector  107  Occ=0.000000D+00  E= 4.518361D-01  Symmetry=eg
              MO Center=  9.9D-13,  3.1D-13, -5.6D-14, r^2= 1.0D+01
   Bfn.  Coefficient  Atom+Function         Bfn.  Coefficient  Atom+Function  
  ----- ------------  ---------------      ----- ------------  ---------------
    68      1.002166  4 Cl s                149      1.002166  7 Cl s          
    95     -0.993434  5 Cl s                176     -0.993434  8 Cl s          
    67     -0.596737  4 Cl s                148     -0.596737  7 Cl s          
    94      0.591537  5 Cl s                175      0.591537  8 Cl s          
    80     -0.407076  4 Cl pz               161      0.407076  7 Cl pz         

 Vector  108  Occ=0.000000D+00  E= 4.544108D-01  Symmetry=a1u
              MO Center=  8.1D-14,  3.8D-13, -5.6D-13, r^2= 9.3D+00
   Bfn.  Coefficient  Atom+Function         Bfn.  Coefficient  Atom+Function  
  ----- ------------  ---------------      ----- ------------  ---------------
    87      0.366738  4 Cl d -1             116     -0.366738  5 Cl d  1       
   168     -0.366738  7 Cl d -1             197      0.366738  8 Cl d  1       
    60     -0.268471  3 Cl d -1              62      0.268471  3 Cl d  1       
   141      0.268471  6 Cl d -1             143     -0.268471  6 Cl d  1       

 Vector  109  Occ=0.000000D+00  E= 4.833769D-01  Symmetry=eu
              MO Center= -8.7D-13,  6.1D-13, -5.4D-13, r^2= 9.6D+00
   Bfn.  Coefficient  Atom+Function         Bfn.  Coefficient  Atom+Function  
  ----- ------------  ---------------      ----- ------------  ---------------
    41     -0.782557  3 Cl s                122      0.782557  6 Cl s          
    95      0.769221  5 Cl s                176     -0.769221  8 Cl s          
    12      0.723776  1 Si py                30      0.723776  2 Si py         
    87      0.315894  4 Cl d -1             106      0.316068  5 Cl py         
   168     -0.315894  7 Cl d -1             187      0.316068  8 Cl py         

 Vector  110  Occ=0.000000D+00  E= 4.833769D-01  Symmetry=eu
              MO Center=  9.4D-13,  1.3D-12, -1.4D-14, r^2= 9.6D+00
   Bfn.  Coefficient  Atom+Function         Bfn.  Coefficient  Atom+Function  
  ----- ------------  ---------------      ----- ------------  ---------------
    68      0.895920  4 Cl s                149     -0.895920  7 Cl s          
    11     -0.723776  1 Si px                29     -0.723776  2 Si px         
    95     -0.459509  5 Cl s                176      0.459509  8 Cl s          
    41     -0.436411  3 Cl s                122      0.436411  6 Cl s          
    78     -0.369730  4 Cl px               159     -0.369730  7 Cl px         

 Vector  111  Occ=0.000000D+00  E= 4.986679D-01  Symmetry=eg
              MO Center=  6.8D-13, -1.6D-12, -4.9D-12, r^2= 1.0D+01
   Bfn.  Coefficient  Atom+Function         Bfn.  Coefficient  Atom+Function  
  ----- ------------  ---------------      ----- ------------  ---------------
    41      1.500749  3 Cl s                122      1.500749  6 Cl s          
    12      1.053913  1 Si py                30     -1.053913  2 Si py         
    11     -1.006783  1 Si px                29      1.006783  2 Si px         
    95     -0.780099  5 Cl s                176     -0.780099  8 Cl s          
    68     -0.720649  4 Cl s                149     -0.720649  7 Cl s          

 Vector  112  Occ=0.000000D+00  E= 4.986679D-01  Symmetry=eg
              MO Center=  5.8D-13,  1.5D-12, -5.8D-12, r^2= 1.0D+01
   Bfn.  Coefficient  Atom+Function         Bfn.  Coefficient  Atom+Function  
  ----- ------------  ---------------      ----- ------------  ---------------
    68      1.316848  4 Cl s                149      1.316848  7 Cl s          
    95     -1.282525  5 Cl s                176     -1.282525  8 Cl s          
    11      1.053913  1 Si px                29     -1.053913  2 Si px         
    12      1.006783  1 Si py                30     -1.006783  2 Si py         
    78     -0.482089  4 Cl px               159      0.482089  7 Cl px         

 Vector  113  Occ=0.000000D+00  E= 5.103020D-01  Symmetry=eu
              MO Center=  2.6D-13,  3.4D-13,  4.5D-12, r^2= 9.6D+00
   Bfn.  Coefficient  Atom+Function         Bfn.  Coefficient  Atom+Function  
  ----- ------------  ---------------      ----- ------------  ---------------
    87      0.303617  4 Cl d -1             168     -0.303617  7 Cl d -1       
    59      0.288805  3 Cl d -2             140     -0.288805  6 Cl d -2       
   116      0.283510  5 Cl d  1             197     -0.283510  8 Cl d  1       
    53     -0.237394  3 Cl pz               134     -0.237394  6 Cl pz         
   117     -0.172596  5 Cl d  2             198      0.172596  8 Cl d  2       


 center of mass
 --------------
 x =   0.00000000 y =  -0.00000000 z =   0.00000000

 moments of inertia (a.u.)
 ------------------
        4111.966611256647          -0.000000000000          -0.000000000000
          -0.000000000000        4111.966611256646           0.000000000000
          -0.000000000000           0.000000000000        2642.376419499827

  Mulliken analysis of the total density
  --------------------------------------

    Atom       Charge   Shell Charges
 -----------   ------   -------------------------------------------------------
    1 Si  14    13.02   2.00  2.02  0.79 -0.04  6.00  1.37  0.27  0.60
    2 Si  14    13.02   2.00  2.02  0.79 -0.04  6.00  1.37  0.27  0.60
    3 Cl  17    17.33   2.00  2.02  0.92  1.00  0.04  6.00  3.07  2.22  0.03  0.02  0.02
    4 Cl  17    17.33   2.00  2.02  0.92  1.00  0.04  6.00  3.07  2.22  0.03  0.02  0.02
    5 Cl  17    17.33   2.00  2.02  0.92  1.00  0.04  6.00  3.07  2.22  0.03  0.02  0.02
    6 Cl  17    17.33   2.00  2.02  0.92  1.00  0.04  6.00  3.07  2.22  0.03  0.02  0.02
    7 Cl  17    17.33   2.00  2.02  0.92  1.00  0.04  6.00  3.07  2.22  0.03  0.02  0.02
    8 Cl  17    17.33   2.00  2.02  0.92  1.00  0.04  6.00  3.07  2.22  0.03  0.02  0.02

       Multipole analysis of the density wrt the origin
       ------------------------------------------------

     L   x y z        total         open         nuclear
     -   - - -        -----         ----         -------
     0   0 0 0      0.000000      0.000000    130.000000

     1   1 0 0      0.000000      0.000000      0.000000
     1   0 1 0      0.000000      0.000000     -0.000000
     1   0 0 1      0.000000      0.000000      0.000000

     2   2 0 0    -76.275048      0.000000    642.291627
     2   1 1 0     -0.000000      0.000000      0.000000
     2   1 0 1      0.000000      0.000000      0.000000
     2   0 2 0    -76.275048      0.000000    642.291627
     2   0 1 1      0.000000      0.000000      0.000000
     2   0 0 2    -77.025094      0.000000   1360.624605


 Task  times  cpu:       91.5s     wall:       91.6s


                                NWChem Input Module
                                -------------------


 Summary of allocated global arrays
-----------------------------------
  No active global arrays



                         GA Statistics for process    0
                         ------------------------------

       create   destroy   get      put      acc     scatter   gather  read&inc
calls:  662      662     1.82e+04 6700     1.63e+04    0        0     2217     
number of processes/call 1.34e+00 1.22e+00 1.03e+00 0.00e+00 0.00e+00
bytes total:             1.28e+08 4.35e+07 8.02e+07 0.00e+00 0.00e+00 1.77e+04
bytes remote:            7.45e+07 1.09e+07 5.04e+07 0.00e+00 0.00e+00 0.00e+00
Max memory consumed for GA by this process: 1225568 bytes

MA_summarize_allocated_blocks: starting scan ...
MA_summarize_allocated_blocks: scan completed: 0 heap blocks, 0 stack blocks
MA usage statistics:

	allocation statistics:
					      heap	     stack
					      ----	     -----
	current number of blocks	         0	         0
	maximum number of blocks	        14	        14
	current total bytes		         0	         0
	maximum total bytes		     80136	  22513960
	maximum total K-bytes		        81	     22514
	maximum total M-bytes		         1	        23


                                     CITATION
                                     --------
                Please cite the following reference when publishing
                           results obtained with NWChem:

                 M. Valiev, E.J. Bylaska, N. Govind, K. Kowalski,
              T.P. Straatsma, H.J.J. van Dam, D. Wang, J. Nieplocha,
                        E. Apra, T.L. Windus, W.A. de Jong
                 "NWChem: a comprehensive and scalable open-source
                  solution for large scale molecular simulations"
                      Comput. Phys. Commun. 181, 1477 (2010)
                           doi:10.1016/j.cpc.2010.04.018

                                      AUTHORS
                                      -------
          E. Apra, E. J. Bylaska, W. A. de Jong, N. Govind, K. Kowalski,
       T. P. Straatsma, M. Valiev, H. J. J. van Dam, D. Wang, T. L. Windus,
        J. Hammond, J. Autschbach, K. Bhaskaran-Nair, J. Brabec, K. Lopata,
    S. A. Fischer, S. Krishnamoorthy, M. Jacquelin, W. Ma, M. Klemm, O. Villa,
      Y. Chen, V. Anisimov, F. Aquino, S. Hirata, M. T. Hackler, V. Konjkov,
            D. Mejia-Rodriguez, T. Risthaus, M. Malagoli, A. Marenich,
   A. Otero-de-la-Roza, J. Mullin, P. Nichols, R. Peverati, J. Pittner, Y. Zhao,
        P.-D. Fan, A. Fonari, M. J. Williamson, R. J. Harrison, J. R. Rehr,
      M. Dupuis, D. Silverstein, D. M. A. Smith, J. Nieplocha, V. Tipparaju,
    M. Krishnan, B. E. Van Kuiken, A. Vazquez-Mayagoitia, L. Jensen, M. Swart,
      Q. Wu, T. Van Voorhis, A. A. Auer, M. Nooijen, L. D. Crosby, E. Brown,
      G. Cisneros, G. I. Fann, H. Fruchtl, J. Garza, K. Hirao, R. A. Kendall,
      J. A. Nichols, K. Tsemekhman, K. Wolinski, J. Anchell, D. E. Bernholdt,
      P. Borowski, T. Clark, D. Clerc, H. Dachsel, M. J. O. Deegan, K. Dyall,
    D. Elwood, E. Glendening, M. Gutowski, A. C. Hess, J. Jaffe, B. G. Johnson,
     J. Ju, R. Kobayashi, R. Kutteh, Z. Lin, R. Littlefield, X. Long, B. Meng,
      T. Nakajima, S. Niu, L. Pollack, M. Rosing, K. Glaesemann, G. Sandrone,
      M. Stave, H. Taylor, G. Thomas, J. H. van Lenthe, A. T. Wong, Z. Zhang.

 Total times  cpu:       91.5s     wall:       91.6s
