 argument  1 = /home/list1234/source/nwchem-6.8.1-release/QA/tests/talc/talc.nw



============================== echo of input deck ==============================
echo

#Perdikatsis B, Burzlaff H
#Zeitschrift fur Kristallographie 156 (1981) 177-186
#Strukturverfeinerung am talk Mg3[(OH)2Si4O10]
#http://rruff.geo.arizona.edu/AMS/result.php?mineral=Talc
# Change units to make life hard

geometry units bohr      nocenter noautosym noautoz print
  system crystal
    lat_a 5.290
    lat_b  9.173
    lat_c 9.460
    alpha 90.46
    beta  98.68
    gamma 90.09
  end
symmetry P-1
Si   0.24527   0.50259   0.29093
Si   0.24590   0.83587   0.29108
Mg   0.00000   0.00000   0.00000
Mg   0.50012   0.83332   0.99994
O   0.19910   0.83440   0.11760
O   0.69700   0.66740   0.11260
O   0.19800   0.50120   0.11760
O   0.01990   0.92870   0.34810
O   0.52020   0.91090   0.34940
O   0.24290   0.66990   0.34840
H   0.71900   0.66900   0.20300
end
#***** setup the nwpw gamma point code ****
nwpw
   energy_cutoff:       21.0d0
   wavefunction_cutoff: 21.0d0
   ewald_ncut: 8
   lcao #old default
end
set nwpw:lcao_iterations 20
set nwpw:minimizer 2

nwpw
  tolerances 1.0d-9 1.0d-9
end

set nwpw:mulliken .false.
set cgsd:mulliken .false.
set band:mulliken .false.
set nwpw:mulliken_kawai .false.

driver
   clear
   maxiter 200
end

task pspw optimize

================================================================================


                                         
                                         


              Northwest Computational Chemistry Package (NWChem) 6.8
              ------------------------------------------------------


                    Environmental Molecular Sciences Laboratory
                       Pacific Northwest National Laboratory
                                Richland, WA 99352

                              Copyright (c) 1994-2018
                       Pacific Northwest National Laboratory
                            Battelle Memorial Institute

             NWChem is an open-source computational chemistry package
                        distributed under the terms of the
                      Educational Community License (ECL) 2.0
             A copy of the license is included with this distribution
                              in the LICENSE.TXT file

                                  ACKNOWLEDGMENT
                                  --------------

            This software and its documentation were developed at the
            EMSL at Pacific Northwest National Laboratory, a multiprogram
            national laboratory, operated for the U.S. Department of Energy
            by Battelle under Contract Number DE-AC05-76RL01830. Support
            for this work was provided by the Department of Energy Office
            of Biological and Environmental Research, Office of Basic
            Energy Sciences, and the Office of Advanced Scientific Computing.


           Job information
           ---------------

    hostname        = list1234-B360M-H
    program         = /home/list1234/source/nwchem-6.8.1-release/bin/LINUX64/nwchem
    date            = Sun Jun 30 08:01:14 2019

    compiled        = Sun_Jun_30_05:21:11_2019
    source          = /home/list1234/source/nwchem-6.8.1-release
    nwchem branch   = Development
    nwchem revision = N/A
    ga revision     = 5.6.5
    use scalapack   = T
    input           = /home/list1234/source/nwchem-6.8.1-release/QA/tests/talc/talc.nw
    prefix          = talc.
    data base       = ./talc.db
    status          = startup
    nproc           =        4
    time left       =     -1s



           Memory information
           ------------------

    heap     =   86247168 doubles =    658.0 Mbytes
    stack    =   86247165 doubles =    658.0 Mbytes
    global   =  172494336 doubles =   1316.0 Mbytes (distinct from heap & stack)
    total    =  344988669 doubles =   2632.1 Mbytes
    verify   = yes
    hardfail = no 


           Directory information
           ---------------------

  0 permanent = .
  0 scratch   = .




                                NWChem Input Module
                                -------------------



  !!!!!!!!!  geom_3d NEEDS TESTING !!!!!!!!!! 


                             Geometry "geometry" -> ""
                             -------------------------

 Output coordinates in a.u. (scale by  1.000000000 to convert to a.u.)

  No.       Tag          Charge          X              Y              Z
 ---- ---------------- ---------- -------------- -------------- --------------
    1 Si                  14.0000     0.88209145     4.58612417     2.72058075
    2 Si                  14.0000     2.98011786     4.50261739     6.63074344
    3 Si                  14.0000     0.88520998     7.64328499     2.72198345
    4 Si                  14.0000     2.97699933     1.44545657     6.62934075
    5 Mg                  12.0000     0.00000000     0.00000000     0.00000000
    6 Mg                  12.0000     1.21793304     7.56394423     9.35076311
    7 Mg                  12.0000     2.64427627     1.52479733     0.00056108
    8 O                    8.0000     0.88533028     7.64336518     1.09971572
    9 O                    8.0000     2.97687902     1.44537638     8.25160847
   10 O                    8.0000     3.52635695     6.10771662     1.05295910
   11 O                    8.0000     0.33585235     2.98102494     8.29836509
   12 O                    8.0000     0.87951129     4.58693072     1.09971572
   13 O                    8.0000     2.98269802     4.50181084     8.25160847
   14 O                    8.0000    -0.39174080     8.49236192     3.25519595
   15 O                    8.0000     4.25395011     0.59637964     6.09612824
   16 O                    8.0000     2.25298682     8.32482654     3.26735267
   17 O                    8.0000     1.60922249     0.76391502     6.08397152
   18 O                    8.0000     0.78749941     6.11651371     3.25800135
   19 O                    8.0000     3.07470990     2.97222785     6.09332284
   20 H                    1.0000     3.51366512     6.11534483     1.89831881
   21 H                    1.0000     0.34854419     2.97339673     7.45300538

      Lattice Parameters 
      ------------------ 

      lattice vectors in a.u. (scale by  1.000000000 to convert to a.u.)

      a1=<   5.290  -0.008   0.000 >
      a2=<   0.000   9.173   0.000 >
      a3=<  -1.428  -0.076   9.351 >
      a=       5.290 b=      9.173 c=       9.460
      alpha=  90.460 beta=  98.680 gamma=  90.090
      omega=   453.8

      reciprocal lattice vectors in a.u.

      b1=<   1.188   0.000   0.181 >
      b2=<   0.001   0.685   0.006 >
      b3=<   0.000   0.000   0.672 >

      Atomic Mass 
      ----------- 

      Si                27.976930
      Mg                23.985040
      O                 15.994910
      H                  1.007825


      Symmetry information
      --------------------

 Group name                    P-1
 Group number              2
 Group order               2
 No. of unique centers    11
 Setting number            1

      Symmetry unique atoms

     1    3    5    6    8   10   12   14   16   18   20

 ==============================================================================
                                internuclear distances
 ------------------------------------------------------------------------------
       center one      |      center two      | atomic units |       a.u.
 ------------------------------------------------------------------------------
    2 Si               |   1 Si               |     4.43825  |     4.43825
    3 Si               |   1 Si               |     3.05716  |     3.05716
    4 Si               |   2 Si               |     3.05716  |     3.05716
    6 Mg               |   2 Si               |     4.45820  |     4.45820
    7 Mg               |   1 Si               |     4.45820  |     4.45820
    7 Mg               |   5 Mg               |     3.05241  |     3.05241
    8 O                |   1 Si               |     3.46034  |     3.46034
    8 O                |   3 Si               |     1.62227  |     1.62227
    9 O                |   2 Si               |     3.46034  |     3.46034
    9 O                |   4 Si               |     1.62227  |     1.62227
   10 O                |   1 Si               |     3.47683  |     3.47683
   10 O                |   3 Si               |     3.48127  |     3.48127
   11 O                |   2 Si               |     3.47683  |     3.47683
   11 O                |   4 Si               |     3.48127  |     3.48127
   12 O                |   1 Si               |     1.62087  |     1.62087
   12 O                |   3 Si               |     3.46021  |     3.46021
   12 O                |   7 Mg               |     3.70124  |     3.70124
   13 O                |   2 Si               |     1.62087  |     1.62087
   13 O                |   4 Si               |     3.46021  |     3.46021
   13 O                |   6 Mg               |     3.70124  |     3.70124
   14 O                |   3 Si               |     1.62353  |     1.62353
   14 O                |   8 O                |     2.64534  |     2.64534
   15 O                |   4 Si               |     1.62353  |     1.62353
   15 O                |   9 O                |     2.64534  |     2.64534
   16 O                |   3 Si               |     1.62257  |     1.62257
   16 O                |   8 O                |     2.65208  |     2.65208
   16 O                |  14 O                |     2.65006  |     2.65006
   17 O                |   4 Si               |     1.62257  |     1.62257
   17 O                |   9 O                |     2.65208  |     2.65208
   17 O                |  15 O                |     2.65006  |     2.65006
   18 O                |   1 Si               |     1.62476  |     1.62476
   18 O                |   3 Si               |     1.62108  |     1.62108
   18 O                |   8 O                |     2.64557  |     2.64557
   18 O                |  12 O                |     2.64694  |     2.64694
   18 O                |  14 O                |     2.65241  |     2.65241
   18 O                |  16 O                |     2.65036  |     2.65036
   19 O                |   2 Si               |     1.62476  |     1.62476
   19 O                |   4 Si               |     1.62108  |     1.62108
   19 O                |   9 O                |     2.64557  |     2.64557
   19 O                |  13 O                |     2.64694  |     2.64694
   19 O                |  15 O                |     2.65241  |     2.65241
   19 O                |  17 O                |     2.65036  |     2.65036
   20 H                |  10 O                |     0.84549  |     0.84549
   21 H                |  11 O                |     0.84549  |     0.84549
 ------------------------------------------------------------------------------
                         number of included internuclear distances:         44
 ==============================================================================



 ==============================================================================
                                 internuclear angles
 ------------------------------------------------------------------------------
        center 1       |       center 2       |       center 3       |  degrees
 ------------------------------------------------------------------------------
    2 Si               |   1 Si               |   3 Si               |    91.03
    2 Si               |   1 Si               |   7 Mg               |   109.74
    2 Si               |   1 Si               |   8 O                |   115.40
    2 Si               |   1 Si               |  10 O                |    94.09
    2 Si               |   1 Si               |  12 O                |   151.86
    2 Si               |   1 Si               |  18 O                |    75.75
    3 Si               |   1 Si               |   7 Mg               |   133.36
    1 Si               |   3 Si               |   8 O                |    89.98
    3 Si               |   1 Si               |  10 O                |    64.01
    3 Si               |   1 Si               |  12 O                |    90.00
    1 Si               |  18 O                |   3 Si               |   140.74
    7 Mg               |   1 Si               |   8 O                |   108.69
    7 Mg               |   1 Si               |  10 O                |    72.98
    1 Si               |  12 O                |   7 Mg               |   107.21
    7 Mg               |   1 Si               |  18 O                |   150.65
    8 O                |   1 Si               |  10 O                |    52.26
    8 O                |   1 Si               |  12 O                |    62.04
    1 Si               |  18 O                |   8 O                |   105.76
   10 O                |   1 Si               |  12 O                |    61.40
   10 O                |   1 Si               |  18 O                |    77.92
   12 O                |   1 Si               |  18 O                |   109.28
    1 Si               |   2 Si               |   4 Si               |    91.03
    1 Si               |   2 Si               |   6 Mg               |   109.74
    1 Si               |   2 Si               |   9 O                |   115.40
    1 Si               |   2 Si               |  11 O                |    94.09
    1 Si               |   2 Si               |  13 O                |   151.86
    1 Si               |   2 Si               |  19 O                |    75.75
    4 Si               |   2 Si               |   6 Mg               |   133.36
    2 Si               |   4 Si               |   9 O                |    89.98
    4 Si               |   2 Si               |  11 O                |    64.01
    4 Si               |   2 Si               |  13 O                |    90.00
    2 Si               |  19 O                |   4 Si               |   140.74
    6 Mg               |   2 Si               |   9 O                |   108.69
    6 Mg               |   2 Si               |  11 O                |    72.98
    2 Si               |  13 O                |   6 Mg               |   107.21
    6 Mg               |   2 Si               |  19 O                |   150.65
    9 O                |   2 Si               |  11 O                |    52.26
    9 O                |   2 Si               |  13 O                |    62.04
    2 Si               |  19 O                |   9 O                |   105.76
   11 O                |   2 Si               |  13 O                |    61.40
   11 O                |   2 Si               |  19 O                |    77.92
   13 O                |   2 Si               |  19 O                |   109.28
    1 Si               |   3 Si               |   8 O                |    89.98
    3 Si               |   1 Si               |  10 O                |    64.01
    3 Si               |   1 Si               |  12 O                |    90.00
    1 Si               |   3 Si               |  14 O                |   121.49
    1 Si               |   3 Si               |  16 O                |   114.90
    3 Si               |  18 O                |   1 Si               |   140.74
    8 O                |   3 Si               |  10 O                |    61.35
    8 O                |   3 Si               |  12 O                |    62.04
    8 O                |   3 Si               |  14 O                |   109.18
    8 O                |   3 Si               |  16 O                |   109.64
    8 O                |   3 Si               |  18 O                |   109.31
   10 O                |   3 Si               |  12 O                |    52.18
   10 O                |   3 Si               |  14 O                |   170.02
   10 O                |   3 Si               |  16 O                |    72.96
   10 O                |   3 Si               |  18 O                |    77.81
   12 O                |   3 Si               |  14 O                |   127.92
   12 O                |   3 Si               |  16 O                |   122.00
    3 Si               |  18 O                |  12 O                |   105.82
   14 O                |   3 Si               |  16 O                |   109.45
   14 O                |   3 Si               |  18 O                |   109.67
   16 O                |   3 Si               |  18 O                |   109.59
    2 Si               |   4 Si               |   9 O                |    89.98
    4 Si               |   2 Si               |  11 O                |    64.01
    4 Si               |   2 Si               |  13 O                |    90.00
    2 Si               |   4 Si               |  15 O                |   121.49
    2 Si               |   4 Si               |  17 O                |   114.90
    4 Si               |  19 O                |   2 Si               |   140.74
    9 O                |   4 Si               |  11 O                |    61.35
    9 O                |   4 Si               |  13 O                |    62.04
    9 O                |   4 Si               |  15 O                |   109.18
    9 O                |   4 Si               |  17 O                |   109.64
    9 O                |   4 Si               |  19 O                |   109.31
   11 O                |   4 Si               |  13 O                |    52.18
   11 O                |   4 Si               |  15 O                |   170.02
   11 O                |   4 Si               |  17 O                |    72.96
   11 O                |   4 Si               |  19 O                |    77.81
   13 O                |   4 Si               |  15 O                |   127.92
   13 O                |   4 Si               |  17 O                |   122.00
    4 Si               |  19 O                |  13 O                |   105.82
   15 O                |   4 Si               |  17 O                |   109.45
   15 O                |   4 Si               |  19 O                |   109.67
   17 O                |   4 Si               |  19 O                |   109.59
    6 Mg               |  13 O                |   2 Si               |   107.21
    1 Si               |   7 Mg               |   5 Mg               |    90.04
    7 Mg               |  12 O                |   1 Si               |   107.21
    5 Mg               |   7 Mg               |  12 O                |    90.02
    8 O                |   3 Si               |   1 Si               |    89.98
    1 Si               |   8 O                |  14 O                |    84.34
    1 Si               |   8 O                |  16 O                |    81.06
    8 O                |  18 O                |   1 Si               |   105.76
    8 O                |   3 Si               |  14 O                |   109.18
    8 O                |   3 Si               |  16 O                |   109.64
    8 O                |   3 Si               |  18 O                |   109.31
    8 O                |  14 O                |  16 O                |    60.11
   14 O                |   8 O                |  18 O                |    60.17
    8 O                |  18 O                |  16 O                |    60.10
    9 O                |   4 Si               |   2 Si               |    89.98
    2 Si               |   9 O                |  15 O                |    84.34
    2 Si               |   9 O                |  17 O                |    81.06
    9 O                |  19 O                |   2 Si               |   105.76
    9 O                |   4 Si               |  15 O                |   109.18
    9 O                |   4 Si               |  17 O                |   109.64
    9 O                |   4 Si               |  19 O                |   109.31
    9 O                |  15 O                |  17 O                |    60.11
   15 O                |   9 O                |  19 O                |    60.17
    9 O                |  19 O                |  17 O                |    60.10
   10 O                |   1 Si               |   3 Si               |    64.01
    1 Si               |  10 O                |  20 H                |    60.85
    3 Si               |  10 O                |  20 H                |    60.35
   11 O                |   2 Si               |   4 Si               |    64.01
    2 Si               |  11 O                |  21 H                |    60.85
    4 Si               |  11 O                |  21 H                |    60.35
   12 O                |   1 Si               |   3 Si               |    90.00
    1 Si               |  12 O                |   7 Mg               |   107.21
   12 O                |   1 Si               |  18 O                |   109.28
    3 Si               |  12 O                |   7 Mg               |   150.37
   12 O                |  18 O                |   3 Si               |   105.82
    7 Mg               |  12 O                |  18 O                |   137.46
   13 O                |   2 Si               |   4 Si               |    90.00
    2 Si               |  13 O                |   6 Mg               |   107.21
   13 O                |   2 Si               |  19 O                |   109.28
    4 Si               |  13 O                |   6 Mg               |   150.37
   13 O                |  19 O                |   4 Si               |   105.82
    6 Mg               |  13 O                |  19 O                |   137.46
   14 O                |   3 Si               |   8 O                |   109.18
   14 O                |   3 Si               |  16 O                |   109.45
   14 O                |   3 Si               |  18 O                |   109.67
    8 O                |  14 O                |  16 O                |    60.11
   14 O                |   8 O                |  18 O                |    60.17
   14 O                |  16 O                |  18 O                |    60.05
   15 O                |   4 Si               |   9 O                |   109.18
   15 O                |   4 Si               |  17 O                |   109.45
   15 O                |   4 Si               |  19 O                |   109.67
    9 O                |  15 O                |  17 O                |    60.11
   15 O                |   9 O                |  19 O                |    60.17
   15 O                |  17 O                |  19 O                |    60.05
   16 O                |   3 Si               |   8 O                |   109.64
   16 O                |   3 Si               |  14 O                |   109.45
   16 O                |   3 Si               |  18 O                |   109.59
   16 O                |  14 O                |   8 O                |    60.11
   16 O                |  18 O                |   8 O                |    60.10
   14 O                |  16 O                |  18 O                |    60.05
   17 O                |   4 Si               |   9 O                |   109.64
   17 O                |   4 Si               |  15 O                |   109.45
   17 O                |   4 Si               |  19 O                |   109.59
   17 O                |  15 O                |   9 O                |    60.11
   17 O                |  19 O                |   9 O                |    60.10
   15 O                |  17 O                |  19 O                |    60.05
    1 Si               |  18 O                |   3 Si               |   140.74
    1 Si               |  18 O                |   8 O                |   105.76
   18 O                |   1 Si               |  12 O                |   109.28
    1 Si               |  18 O                |  14 O                |   150.37
    1 Si               |  18 O                |  16 O                |   138.92
   18 O                |   3 Si               |   8 O                |   109.31
    3 Si               |  18 O                |  12 O                |   105.82
   18 O                |   3 Si               |  14 O                |   109.67
   18 O                |   3 Si               |  16 O                |   109.59
    8 O                |  18 O                |  12 O                |    70.55
   18 O                |   8 O                |  14 O                |    60.17
    8 O                |  18 O                |  16 O                |    60.10
   12 O                |  18 O                |  14 O                |   122.15
   12 O                |  18 O                |  16 O                |   117.72
   18 O                |  16 O                |  14 O                |    60.05
    2 Si               |  19 O                |   4 Si               |   140.74
    2 Si               |  19 O                |   9 O                |   105.76
   19 O                |   2 Si               |  13 O                |   109.28
    2 Si               |  19 O                |  15 O                |   150.37
    2 Si               |  19 O                |  17 O                |   138.92
   19 O                |   4 Si               |   9 O                |   109.31
    4 Si               |  19 O                |  13 O                |   105.82
   19 O                |   4 Si               |  15 O                |   109.67
   19 O                |   4 Si               |  17 O                |   109.59
    9 O                |  19 O                |  13 O                |    70.55
   19 O                |   9 O                |  15 O                |    60.17
    9 O                |  19 O                |  17 O                |    60.10
   13 O                |  19 O                |  15 O                |   122.15
   13 O                |  19 O                |  17 O                |   117.72
   19 O                |  17 O                |  15 O                |    60.05
 ------------------------------------------------------------------------------
                            number of included internuclear angles:        180
 ==============================================================================




  Deleted DRIVER restart files 



                           NWChem Geometry Optimization
                           ----------------------------


 maximum gradient threshold         (gmax) =   0.000450
 rms gradient threshold             (grms) =   0.000300
 maximum cartesian step threshold   (xmax) =   0.001800
 rms cartesian step threshold       (xrms) =   0.001200
 fixed trust radius                (trust) =   0.300000
 maximum step size to saddle      (sadstp) =   0.100000
 energy precision                  (eprec) =   1.0D-07
 maximum number of steps          (nptopt) =  200
 initial hessian option           (inhess) =    0
 line search option               (linopt) =    1
 hessian update option            (modupd) =    1
 saddle point option              (modsad) =    0
 initial eigen-mode to follow     (moddir) =    0
 initial variable to follow       (vardir) =    0
 follow first negative mode     (firstneg) =    T
 apply conjugacy                    (opcg) =    F
 source of zmatrix                         =           


          -------------------
          Energy Minimization
          -------------------


 Using diagonal initial Hessian 

          --------
          Step   0
          --------


                         Geometry "geometry" -> "geometry"
                         ---------------------------------

 Output coordinates in a.u. (scale by  1.000000000 to convert to a.u.)

  No.       Tag          Charge          X              Y              Z
 ---- ---------------- ---------- -------------- -------------- --------------
    1 Si                  14.0000     0.88209145     4.58612417     2.72058075
    2 Si                  14.0000     2.98011786     4.50261739     6.63074344
    3 Si                  14.0000     0.88520998     7.64328499     2.72198345
    4 Si                  14.0000     2.97699933     1.44545657     6.62934075
    5 Mg                  12.0000     0.00000000     0.00000000     0.00000000
    6 Mg                  12.0000     1.21793304     7.56394423     9.35076311
    7 Mg                  12.0000     2.64427627     1.52479733     0.00056108
    8 O                    8.0000     0.88533028     7.64336518     1.09971572
    9 O                    8.0000     2.97687902     1.44537638     8.25160847
   10 O                    8.0000     3.52635695     6.10771662     1.05295910
   11 O                    8.0000     0.33585235     2.98102494     8.29836509
   12 O                    8.0000     0.87951129     4.58693072     1.09971572
   13 O                    8.0000     2.98269802     4.50181084     8.25160847
   14 O                    8.0000    -0.39174080     8.49236192     3.25519595
   15 O                    8.0000     4.25395011     0.59637964     6.09612824
   16 O                    8.0000     2.25298682     8.32482654     3.26735267
   17 O                    8.0000     1.60922249     0.76391502     6.08397152
   18 O                    8.0000     0.78749941     6.11651371     3.25800135
   19 O                    8.0000     3.07470990     2.97222785     6.09332284
   20 H                    1.0000     3.51366512     6.11534483     1.89831881
   21 H                    1.0000     0.34854419     2.97339673     7.45300538

      Lattice Parameters 
      ------------------ 

      lattice vectors in a.u. (scale by  1.000000000 to convert to a.u.)

      a1=<   5.290  -0.008   0.000 >
      a2=<   0.000   9.173   0.000 >
      a3=<  -1.428  -0.076   9.351 >
      a=       5.290 b=      9.173 c=       9.460
      alpha=  90.460 beta=  98.680 gamma=  90.090
      omega=   453.8

      reciprocal lattice vectors in a.u.

      b1=<   1.188  -0.000   0.181 >
      b2=<   0.001   0.685   0.006 >
      b3=<  -0.000   0.000   0.672 >

      Atomic Mass 
      ----------- 

      Si                27.976930
      Mg                23.985040
      O                 15.994910
      H                  1.007825


      Symmetry information
      --------------------

 Group name                    P-1
 Group number              2
 Group order               2
 No. of unique centers    11
 Setting number            1

      Symmetry unique atoms

     1    3    5    6    8   10   12   14   16   18   20

          ****************************************************
          *                                                  *
          *               NWPW PSPW Calculation              *
          *                                                  *
          * [ (Grassmann/Stiefel manifold implementation)  ] *
          *                                                  *
          *      [ NorthWest Chemistry implementation ]      *
          *                                                  *
          *            version #5.10   06/12/02              *
          *                                                  *
          *    This code was developed by Eric J. Bylaska,   *
          *    and was based upon algorithms and code        *
          *    developed by the group of Prof. John H. Weare *
          *                                                  *
          ****************************************************
     >>>  JOB STARTED       AT Sun Jun 30 08:01:14 2019  <<<
          ================ input data ========================

 ======================================================
 || Some distances are very short. Check coordinates ||
 ======================================================

  library name resolved from: compiled reference
  NWCHEM_NWPW_LIBRARY set to: </home/list1234/source/nwchem-6.8.1-release/src/nwpw/libraryps/>
 Generating 1d pseudopotential for Si  

 Generated formatted_filename: ./Si.vpp
  library name resolved from: compiled reference
  NWCHEM_NWPW_LIBRARY set to: </home/list1234/source/nwchem-6.8.1-release/src/nwpw/libraryps/>
 Generating 1d pseudopotential for Mg  

 Generated formatted_filename: ./Mg.vpp
  library name resolved from: compiled reference
  NWCHEM_NWPW_LIBRARY set to: </home/list1234/source/nwchem-6.8.1-release/src/nwpw/libraryps/>
 Generating 1d pseudopotential for O   

 Generated formatted_filename: ./O.vpp
  library name resolved from: compiled reference
  NWCHEM_NWPW_LIBRARY set to: </home/list1234/source/nwchem-6.8.1-release/src/nwpw/libraryps/>
 Generating 1d pseudopotential for H   

 Generated formatted_filename: ./H.vpp
  library name resolved from: compiled reference
  NWCHEM_NWPW_LIBRARY set to: </home/list1234/source/nwchem-6.8.1-release/src/nwpw/libraryps/>

 Generated formatted atomic orbitals, filename: ./Si.aorb
  library name resolved from: compiled reference
  NWCHEM_NWPW_LIBRARY set to: </home/list1234/source/nwchem-6.8.1-release/src/nwpw/libraryps/>

 Generated formatted atomic orbitals, filename: ./Mg.aorb
  library name resolved from: compiled reference
  NWCHEM_NWPW_LIBRARY set to: </home/list1234/source/nwchem-6.8.1-release/src/nwpw/libraryps/>

 Generated formatted atomic orbitals, filename: ./O.aorb
  library name resolved from: compiled reference
  NWCHEM_NWPW_LIBRARY set to: </home/list1234/source/nwchem-6.8.1-release/src/nwpw/libraryps/>

 Generated formatted atomic orbitals, filename: ./H.aorb

 lcao guess, initial psi:talc.movecs                                       
 -   spin, nalpha, nbeta:                    1                   48                    0

 input psi filename:./talc.movecs

 number of processors used:         4
 processor grid           :   4 x   1
 parallel mapping         :2d hilbert
 parallel mapping         :  balanced
 number of threads        :         1
 parallel io              :       off

 options:
      boundary conditions  = periodic    (version3)
      electron spin        = restricted
      exchange-correlation = LDA (Vosko et al) parameterization

 elements involved in the cluster:
      1: Si  valence charge:  4.0000  lmax=  2
             comment    : Hamann pseudopotential
             pseudpotential type            :   0
             highest angular component      :   2
             local potential used           :   2
             number of non-local projections:   4
             cutoff =   1.059   1.286   1.286

      2: Mg  valence charge:  2.0000  lmax=  2
             comment    : Troullier-Martins pseudopotential
             pseudpotential type            :   0
             highest angular component      :   2
             local potential used           :   2
             number of non-local projections:   4
             semicore corrections included  :  1.730 (radius)  0.722 (charge)
             cutoff =   2.592   2.592   2.592

      3: O   valence charge:  6.0000  lmax=  2
             comment    : Parameterized (Chem.Phys.Lett., vol 322, page 447) Hamman psp
             pseudpotential type            :   0
             highest angular component      :   2
             local potential used           :   2
             number of non-local projections:   4
             cutoff =   0.700   0.700   0.700

      4: H   valence charge:  1.0000  lmax=  1
             comment    : Parameterized (Chem.Phys.Lett., vol 322, page 447) Hamman psp
             pseudpotential type            :   0
             highest angular component      :   1
             local potential used           :   1
             number of non-local projections:   1
             cutoff =   0.800   0.800


 total charge:   0.000

 atomic composition:
     Si  :    4     Mg  :    3     O   :   12     H   :    2

 number of electrons: spin up=    48 (  48 per task)  down=    48 (  48 per task) (Fourier space)
 number of orbitals : spin up=    48 (  48 per task)  down=    48 (  48 per task) (Fourier space)

 supercell:
      cell_name:  cell_default                                      
      lattice:    a1=<   5.290  -0.008   0.000 >
                  a2=<   0.000   9.173   0.000 >
                  a3=<  -1.428  -0.076   9.351 >
      reciprocal: b1=<   1.188  -0.000   0.181 >
                  b2=<   0.001   0.685   0.006 >
                  b3=<  -0.000   0.000   0.672 >
      lattice:    a=       5.290 b=      9.173 c=       9.460
                  alpha=  90.460 beta=  98.680 gamma=  90.090
                  omega=       453.8

      density cutoff=  7.000  fft=  8x 12x 12(      203 waves       50 per task)
      wavefnc cutoff=  7.000  fft=  8x 12x 12(      203 waves       50 per task)
      Ewald summation: cut radius=    1.68  and  8
                       Madelung Wigner-Seitz= 1.56123651 (alpha= 2.51670069 rs= 4.76705700)

 technical parameters:
      time step=      5.80     fictitious mass=  400000.0
      tolerance=0.100E-08 (energy)   0.100E-08 (density)
      maximum iterations =      1000 (   10 inner    100 outer )





== Energy Calculation ==


          ============ Grassmann lmbfgs iteration ============
     >>>  ITERATION STARTED AT Sun Jun 30 08:01:21 2019  <<<
    iter.           Energy         DeltaE       DeltaRho 
    ------------------------------------------------------
     -  15 steepest descent iterations performed
      10   -0.1553618290E+03   -0.81211E-02    0.30767E+00
     -  10 steepest descent iterations performed
      20   -0.1553810104E+03   -0.32463E-03    0.18533E-02
      30   -0.1553814922E+03   -0.16559E-04    0.69153E-04
      40   -0.1553815633E+03   -0.20185E-04    0.28790E-04
     -  10 steepest descent iterations performed
      50   -0.1553823304E+03   -0.32413E-03    0.61209E-03
     -  10 steepest descent iterations performed
      60   -0.1553851694E+03   -0.42517E-03    0.67305E-03
     -  10 steepest descent iterations performed
      70   -0.1553866810E+03   -0.91282E-04    0.30298E-03
      80   -0.1553872076E+03   -0.47274E-05    0.19664E-03
      90   -0.1553872229E+03   -0.23601E-06    0.16412E-05
     100   -0.1553872243E+03   -0.50724E-07    0.51436E-06
     110   -0.1553872245E+03   -0.48448E-08    0.38053E-07
     120   -0.1553872245E+03   -0.96480E-09    0.64374E-09
  *** tolerance ok. iteration terminated
     >>>  ITERATION ENDED   AT Sun Jun 30 08:01:23 2019  <<<


==  Summary Of Results  ==

 number of electrons: spin up=   48.00000  down=   48.00000 (real space)

 total     energy    :  -0.1553872245E+03 (   -0.73994E+01/ion)
 total orbital energy:   0.4343985978E+02 (    0.90500E+00/electron)
 hartree   energy    :   0.8252911057E+02 (    0.17194E+01/electron)
 exc-corr  energy    :  -0.5838123213E+02 (   -0.12163E+01/electron)
 ion-ion   energy    :  -0.1332106559E+03 (   -0.63434E+01/ion)

 kinetic (planewave) :   0.1644167475E+03 (    0.34253E+01/electron)
 V_local (planewave) :  -0.2466855256E+03 (   -0.51393E+01/electron)
 V_nl    (planewave) :   0.3594433098E+02 (    0.74884E+00/electron)
 V_Coul  (planewave) :   0.1650582211E+03 (    0.34387E+01/electron)
 V_xc.   (planewave) :  -0.7529391432E+02 (   -0.15686E+01/electron)
 Virial Coefficient  :  -0.7357941911E+00

 orbital energies:
     0.1217275E+01 (  33.124eV)
     0.1146214E+01 (  31.190eV)
     0.1106137E+01 (  30.100eV)
     0.1086858E+01 (  29.575eV)
     0.1063925E+01 (  28.951eV)
     0.9983891E+00 (  27.168eV)
     0.9884159E+00 (  26.896eV)
     0.9738256E+00 (  26.499eV)
     0.9438184E+00 (  25.683eV)
     0.9381883E+00 (  25.530eV)
     0.8897663E+00 (  24.212eV)
     0.8817932E+00 (  23.995eV)
     0.8739744E+00 (  23.782eV)
     0.8271656E+00 (  22.509eV)
     0.8195655E+00 (  22.302eV)
     0.7763796E+00 (  21.127eV)
     0.7607872E+00 (  20.702eV)
     0.7248077E+00 (  19.723eV)
     0.7207480E+00 (  19.613eV)
     0.7042662E+00 (  19.164eV)
     0.6920512E+00 (  18.832eV)
     0.6098231E+00 (  16.594eV)
     0.5737285E+00 (  15.612eV)
     0.5464210E+00 (  14.869eV)
     0.4784004E+00 (  13.018eV)
     0.4735011E+00 (  12.885eV)
     0.3795658E+00 (  10.329eV)
     0.3746964E+00 (  10.196eV)
     0.3555622E+00 (   9.675eV)
     0.3268001E+00 (   8.893eV)
     0.3189497E+00 (   8.679eV)
     0.2520495E+00 (   6.859eV)
     0.2488114E+00 (   6.771eV)
     0.2108494E+00 (   5.738eV)
     0.1921895E+00 (   5.230eV)
     0.1668001E+00 (   4.539eV)
     0.7693002E-03 (   0.021eV)
    -0.3964438E-01 (  -1.079eV)
    -0.6657702E-01 (  -1.812eV)
    -0.1022742E+00 (  -2.783eV)
    -0.1321478E+00 (  -3.596eV)
    -0.1732295E+00 (  -4.714eV)
    -0.2552393E+00 (  -6.945eV)
    -0.2645930E+00 (  -7.200eV)
    -0.3024810E+00 (  -8.231eV)
    -0.4065469E+00 ( -11.063eV)
    -0.5697809E+00 ( -15.505eV)
    -0.6108252E+00 ( -16.622eV)

 Total PSPW energy     :  -0.1553872245E+03


=== Spin Contamination ===

 <Sexact^2> =    0.0000000000000000     
 <S^2>      =    0.0000000000000000     



== Center of Charge ==

spin up     (   -0.0019,    0.0002,   -0.0011 )
spin down   (   -0.0019,    0.0002,   -0.0011 )
     total  (   -0.0019,    0.0002,   -0.0011 )
ionic       (    0.0000,    0.0000,   -0.0000 )


== Molecular Dipole wrt Center of Mass ==

mu   =  (    0.1835,   -0.0197,    0.1058 ) au
|mu| =     0.2128 au,       0.5407 Debye

 output psi filename:./talc.movecs


== Timing ==

cputime in seconds
  prologue    :   0.618792E+01
  main loop   :   0.297098E+01
  epilogue    :   0.871754E-02
  total       :   0.916762E+01
  cputime/step:   0.955300E-02       (     311 evalulations,     115 linesearches)


Time spent doing                        total          step       percent
  total time                 :   0.916893E+01  0.294821E-01       100.0 %
  i/o time                   :   0.434593E+00  0.139741E-02         4.7 %
  FFTs                       :   0.394973E+00  0.127001E-02         4.3 %
  dot products               :   0.505694E+00  0.162602E-02         5.5 %
  geodesic                   :   0.384689E+00  0.123694E-02         4.2 %
  ffm_dgemm                  :   0.169735E-01  0.545773E-04         0.2 %
  fmf_dgemm                  :   0.171294E-01  0.550785E-04         0.2 %
  mmm_dgemm                  :   0.107402E-01  0.345346E-04         0.1 %
  m_diagonalize              :   0.381542E-01  0.122682E-03         0.4 %
  exchange correlation       :   0.117302E-01  0.377178E-04         0.1 %
  local pseudopotentials     :   0.488720E-04  0.157145E-06         0.0 %
  non-local pseudopotentials :   0.735899E-01  0.236624E-03         0.8 %
  hartree potentials         :   0.424166E-02  0.136388E-04         0.0 %
  ion-ion interaction        :   0.271591E+00  0.873283E-03         3.0 %
  structure factors          :   0.810577E+00  0.260636E-02         8.8 %
  phase factors              :   0.193910E-04  0.623505E-07         0.0 %
  masking and packing        :   0.231609E+01  0.744722E-02        25.3 %
  queue fft                  :   0.208092E+01  0.669107E-02        22.7 %
  queue fft (serial)         :   0.133081E+00  0.427914E-03         1.5 %
  queue fft (message passing):   0.193167E+01  0.621116E-02        21.1 %
  non-local psp FFM          :   0.534438E-01  0.171845E-03         0.6 %
  non-local psp FMF          :   0.977019E-02  0.314154E-04         0.1 %
  non-local psp FFM A        :   0.159810E-02  0.513859E-05         0.0 %
  non-local psp FFM B        :   0.405178E-01  0.130282E-03         0.4 %

     >>>  JOB COMPLETED     AT Sun Jun 30 08:01:24 2019  <<<
          ****************************************************
          *                                                  *
          *               NWPW PSPW Calculation              *
          *                                                  *
          * [ (Grassmann/Stiefel manifold implementation)  ] *
          *                                                  *
          *      [ NorthWest Chemistry implementation ]      *
          *                                                  *
          *            version #5.10   06/12/02              *
          *                                                  *
          *    This code was developed by Eric J. Bylaska,   *
          *    and was based upon algorithms and code        *
          *    developed by the group of Prof. John H. Weare *
          *                                                  *
          ****************************************************
     >>>  JOB STARTED       AT Sun Jun 30 08:01:24 2019  <<<
          ================ input data ========================

 ======================================================
 || Some distances are very short. Check coordinates ||
 ======================================================

 pseudopotential is not correctly formatted:Si.vpp                                            

 Generated formatted_filename: ./Si.vpp
 pseudopotential is not correctly formatted:Mg.vpp                                            

 Generated formatted_filename: ./Mg.vpp
 pseudopotential is not correctly formatted:O.vpp                                             

 Generated formatted_filename: ./O.vpp
 pseudopotential is not correctly formatted:H.vpp                                             

 Generated formatted_filename: ./H.vpp
 Error reading psi - bad grid
 nfft :                    8                   12                   12
 ngrid:                   10                   16                   18
 Error reading psi - bad grid
 nfft :                    8                   12                   12
 ngrid:                   10                   16                   18
 Error reading psi - bad grid

 Grid is being converted:
 ------------------------

 To turn off automatic grid conversion:

 set nwpw:psi_nogrid .false.

 old_filename: talc.movecs                                       
 new_filename: talc.movecs                                       
 converting  :   8x 12x 12 -->  10x 16x 18
converting .... psi:    1 spin: 1
converting .... psi:    2 spin: 1
converting .... psi:    3 spin: 1
converting .... psi:    4 spin: 1
converting .... psi:    5 spin: 1
converting .... psi:    6 spin: 1
converting .... psi:    7 spin: 1
converting .... psi:    8 spin: 1
converting .... psi:    9 spin: 1
converting .... psi:   10 spin: 1
converting .... psi:   11 spin: 1
converting .... psi:   12 spin: 1
converting .... psi:   13 spin: 1
converting .... psi:   14 spin: 1
converting .... psi:   15 spin: 1
converting .... psi:   16 spin: 1
converting .... psi:   17 spin: 1
converting .... psi:   18 spin: 1
converting .... psi:   19 spin: 1
converting .... psi:   20 spin: 1
converting .... psi:   21 spin: 1
converting .... psi:   22 spin: 1
converting .... psi:   23 spin: 1
converting .... psi:   24 spin: 1
converting .... psi:   25 spin: 1
converting .... psi:   26 spin: 1
converting .... psi:   27 spin: 1
converting .... psi:   28 spin: 1
converting .... psi:   29 spin: 1
converting .... psi:   30 spin: 1
converting .... psi:   31 spin: 1
converting .... psi:   32 spin: 1
converting .... psi:   33 spin: 1
converting .... psi:   34 spin: 1
converting .... psi:   35 spin: 1
converting .... psi:   36 spin: 1
converting .... psi:   37 spin: 1
converting .... psi:   38 spin: 1
converting .... psi:   39 spin: 1
converting .... psi:   40 spin: 1
converting .... psi:   41 spin: 1
converting .... psi:   42 spin: 1
converting .... psi:   43 spin: 1
converting .... psi:   44 spin: 1
converting .... psi:   45 spin: 1
converting .... psi:   46 spin: 1
converting .... psi:   47 spin: 1
converting .... psi:   48 spin: 1

 input psi filename:./talc.movecs

 number of processors used:         4
 processor grid           :   4 x   1
 parallel mapping         :2d hilbert
 parallel mapping         :  balanced
 number of threads        :         1
 parallel io              :       off

 options:
      boundary conditions  = periodic    (version3)
      electron spin        = restricted
      exchange-correlation = LDA (Vosko et al) parameterization

 elements involved in the cluster:
      1: Si  valence charge:  4.0000  lmax=  2
             comment    : Hamann pseudopotential
             pseudpotential type            :   0
             highest angular component      :   2
             local potential used           :   2
             number of non-local projections:   4
             cutoff =   1.059   1.286   1.286

      2: Mg  valence charge:  2.0000  lmax=  2
             comment    : Troullier-Martins pseudopotential
             pseudpotential type            :   0
             highest angular component      :   2
             local potential used           :   2
             number of non-local projections:   4
             semicore corrections included  :  1.730 (radius)  0.724 (charge)
             cutoff =   2.592   2.592   2.592

      3: O   valence charge:  6.0000  lmax=  2
             comment    : Parameterized (Chem.Phys.Lett., vol 322, page 447) Hamman psp
             pseudpotential type            :   0
             highest angular component      :   2
             local potential used           :   2
             number of non-local projections:   4
             cutoff =   0.700   0.700   0.700

      4: H   valence charge:  1.0000  lmax=  1
             comment    : Parameterized (Chem.Phys.Lett., vol 322, page 447) Hamman psp
             pseudpotential type            :   0
             highest angular component      :   1
             local potential used           :   1
             number of non-local projections:   1
             cutoff =   0.800   0.800


 total charge:   0.000

 atomic composition:
     Si  :    4     Mg  :    3     O   :   12     H   :    2

 number of electrons: spin up=    48 (  48 per task)  down=    48 (  48 per task) (Fourier space)
 number of orbitals : spin up=    48 (  48 per task)  down=    48 (  48 per task) (Fourier space)

 supercell:
      cell_name:  cell_default                                      
      lattice:    a1=<   5.290  -0.008   0.000 >
                  a2=<   0.000   9.173   0.000 >
                  a3=<  -1.428  -0.076   9.351 >
      reciprocal: b1=<   1.188  -0.000   0.181 >
                  b2=<   0.001   0.685   0.006 >
                  b3=<  -0.000   0.000   0.672 >
      lattice:    a=       5.290 b=      9.173 c=       9.460
                  alpha=  90.460 beta=  98.680 gamma=  90.090
                  omega=       453.8

      density cutoff= 14.000  fft= 10x 16x 18(      569 waves      142 per task)
      wavefnc cutoff= 14.000  fft= 10x 16x 18(      569 waves      142 per task)
      Ewald summation: cut radius=    1.68  and  8
                       Madelung Wigner-Seitz= 1.56123651 (alpha= 2.51670069 rs= 4.76705700)

 technical parameters:
      time step=      5.80     fictitious mass=  400000.0
      tolerance=0.100E-08 (energy)   0.100E-08 (density)
      maximum iterations =      1000 (   10 inner    100 outer )





== Energy Calculation ==


          ============ Grassmann lmbfgs iteration ============
     >>>  ITERATION STARTED AT Sun Jun 30 08:01:24 2019  <<<
    iter.           Energy         DeltaE       DeltaRho 
    ------------------------------------------------------
      10   -0.1710299514E+03   -0.74263E-02    0.35289E+01
     -  10 steepest descent iterations performed
      20   -0.1710567030E+03   -0.56230E-03    0.37710E-02
      30   -0.1710595197E+03   -0.14337E-03    0.54524E-03
      40   -0.1710603293E+03   -0.28615E-04    0.17013E-03
      50   -0.1710604738E+03   -0.66699E-05    0.23114E-04
      60   -0.1710605259E+03   -0.45140E-05    0.13172E-04
      70   -0.1710605613E+03   -0.20574E-05    0.10724E-04
      80   -0.1710605728E+03   -0.68740E-06    0.25321E-05
      90   -0.1710605776E+03   -0.37682E-06    0.10346E-05
     100   -0.1710605816E+03   -0.41572E-06    0.15804E-05
     -  10 steepest descent iterations performed
     110   -0.1710605827E+03   -0.46358E-07    0.68286E-07
     120   -0.1710605836E+03   -0.19050E-06    0.40196E-06
     -  10 steepest descent iterations performed
     130   -0.1710605844E+03   -0.36734E-07    0.59630E-07
     140   -0.1710605848E+03   -0.68772E-07    0.11927E-06
     -  10 steepest descent iterations performed
     150   -0.1710605852E+03   -0.29333E-07    0.30255E-07
     160   -0.1710605856E+03   -0.51065E-07    0.14625E-06
     -  10 steepest descent iterations performed
     170   -0.1710605860E+03   -0.24066E-07    0.31205E-07
     180   -0.1710605863E+03   -0.28974E-07    0.55716E-07
     -  10 steepest descent iterations performed
     190   -0.1710605865E+03   -0.20112E-07    0.18009E-07
     200   -0.1710605867E+03   -0.26054E-07    0.78438E-07
     -  10 steepest descent iterations performed
     210   -0.1710605870E+03   -0.16646E-07    0.18143E-07
     220   -0.1710605871E+03   -0.17090E-07    0.32646E-07
     -  10 steepest descent iterations performed
     230   -0.1710605872E+03   -0.13824E-07    0.12218E-07
     240   -0.1710605874E+03   -0.16344E-07    0.50968E-07
     -  10 steepest descent iterations performed
     250   -0.1710605876E+03   -0.11578E-07    0.11556E-07
     260   -0.1710605877E+03   -0.11669E-07    0.21886E-07
     -  10 steepest descent iterations performed
     270   -0.1710605878E+03   -0.97231E-08    0.86592E-08
     280   -0.1710605879E+03   -0.11447E-07    0.34927E-07
     -  10 steepest descent iterations performed
     290   -0.1710605880E+03   -0.82938E-08    0.78924E-08
     300   -0.1710605881E+03   -0.83349E-08    0.16029E-07
     -  10 steepest descent iterations performed
     310   -0.1710605881E+03   -0.70697E-08    0.63955E-08
     320   -0.1710605882E+03   -0.87625E-08    0.25062E-07
     -  10 steepest descent iterations performed
     330   -0.1710605883E+03   -0.61585E-08    0.56980E-08
     340   -0.1710605883E+03   -0.57755E-08    0.12032E-07
     350   -0.1710605894E+03   -0.47317E-07    0.62572E-05
     -  10 steepest descent iterations performed
     360   -0.1710605895E+03   -0.34590E-08    0.89254E-08
     370   -0.1710605895E+03   -0.95611E-09    0.36107E-09
  *** tolerance ok. iteration terminated
     >>>  ITERATION ENDED   AT Sun Jun 30 08:01:34 2019  <<<


==  Summary Of Results  ==

 number of electrons: spin up=   48.00000  down=   48.00000 (real space)

 total     energy    :  -0.1710605895E+03 (   -0.81457E+01/ion)
 total orbital energy:   0.4351494895E+02 (    0.90656E+00/electron)
 hartree   energy    :   0.9933064375E+02 (    0.20694E+01/electron)
 exc-corr  energy    :  -0.6157035970E+02 (   -0.12827E+01/electron)
 ion-ion   energy    :  -0.1332110824E+03 (   -0.63434E+01/ion)

 kinetic (planewave) :   0.1934831549E+03 (    0.40309E+01/electron)
 V_local (planewave) :  -0.2871811666E+03 (   -0.59829E+01/electron)
 V_nl    (planewave) :   0.1808822056E+02 (    0.37684E+00/electron)
 V_Coul  (planewave) :   0.1986612875E+03 (    0.41388E+01/electron)
 V_xc.   (planewave) :  -0.7953654741E+02 (   -0.16570E+01/electron)
 Virial Coefficient  :  -0.7750969640E+00

 orbital energies:
     0.1096076E+01 (  29.826eV)
     0.1010280E+01 (  27.491eV)
     0.9891025E+00 (  26.915eV)
     0.9749322E+00 (  26.529eV)
     0.9399233E+00 (  25.577eV)
     0.9016502E+00 (  24.535eV)
     0.8967066E+00 (  24.401eV)
     0.8630161E+00 (  23.484eV)
     0.8462718E+00 (  23.028eV)
     0.8144233E+00 (  22.162eV)
     0.8085291E+00 (  22.001eV)
     0.8084498E+00 (  21.999eV)
     0.8058180E+00 (  21.928eV)
     0.7646563E+00 (  20.808eV)
     0.7476804E+00 (  20.346eV)
     0.7435980E+00 (  20.234eV)
     0.7157794E+00 (  19.478eV)
     0.6560031E+00 (  17.851eV)
     0.6459244E+00 (  17.577eV)
     0.6458091E+00 (  17.573eV)
     0.6213549E+00 (  16.908eV)
     0.5484445E+00 (  14.924eV)
     0.5349126E+00 (  14.556eV)
     0.5328974E+00 (  14.501eV)
     0.4637231E+00 (  12.619eV)
     0.4367688E+00 (  11.885eV)
     0.3703146E+00 (  10.077eV)
     0.3702514E+00 (  10.075eV)
     0.3510142E+00 (   9.552eV)
     0.3055375E+00 (   8.314eV)
     0.2927216E+00 (   7.965eV)
     0.2781031E+00 (   7.568eV)
     0.2669200E+00 (   7.263eV)
     0.2589145E+00 (   7.045eV)
     0.2404929E+00 (   6.544eV)
     0.2086760E+00 (   5.678eV)
     0.1436811E+00 (   3.910eV)
     0.9885583E-01 (   2.690eV)
     0.8214751E-01 (   2.235eV)
     0.6517425E-01 (   1.773eV)
     0.3051902E-01 (   0.830eV)
    -0.2566603E-01 (  -0.698eV)
    -0.3687338E-01 (  -1.003eV)
    -0.6960087E-01 (  -1.894eV)
    -0.1460784E+00 (  -3.975eV)
    -0.2607342E+00 (  -7.095eV)
    -0.4183141E+00 ( -11.383eV)
    -0.4613125E+00 ( -12.553eV)

 Total PSPW energy     :  -0.1710605895E+03


=== Spin Contamination ===

 <Sexact^2> =    0.0000000000000000     
 <S^2>      =    0.0000000000000000     



== Center of Charge ==

spin up     (   -0.0000,    0.0000,   -0.0000 )
spin down   (   -0.0000,    0.0000,   -0.0000 )
     total  (   -0.0000,    0.0000,   -0.0000 )
ionic       (    0.0000,    0.0000,   -0.0000 )


== Molecular Dipole wrt Center of Mass ==

mu   =  (    0.0041,   -0.0021,    0.0019 ) au
|mu| =     0.0050 au,       0.0126 Debye

 output psi filename:./talc.movecs


== Timing ==

cputime in seconds
  prologue    :   0.135874E+00
  main loop   :   0.101805E+02
  epilogue    :   0.116204E-01
  total       :   0.103279E+02
  cputime/step:   0.106046E-01       (     960 evalulations,     364 linesearches)


Time spent doing                        total          step       percent
  total time                 :   0.103293E+02  0.107597E-01       100.0 %
  i/o time                   :   0.980618E-01  0.102148E-03         0.9 %
  FFTs                       :   0.182460E+00  0.190062E-03         1.8 %
  dot products               :   0.892821E+00  0.930022E-03         8.6 %
  geodesic                   :   0.109248E+01  0.113800E-02        10.6 %
  ffm_dgemm                  :   0.806300E-01  0.839896E-04         0.8 %
  fmf_dgemm                  :   0.150974E+00  0.157265E-03         1.5 %
  mmm_dgemm                  :   0.318204E-01  0.331462E-04         0.3 %
  m_diagonalize              :   0.698437E-01  0.727538E-04         0.7 %
  exchange correlation       :   0.786294E-01  0.819056E-04         0.8 %
  local pseudopotentials     :   0.319830E-04  0.333156E-07         0.0 %
  non-local pseudopotentials :   0.339299E+00  0.353437E-03         3.3 %
  hartree potentials         :   0.143129E-01  0.149093E-04         0.1 %
  ion-ion interaction        :   0.772519E+00  0.804708E-03         7.5 %
  structure factors          :   0.157957E-01  0.164538E-04         0.2 %
  phase factors              :   0.128580E-04  0.133937E-07         0.0 %
  masking and packing        :   0.271975E+01  0.283307E-02        26.3 %
  queue fft                  :   0.732126E+01  0.762631E-02        70.9 %
  queue fft (serial)         :   0.935031E+00  0.973991E-03         9.1 %
  queue fft (message passing):   0.632329E+01  0.658676E-02        61.2 %
  non-local psp FFM          :   0.222614E+00  0.231890E-03         2.2 %
  non-local psp FMF          :   0.781847E-01  0.814424E-04         0.8 %
  non-local psp FFM A        :   0.969547E-02  0.100994E-04         0.1 %
  non-local psp FFM B        :   0.174670E+00  0.181948E-03         1.7 %

     >>>  JOB COMPLETED     AT Sun Jun 30 08:01:34 2019  <<<
          ****************************************************
          *                                                  *
          *               NWPW PSPW Calculation              *
          *                                                  *
          * [ (Grassmann/Stiefel manifold implementation)  ] *
          *                                                  *
          *      [ NorthWest Chemistry implementation ]      *
          *                                                  *
          *            version #5.10   06/12/02              *
          *                                                  *
          *    This code was developed by Eric J. Bylaska,   *
          *    and was based upon algorithms and code        *
          *    developed by the group of Prof. John H. Weare *
          *                                                  *
          ****************************************************
     >>>  JOB STARTED       AT Sun Jun 30 08:01:34 2019  <<<
          ================ input data ========================

 ======================================================
 || Some distances are very short. Check coordinates ||
 ======================================================

 pseudopotential is not correctly formatted:Si.vpp                                            

 Generated formatted_filename: ./Si.vpp
 pseudopotential is not correctly formatted:Mg.vpp                                            

 Generated formatted_filename: ./Mg.vpp
 pseudopotential is not correctly formatted:O.vpp                                             

 Generated formatted_filename: ./O.vpp
 pseudopotential is not correctly formatted:H.vpp                                             

 Generated formatted_filename: ./H.vpp
 Error reading psi - bad grid
 nfft :                   10                   16                   18
 ngrid:                   12                   20                   20
 Error reading psi - bad grid
 nfft :                   10                   16                   18
 ngrid:                   12                   20                   20
 Error reading psi - bad grid

 Grid is being converted:
 ------------------------

 To turn off automatic grid conversion:

 set nwpw:psi_nogrid .false.

 old_filename: talc.movecs                                       
 new_filename: talc.movecs                                       
 converting  :  10x 16x 18 -->  12x 20x 20
converting .... psi:    1 spin: 1
converting .... psi:    2 spin: 1
converting .... psi:    3 spin: 1
converting .... psi:    4 spin: 1
converting .... psi:    5 spin: 1
converting .... psi:    6 spin: 1
converting .... psi:    7 spin: 1
converting .... psi:    8 spin: 1
converting .... psi:    9 spin: 1
converting .... psi:   10 spin: 1
converting .... psi:   11 spin: 1
converting .... psi:   12 spin: 1
converting .... psi:   13 spin: 1
converting .... psi:   14 spin: 1
converting .... psi:   15 spin: 1
converting .... psi:   16 spin: 1
converting .... psi:   17 spin: 1
converting .... psi:   18 spin: 1
converting .... psi:   19 spin: 1
converting .... psi:   20 spin: 1
converting .... psi:   21 spin: 1
converting .... psi:   22 spin: 1
converting .... psi:   23 spin: 1
converting .... psi:   24 spin: 1
converting .... psi:   25 spin: 1
converting .... psi:   26 spin: 1
converting .... psi:   27 spin: 1
converting .... psi:   28 spin: 1
converting .... psi:   29 spin: 1
converting .... psi:   30 spin: 1
converting .... psi:   31 spin: 1
converting .... psi:   32 spin: 1
converting .... psi:   33 spin: 1
converting .... psi:   34 spin: 1
converting .... psi:   35 spin: 1
converting .... psi:   36 spin: 1
converting .... psi:   37 spin: 1
converting .... psi:   38 spin: 1
converting .... psi:   39 spin: 1
converting .... psi:   40 spin: 1
converting .... psi:   41 spin: 1
converting .... psi:   42 spin: 1
converting .... psi:   43 spin: 1
converting .... psi:   44 spin: 1
converting .... psi:   45 spin: 1
converting .... psi:   46 spin: 1
converting .... psi:   47 spin: 1
converting .... psi:   48 spin: 1

 input psi filename:./talc.movecs

 number of processors used:         4
 processor grid           :   4 x   1
 parallel mapping         :2d hilbert
 parallel mapping         :  balanced
 number of threads        :         1
 parallel io              :       off

 options:
      boundary conditions  = periodic    (version3)
      electron spin        = restricted
      exchange-correlation = LDA (Vosko et al) parameterization

 elements involved in the cluster:
      1: Si  valence charge:  4.0000  lmax=  2
             comment    : Hamann pseudopotential
             pseudpotential type            :   0
             highest angular component      :   2
             local potential used           :   2
             number of non-local projections:   4
             cutoff =   1.059   1.286   1.286

      2: Mg  valence charge:  2.0000  lmax=  2
             comment    : Troullier-Martins pseudopotential
             pseudpotential type            :   0
             highest angular component      :   2
             local potential used           :   2
             number of non-local projections:   4
             semicore corrections included  :  1.730 (radius)  0.724 (charge)
             cutoff =   2.592   2.592   2.592

      3: O   valence charge:  6.0000  lmax=  2
             comment    : Parameterized (Chem.Phys.Lett., vol 322, page 447) Hamman psp
             pseudpotential type            :   0
             highest angular component      :   2
             local potential used           :   2
             number of non-local projections:   4
             cutoff =   0.700   0.700   0.700

      4: H   valence charge:  1.0000  lmax=  1
             comment    : Parameterized (Chem.Phys.Lett., vol 322, page 447) Hamman psp
             pseudpotential type            :   0
             highest angular component      :   1
             local potential used           :   1
             number of non-local projections:   1
             cutoff =   0.800   0.800


 total charge:   0.000

 atomic composition:
     Si  :    4     Mg  :    3     O   :   12     H   :    2

 number of electrons: spin up=    48 (  48 per task)  down=    48 (  48 per task) (Fourier space)
 number of orbitals : spin up=    48 (  48 per task)  down=    48 (  48 per task) (Fourier space)

 supercell:
      cell_name:  cell_default                                      
      lattice:    a1=<   5.290  -0.008   0.000 >
                  a2=<   0.000   9.173   0.000 >
                  a3=<  -1.428  -0.076   9.351 >
      reciprocal: b1=<   1.188  -0.000   0.181 >
                  b2=<   0.001   0.685   0.006 >
                  b3=<  -0.000   0.000   0.672 >
      lattice:    a=       5.290 b=      9.173 c=       9.460
                  alpha=  90.460 beta=  98.680 gamma=  90.090
                  omega=       453.8

      density cutoff= 21.000  fft= 12x 20x 20(     1054 waves      263 per task)
      wavefnc cutoff= 21.000  fft= 12x 20x 20(     1054 waves      263 per task)
      Ewald summation: cut radius=    1.68  and  8
                       Madelung Wigner-Seitz= 1.56123651 (alpha= 2.51670069 rs= 4.76705700)

 technical parameters:
      time step=      5.80     fictitious mass=  400000.0
      tolerance=0.100E-08 (energy)   0.100E-08 (density)
      maximum iterations =      1000 (   10 inner    100 outer )





== Energy Calculation ==


          ============ Grassmann lmbfgs iteration ============
     >>>  ITERATION STARTED AT Sun Jun 30 08:01:34 2019  <<<
    iter.           Energy         DeltaE       DeltaRho 
    ------------------------------------------------------
      10   -0.1772120099E+03   -0.14360E-02    0.55674E+00
     -  10 steepest descent iterations performed
      20   -0.1772164795E+03   -0.87662E-04    0.54564E-03
      30   -0.1772172365E+03   -0.37935E-04    0.20947E-03
      40   -0.1772174315E+03   -0.41820E-05    0.41685E-04
      50   -0.1772174450E+03   -0.32680E-06    0.11257E-05
      60   -0.1772174463E+03   -0.56047E-07    0.19902E-06
      70   -0.1772174466E+03   -0.14878E-07    0.46685E-07
      80   -0.1772174467E+03   -0.10185E-07    0.17388E-07
      90   -0.1772174468E+03   -0.18838E-07    0.46222E-07
     -  10 steepest descent iterations performed
     100   -0.1772174469E+03   -0.72463E-08    0.15620E-07
     110   -0.1772174470E+03   -0.60204E-08    0.12274E-07
     120   -0.1772174471E+03   -0.15295E-07    0.50138E-07
     -  10 steepest descent iterations performed
     130   -0.1772174472E+03   -0.43689E-08    0.11689E-07
     140   -0.1772174472E+03   -0.24333E-08    0.75394E-08
     150   -0.1772174472E+03   -0.26239E-08    0.72385E-08
     -  10 steepest descent iterations performed
     160   -0.1772174472E+03   -0.20025E-08    0.41016E-08
     170   -0.1772174473E+03   -0.18421E-08    0.52841E-08
     180   -0.1772174473E+03   -0.26378E-08    0.10007E-07
     -  10 steepest descent iterations performed
     190   -0.1772174473E+03   -0.13211E-08    0.33910E-08
     200   -0.1772174473E+03   -0.97845E-09    0.25170E-09
  *** tolerance ok. iteration terminated
     >>>  ITERATION ENDED   AT Sun Jun 30 08:01:40 2019  <<<


==  Summary Of Results  ==

 number of electrons: spin up=   48.00000  down=   48.00000 (real space)

 total     energy    :  -0.1772174473E+03 (   -0.84389E+01/ion)
 total orbital energy:   0.4291553156E+02 (    0.89407E+00/electron)
 hartree   energy    :   0.1052225397E+03 (    0.21921E+01/electron)
 exc-corr  energy    :  -0.6257594609E+02 (   -0.13037E+01/electron)
 ion-ion   energy    :  -0.1332110824E+03 (   -0.63434E+01/ion)

 kinetic (planewave) :   0.2074388604E+03 (    0.43216E+01/electron)
 V_local (planewave) :  -0.3017064778E+03 (   -0.62856E+01/electron)
 V_nl    (planewave) :   0.7614658894E+01 (    0.15864E+00/electron)
 V_Coul  (planewave) :   0.2104450795E+03 (    0.43843E+01/electron)
 V_xc.   (planewave) :  -0.8087658938E+02 (   -0.16849E+01/electron)
 Virial Coefficient  :  -0.7931172034E+00

 orbital energies:
     0.1043741E+01 (  28.402eV)
     0.9536592E+00 (  25.951eV)
     0.9500212E+00 (  25.852eV)
     0.9397544E+00 (  25.572eV)
     0.8966274E+00 (  24.399eV)
     0.8665162E+00 (  23.579eV)
     0.8610069E+00 (  23.429eV)
     0.8272453E+00 (  22.511eV)
     0.8091768E+00 (  22.019eV)
     0.7788687E+00 (  21.194eV)
     0.7728693E+00 (  21.031eV)
     0.7681450E+00 (  20.902eV)
     0.7673001E+00 (  20.879eV)
     0.7271221E+00 (  19.786eV)
     0.7156036E+00 (  19.473eV)
     0.7095804E+00 (  19.309eV)
     0.6875703E+00 (  18.710eV)
     0.6391339E+00 (  17.392eV)
     0.6215144E+00 (  16.912eV)
     0.6090786E+00 (  16.574eV)
     0.5934715E+00 (  16.149eV)
     0.5444105E+00 (  14.814eV)
     0.5296466E+00 (  14.413eV)
     0.5216999E+00 (  14.196eV)
     0.4520211E+00 (  12.300eV)
     0.4241511E+00 (  11.542eV)
     0.3719941E+00 (  10.123eV)
     0.3702797E+00 (  10.076eV)
     0.3597456E+00 (   9.789eV)
     0.3071002E+00 (   8.357eV)
     0.2922426E+00 (   7.952eV)
     0.2870302E+00 (   7.811eV)
     0.2713104E+00 (   7.383eV)
     0.2693332E+00 (   7.329eV)
     0.2631309E+00 (   7.160eV)
     0.2012851E+00 (   5.477eV)
     0.1812846E+00 (   4.933eV)
     0.1279002E+00 (   3.480eV)
     0.1090138E+00 (   2.966eV)
     0.9156698E-01 (   2.492eV)
     0.6207644E-01 (   1.689eV)
     0.3100147E-01 (   0.844eV)
     0.1345885E-01 (   0.366eV)
    -0.4285263E-01 (  -1.166eV)
    -0.9858617E-01 (  -2.683eV)
    -0.2128457E+00 (  -5.792eV)
    -0.3831851E+00 ( -10.427eV)
    -0.4244546E+00 ( -11.550eV)

 Total PSPW energy     :  -0.1772174473E+03


=== Spin Contamination ===

 <Sexact^2> =    0.0000000000000000     
 <S^2>      =    0.0000000000000000     



== Center of Charge ==

spin up     (   -0.0000,    0.0000,   -0.0000 )
spin down   (   -0.0000,    0.0000,   -0.0000 )
     total  (   -0.0000,    0.0000,   -0.0000 )
ionic       (    0.0000,    0.0000,   -0.0000 )


== Molecular Dipole wrt Center of Mass ==

mu   =  (    0.0006,   -0.0002,    0.0004 ) au
|mu| =     0.0008 au,       0.0020 Debye


Translation force removed: (    0.00001    0.00001   -0.00000)


          =============  Ion Gradients =================
 Ion Forces:
        1 Si   (    0.280385   -4.572918    3.011830 )
        2 Si   (   -0.280312    4.573296   -3.011882 )
        3 Si   (    0.127088    0.286960    0.084260 )
        4 Si   (   -0.127076   -0.287007   -0.084336 )
        5 Mg   (   -0.000004    0.000086    0.000013 )
        6 Mg   (    0.326773    0.336910   -1.199727 )
        7 Mg   (   -0.326730   -0.337018    1.199743 )
        8 O    (   -0.366313   -0.334726   -4.107717 )
        9 O    (    0.366354    0.334721    4.107764 )
       10 O    (    0.356395   -0.874645   -4.915022 )
       11 O    (   -0.356377    0.874658    4.915047 )
       12 O    (   -0.234008   -0.486287   -4.631549 )
       13 O    (    0.233809    0.486093    4.631585 )
       14 O    (   -3.938154    2.568300    1.657774 )
       15 O    (    3.938150   -2.568328   -1.657814 )
       16 O    (    4.174169    1.977060    1.896686 )
       17 O    (   -4.174300   -1.977115   -1.896595 )
       18 O    (   -0.586451   -0.360745    3.543373 )
       19 O    (    0.586526    0.360468   -3.543355 )
       20 H    (   -0.060183    0.033091    5.473806 )
       21 H    (    0.060136   -0.033093   -5.473785 )
        C.O.M. (   -0.000000    0.000000   -0.000000 )
          ===============================================
          |F|       =   0.194176E+02
          |F|/nion  =   0.924646E+00
          max|Fatom|=   0.548316E+01 ( 281.958eV/Angstrom)



 output psi filename:./talc.movecs


== Timing ==

cputime in seconds
  prologue    :   0.175805E+00
  main loop   :   0.621705E+01
  epilogue    :   0.145158E-01
  total       :   0.640737E+01
  cputime/step:   0.125092E-01       (     497 evalulations,     193 linesearches)


Time spent doing                        total          step       percent
  total time                 :   0.640869E+01  0.128948E-01       100.0 %
  i/o time                   :   0.139412E+00  0.280508E-03         2.2 %
  FFTs                       :   0.102444E+00  0.206125E-03         1.6 %
  dot products               :   0.605394E+00  0.121810E-02         9.4 %
  geodesic                   :   0.804646E+00  0.161901E-02        12.6 %
  ffm_dgemm                  :   0.653431E-01  0.131475E-03         1.0 %
  fmf_dgemm                  :   0.190057E+00  0.382408E-03         3.0 %
  mmm_dgemm                  :   0.164625E-01  0.331237E-04         0.3 %
  m_diagonalize              :   0.394286E-01  0.793333E-04         0.6 %
  exchange correlation       :   0.654625E-01  0.131715E-03         1.0 %
  local pseudopotentials     :   0.120713E-03  0.242883E-06         0.0 %
  non-local pseudopotentials :   0.289732E+00  0.582962E-03         4.5 %
  hartree potentials         :   0.856183E-02  0.172270E-04         0.1 %
  ion-ion interaction        :   0.447368E+00  0.900137E-03         7.0 %
  structure factors          :   0.156717E-01  0.315326E-04         0.2 %
  phase factors              :   0.146370E-04  0.294507E-07         0.0 %
  masking and packing        :   0.147194E+01  0.296166E-02        23.0 %
  queue fft                  :   0.415943E+01  0.836908E-02        64.9 %
  queue fft (serial)         :   0.653167E+00  0.131422E-02        10.2 %
  queue fft (message passing):   0.346510E+01  0.697204E-02        54.1 %
  non-local psp FFM          :   0.171571E+00  0.345213E-03         2.7 %
  non-local psp FMF          :   0.857043E-01  0.172443E-03         1.3 %
  non-local psp FFM A        :   0.992766E-02  0.199752E-04         0.2 %
  non-local psp FFM B        :   0.136133E+00  0.273910E-03         2.1 %

     >>>  JOB COMPLETED     AT Sun Jun 30 08:01:40 2019  <<<

@ Step       Energy      Delta E   Gmax     Grms     Xrms     Xmax   Walltime
@ ---- ---------------- -------- -------- -------- -------- -------- --------
@    0    -177.21744730  0.0D+00 51.27075 21.40137  0.00000  0.00000     25.9
                                                                    

 Restricting large step in mode   42 eval= 2.5D+02 step= 3.3D-01 new= 3.0D-01
 Restricting overall step due to large component. alpha=  0.11
          ****************************************************
          *                                                  *
          *               NWPW PSPW Calculation              *
          *                                                  *
          * [ (Grassmann/Stiefel manifold implementation)  ] *
          *                                                  *
          *      [ NorthWest Chemistry implementation ]      *
          *                                                  *
          *            version #5.10   06/12/02              *
          *                                                  *
          *    This code was developed by Eric J. Bylaska,   *
          *    and was based upon algorithms and code        *
          *    developed by the group of Prof. John H. Weare *
          *                                                  *
          ****************************************************
     >>>  JOB STARTED       AT Sun Jun 30 08:01:40 2019  <<<
          ================ input data ========================

 ======================================================
 || Some distances are very short. Check coordinates ||
 ======================================================


 input psi filename:./talc.movecs

 number of processors used:         4
 processor grid           :   4 x   1
 parallel mapping         :2d hilbert
 parallel mapping         :  balanced
 number of threads        :         1
 parallel io              :       off

 options:
      boundary conditions  = periodic    (version3)
      electron spin        = restricted
      exchange-correlation = LDA (Vosko et al) parameterization

 elements involved in the cluster:
      1: Si  valence charge:  4.0000  lmax=  2
             comment    : Hamann pseudopotential
             pseudpotential type            :   0
             highest angular component      :   2
             local potential used           :   2
             number of non-local projections:   4
             cutoff =   1.059   1.286   1.286

      2: Mg  valence charge:  2.0000  lmax=  2
             comment    : Troullier-Martins pseudopotential
             pseudpotential type            :   0
             highest angular component      :   2
             local potential used           :   2
             number of non-local projections:   4
             semicore corrections included  :  1.730 (radius)  0.724 (charge)
             cutoff =   2.592   2.592   2.592

      3: O   valence charge:  6.0000  lmax=  2
             comment    : Parameterized (Chem.Phys.Lett., vol 322, page 447) Hamman psp
             pseudpotential type            :   0
             highest angular component      :   2
             local potential used           :   2
             number of non-local projections:   4
             cutoff =   0.700   0.700   0.700

      4: H   valence charge:  1.0000  lmax=  1
             comment    : Parameterized (Chem.Phys.Lett., vol 322, page 447) Hamman psp
             pseudpotential type            :   0
             highest angular component      :   1
             local potential used           :   1
             number of non-local projections:   1
             cutoff =   0.800   0.800


 total charge:   0.000

 atomic composition:
     Si  :    4     Mg  :    3     O   :   12     H   :    2

 number of electrons: spin up=    48 (  48 per task)  down=    48 (  48 per task) (Fourier space)
 number of orbitals : spin up=    48 (  48 per task)  down=    48 (  48 per task) (Fourier space)

 supercell:
      cell_name:  cell_default                                      
      lattice:    a1=<   5.290  -0.008   0.000 >
                  a2=<   0.000   9.173   0.000 >
                  a3=<  -1.428  -0.076   9.351 >
      reciprocal: b1=<   1.188  -0.000   0.181 >
                  b2=<   0.001   0.685   0.006 >
                  b3=<  -0.000   0.000   0.672 >
      lattice:    a=       5.290 b=      9.173 c=       9.460
                  alpha=  90.460 beta=  98.680 gamma=  90.090
                  omega=       453.8

      density cutoff= 21.000  fft= 12x 20x 20(     1054 waves      263 per task)
      wavefnc cutoff= 21.000  fft= 12x 20x 20(     1054 waves      263 per task)
      Ewald summation: cut radius=    1.68  and  8
                       Madelung Wigner-Seitz= 1.56123651 (alpha= 2.51670069 rs= 4.76705700)

 technical parameters:
      time step=      5.80     fictitious mass=  400000.0
      tolerance=0.100E-08 (energy)   0.100E-08 (density)
      maximum iterations =      1000 (   10 inner    100 outer )





== Energy Calculation ==


          ============ Grassmann lmbfgs iteration ============
[...]

 Output coordinates in a.u. (scale by  1.000000000 to convert to a.u.)

  No.       Tag          Charge          X              Y              Z
 ---- ---------------- ---------- -------------- -------------- --------------
    1 Si                  14.0000     0.05834215     4.50278426     2.61352654
    2 Si                  14.0000     3.80386716     4.58595730     6.73779765
    3 Si                  14.0000     0.92146815     8.22938166     3.48350373
    4 Si                  14.0000     2.94074116     0.85935990     5.86782046
    5 Mg                  12.0000     0.00000000     0.00000000     0.00000000
    6 Mg                  12.0000     0.83980422     7.19684386     8.81430484
    7 Mg                  12.0000     3.02240509     1.89189770     0.53701936
    8 O                    8.0000    -0.15440174     6.98968246     1.36767951
    9 O                    8.0000     4.01661105     2.09905909     7.98364468
   10 O                    8.0000     2.62204280     5.92051770     2.86985654
   11 O                    8.0000     1.24016650     3.16822386     6.48146765
   12 O                    8.0000     0.03106006     4.52877458     9.32845965
   13 O                    8.0000     3.83114925     4.55996698     0.02286454
   14 O                    8.0000     0.90372273     1.84957380     2.40258989
   15 O                    8.0000     2.95848658     7.23916776     6.94873430
   16 O                    8.0000     3.51203520     0.01281667     3.22177809
   17 O                    8.0000     0.35017411     9.07592489     6.12954610
   18 O                    8.0000     0.20158145     5.99278524     5.06899295
   19 O                    8.0000     3.66062786     3.09595632     4.28233124
   20 H                    1.0000     3.24111218     6.35305391     4.57435702
   21 H                    1.0000     0.62109713     2.73568765     4.77696717

      Lattice Parameters 
      ------------------ 

      lattice vectors in a.u. (scale by  1.000000000 to convert to a.u.)

      a1=<   5.290  -0.008   0.000 >
      a2=<   0.000   9.173   0.000 >
      a3=<  -1.428  -0.076   9.351 >
      a=       5.290 b=      9.173 c=       9.460
      alpha=  90.460 beta=  98.680 gamma=  90.090
      omega=   453.8

      reciprocal lattice vectors in a.u.

      b1=<   1.188  -0.000   0.181 >
      b2=<   0.001   0.685   0.006 >
      b3=<  -0.000   0.000   0.672 >

      Atomic Mass 
      ----------- 

      Si                27.976930
      Mg                23.985040
      O                 15.994910
      H                  1.007825


      Symmetry information
      --------------------

 Group name                    P-1
 Group number              2
 Group order               2
 No. of unique centers    11
 Setting number            1

      Symmetry unique atoms

     1    3    5    6    8   10   12   14   16   18   20

 ==============================================================================
                                internuclear distances
 ------------------------------------------------------------------------------
       center one      |      center two      | atomic units |       a.u.
 ------------------------------------------------------------------------------
    3 Si               |   1 Si               |     3.92293  |     3.92293
    4 Si               |   2 Si               |     3.92293  |     3.92293
    5 Mg               |   1 Si               |     5.20663  |     5.20663
    6 Mg               |   2 Si               |     4.46254  |     4.46254
    7 Mg               |   1 Si               |     4.46254  |     4.46254
    7 Mg               |   5 Mg               |     3.60591  |     3.60591
    8 O                |   1 Si               |     2.78963  |     2.78963
    8 O                |   3 Si               |     2.67788  |     2.67788
    9 O                |   2 Si               |     2.78963  |     2.78963
    9 O                |   4 Si               |     2.67788  |     2.67788
   10 O                |   1 Si               |     2.94079  |     2.94079
   10 O                |   3 Si               |     2.93247  |     2.93247
   11 O                |   2 Si               |     2.94079  |     2.94079
   11 O                |   4 Si               |     2.93247  |     2.93247
   12 O                |   6 Mg               |     2.83496  |     2.83496
   13 O                |   7 Mg               |     2.83496  |     2.83496
   14 O                |   1 Si               |     2.79261  |     2.79261
   14 O                |   5 Mg               |     3.16387  |     3.16387
   14 O                |   7 Mg               |     2.82329  |     2.82329
   15 O                |   2 Si               |     2.79261  |     2.79261
   15 O                |   6 Mg               |     2.82329  |     2.82329
   16 O                |   4 Si               |     2.83629  |     2.83629
   16 O                |   7 Mg               |     3.31340  |     3.31340
   17 O                |   3 Si               |     2.83629  |     2.83629
   17 O                |   6 Mg               |     3.31340  |     3.31340
   18 O                |   1 Si               |     2.87575  |     2.87575
   18 O                |   3 Si               |     2.83450  |     2.83450
   18 O                |   6 Mg               |     3.98553  |     3.98553
   19 O                |   2 Si               |     2.87575  |     2.87575
   19 O                |   4 Si               |     2.83450  |     2.83450
   19 O                |   7 Mg               |     3.98553  |     3.98553
   20 H                |   2 Si               |     2.84953  |     2.84953
   20 H                |  10 O                |     1.86431  |     1.86431
   21 H                |   1 Si               |     2.84953  |     2.84953
   21 H                |  11 O                |     1.86431  |     1.86431
 ------------------------------------------------------------------------------
                         number of included internuclear distances:         35
 ==============================================================================



 ==============================================================================
                                 internuclear angles
 ------------------------------------------------------------------------------
        center 1       |       center 2       |       center 3       |  degrees
 ------------------------------------------------------------------------------
    3 Si               |   1 Si               |   5 Mg               |   159.28
    3 Si               |   1 Si               |   7 Mg               |   120.85
    1 Si               |   8 O                |   3 Si               |    91.67
    1 Si               |  10 O                |   3 Si               |    83.82
    3 Si               |   1 Si               |  14 O                |   148.50
    1 Si               |  18 O                |   3 Si               |    86.78
    3 Si               |   1 Si               |  21 H                |   112.17
    1 Si               |   7 Mg               |   5 Mg               |    79.60
    5 Mg               |   1 Si               |   8 O                |   123.09
    5 Mg               |   1 Si               |  10 O                |   118.06
    1 Si               |  14 O                |   5 Mg               |   121.76
    5 Mg               |   1 Si               |  18 O                |   151.31
    5 Mg               |   1 Si               |  21 H                |    81.20
    7 Mg               |   1 Si               |   8 O                |   111.37
    7 Mg               |   1 Si               |  10 O                |    75.14
    1 Si               |  14 O                |   7 Mg               |   105.24
    7 Mg               |   1 Si               |  18 O                |   131.86
    7 Mg               |   1 Si               |  21 H                |    81.91
    8 O                |   1 Si               |  10 O                |    71.07
    8 O                |   1 Si               |  14 O                |   146.75
    8 O                |   1 Si               |  18 O                |    85.60
    8 O                |   1 Si               |  21 H                |   155.09
   10 O                |   1 Si               |  14 O                |   101.58
   10 O                |   1 Si               |  18 O                |    68.43
   10 O                |   1 Si               |  21 H                |    93.48
   14 O                |   1 Si               |  18 O                |   122.80
   14 O                |   1 Si               |  21 H                |    53.73
   18 O                |   1 Si               |  21 H                |    70.32
    4 Si               |   2 Si               |   6 Mg               |   120.85
    2 Si               |   9 O                |   4 Si               |    91.67
    2 Si               |  11 O                |   4 Si               |    83.82
    4 Si               |   2 Si               |  15 O                |   148.50
    2 Si               |  19 O                |   4 Si               |    86.78
    4 Si               |   2 Si               |  20 H                |   112.17
    6 Mg               |   2 Si               |   9 O                |   111.37
    6 Mg               |   2 Si               |  11 O                |    75.14
    2 Si               |  15 O                |   6 Mg               |   105.24
    6 Mg               |   2 Si               |  19 O                |   131.86
    6 Mg               |   2 Si               |  20 H                |    81.91
    9 O                |   2 Si               |  11 O                |    71.07
    9 O                |   2 Si               |  15 O                |   146.75
    9 O                |   2 Si               |  19 O                |    85.60
    9 O                |   2 Si               |  20 H                |   155.09
   11 O                |   2 Si               |  15 O                |   101.58
   11 O                |   2 Si               |  19 O                |    68.43
   11 O                |   2 Si               |  20 H                |    93.48
   15 O                |   2 Si               |  19 O                |   122.80
   15 O                |   2 Si               |  20 H                |    53.73
   19 O                |   2 Si               |  20 H                |    70.32
    3 Si               |   8 O                |   1 Si               |    91.67
    3 Si               |  10 O                |   1 Si               |    83.82
    1 Si               |   3 Si               |  17 O                |   116.49
    3 Si               |  18 O                |   1 Si               |    86.78
    8 O                |   3 Si               |  10 O                |    72.73
    8 O                |   3 Si               |  17 O                |   142.59
    8 O                |   3 Si               |  18 O                |    88.55
   10 O                |   3 Si               |  17 O                |   123.16
   10 O                |   3 Si               |  18 O                |    69.09
   17 O                |   3 Si               |  18 O                |    70.28
    4 Si               |   9 O                |   2 Si               |    91.67
    4 Si               |  11 O                |   2 Si               |    83.82
    2 Si               |   4 Si               |  16 O                |   116.49
    4 Si               |  19 O                |   2 Si               |    86.78
    9 O                |   4 Si               |  11 O                |    72.73
    9 O                |   4 Si               |  16 O                |   142.59
    9 O                |   4 Si               |  19 O                |    88.55
   11 O                |   4 Si               |  16 O                |   123.16
   11 O                |   4 Si               |  19 O                |    69.09
   16 O                |   4 Si               |  19 O                |    70.28
    5 Mg               |   7 Mg               |   1 Si               |    79.60
    5 Mg               |  14 O                |   1 Si               |   121.76
    5 Mg               |  14 O                |   7 Mg               |    73.82
    2 Si               |   6 Mg               |  12 O                |    73.93
    6 Mg               |  15 O                |   2 Si               |   105.24
    2 Si               |   6 Mg               |  17 O                |    93.03
    2 Si               |   6 Mg               |  18 O                |    59.49
   12 O                |   6 Mg               |  15 O                |   110.37
   12 O                |   6 Mg               |  17 O                |   129.68
   12 O                |   6 Mg               |  18 O                |    80.82
   15 O                |   6 Mg               |  17 O                |    64.34
   15 O                |   6 Mg               |  18 O                |    60.25
   17 O                |   6 Mg               |  18 O                |    52.14
    1 Si               |   7 Mg               |   5 Mg               |    79.60
    1 Si               |   7 Mg               |  13 O                |    73.93
    7 Mg               |  14 O                |   1 Si               |   105.24
    1 Si               |   7 Mg               |  16 O                |    93.03
    1 Si               |   7 Mg               |  19 O                |    59.49
    5 Mg               |   7 Mg               |  13 O                |   134.90
    7 Mg               |  14 O                |   5 Mg               |    73.82
    5 Mg               |   7 Mg               |  16 O                |    86.96
    5 Mg               |   7 Mg               |  19 O                |   115.64
   13 O                |   7 Mg               |  14 O                |   110.37
   13 O                |   7 Mg               |  16 O                |   129.68
   13 O                |   7 Mg               |  19 O                |    80.82
   14 O                |   7 Mg               |  16 O                |    64.34
   14 O                |   7 Mg               |  19 O                |    60.25
   16 O                |   7 Mg               |  19 O                |    52.14
    1 Si               |   8 O                |   3 Si               |    91.67
    2 Si               |   9 O                |   4 Si               |    91.67
    1 Si               |  10 O                |   3 Si               |    83.82
    1 Si               |  10 O                |  20 H                |   118.75
    3 Si               |  10 O                |  20 H                |    79.55
    2 Si               |  11 O                |   4 Si               |    83.82
    2 Si               |  11 O                |  21 H                |   118.75
    4 Si               |  11 O                |  21 H                |    79.55
    1 Si               |  14 O                |   5 Mg               |   121.76
    1 Si               |  14 O                |   7 Mg               |   105.24
    5 Mg               |  14 O                |   7 Mg               |    73.82
    2 Si               |  15 O                |   6 Mg               |   105.24
    4 Si               |  16 O                |   7 Mg               |   123.84
    3 Si               |  17 O                |   6 Mg               |   123.84
    1 Si               |  18 O                |   3 Si               |    86.78
    1 Si               |  18 O                |   6 Mg               |   165.22
    3 Si               |  18 O                |   6 Mg               |   104.28
    2 Si               |  19 O                |   4 Si               |    86.78
    2 Si               |  19 O                |   7 Mg               |   165.22
    4 Si               |  19 O                |   7 Mg               |   104.28
    2 Si               |  20 H                |  10 O                |   128.01
    1 Si               |  21 H                |  11 O                |   128.01
 ------------------------------------------------------------------------------
                            number of included internuclear angles:        119
 ==============================================================================




 Task  times  cpu:      220.6s     wall:      221.1s


                                NWChem Input Module
                                -------------------


 Summary of allocated global arrays
-----------------------------------
  No active global arrays



                         GA Statistics for process    0
                         ------------------------------

       create   destroy   get      put      acc     scatter   gather  read&inc
calls:    8        8     2608      800        0        0        0        0     
number of processes/call 1.00e+00 1.00e+00 0.00e+00 0.00e+00 0.00e+00
bytes total:             1.13e+06 4.99e+05 0.00e+00 0.00e+00 0.00e+00 0.00e+00
bytes remote:            6.52e+05 2.50e+05 0.00e+00 0.00e+00 0.00e+00 0.00e+00
Max memory consumed for GA by this process: 99840 bytes

MA_summarize_allocated_blocks: starting scan ...
heap block 'sw1t', handle 324, address 0x56116ed83e38:
	type of elements:		double precision
	number of elements:		78
	address of client space:	0x56116ed83ec0
	index for client space:		13586923
	total number of bytes:		768
MA_summarize_allocated_blocks: scan completed: 1 heap block, 0 stack blocks
MA usage statistics:

	allocation statistics:
					      heap	     stack
					      ----	     -----
	current number of blocks	         1	         0
	maximum number of blocks	       281	        15
	current total bytes		       768	         0
	maximum total bytes		   2999720	    800136
	maximum total K-bytes		      3000	       801
	maximum total M-bytes		         3	         1


                                     CITATION
                                     --------
                Please cite the following reference when publishing
                           results obtained with NWChem:

                 M. Valiev, E.J. Bylaska, N. Govind, K. Kowalski,
              T.P. Straatsma, H.J.J. van Dam, D. Wang, J. Nieplocha,
                        E. Apra, T.L. Windus, W.A. de Jong
                 "NWChem: a comprehensive and scalable open-source
                  solution for large scale molecular simulations"
                      Comput. Phys. Commun. 181, 1477 (2010)
                           doi:10.1016/j.cpc.2010.04.018

                                      AUTHORS
                                      -------
          E. Apra, E. J. Bylaska, W. A. de Jong, N. Govind, K. Kowalski,
       T. P. Straatsma, M. Valiev, H. J. J. van Dam, D. Wang, T. L. Windus,
        J. Hammond, J. Autschbach, K. Bhaskaran-Nair, J. Brabec, K. Lopata,
    S. A. Fischer, S. Krishnamoorthy, M. Jacquelin, W. Ma, M. Klemm, O. Villa,
      Y. Chen, V. Anisimov, F. Aquino, S. Hirata, M. T. Hackler, V. Konjkov,
            D. Mejia-Rodriguez, T. Risthaus, M. Malagoli, A. Marenich,
   A. Otero-de-la-Roza, J. Mullin, P. Nichols, R. Peverati, J. Pittner, Y. Zhao,
        P.-D. Fan, A. Fonari, M. J. Williamson, R. J. Harrison, J. R. Rehr,
      M. Dupuis, D. Silverstein, D. M. A. Smith, J. Nieplocha, V. Tipparaju,
    M. Krishnan, B. E. Van Kuiken, A. Vazquez-Mayagoitia, L. Jensen, M. Swart,
      Q. Wu, T. Van Voorhis, A. A. Auer, M. Nooijen, L. D. Crosby, E. Brown,
      G. Cisneros, G. I. Fann, H. Fruchtl, J. Garza, K. Hirao, R. A. Kendall,
      J. A. Nichols, K. Tsemekhman, K. Wolinski, J. Anchell, D. E. Bernholdt,
      P. Borowski, T. Clark, D. Clerc, H. Dachsel, M. J. O. Deegan, K. Dyall,
    D. Elwood, E. Glendening, M. Gutowski, A. C. Hess, J. Jaffe, B. G. Johnson,
     J. Ju, R. Kobayashi, R. Kutteh, Z. Lin, R. Littlefield, X. Long, B. Meng,
      T. Nakajima, S. Niu, L. Pollack, M. Rosing, K. Glaesemann, G. Sandrone,
      M. Stave, H. Taylor, G. Thomas, J. H. van Lenthe, A. T. Wong, Z. Zhang.

 Total times  cpu:      220.6s     wall:      221.2s
