 argument  1 = /home/list1234/source/nwchem-6.8.1-release/QA/tests/tce_lr_ccsd_tq/tce_lr_ccsd_tq.nw



============================== echo of input deck ==============================
start tce_lr_ccsd_tq

echo

#memory 3500 mb

geometry units angstrom
symmetry c1
n 0.00 0.00  0.0000
n 0.00 0.00  1.2700
end

basis spherical
 N   S
   9046.0000000      0.70000000000E-03 -0.15300000000E-03
   1357.0000000      0.53890000000E-02 -0.12080000000E-02
   309.30000000      0.27406000000E-01 -0.59920000000E-02
   87.730000000      0.10320700000     -0.24544000000E-01
   28.560000000      0.27872300000     -0.67459000000E-01
   10.210000000      0.44854000000     -0.15807800000
   3.8380000000      0.27823800000     -0.12183100000
  0.74660000000      0.15440000000E-01  0.54900300000
 N   S
  0.22480000000       1.0000000000
 N   P
   13.550000000      0.39919000000E-01
   2.9170000000      0.21716900000
  0.79730000000      0.51031900000
 N   P
  0.21850000000       1.0000000000
 N   D
  0.81700000000       1.0000000000
end

scf
thresh 1.0e-10
tol2e 1.0e-10
maxiter 200
singlet
rhf
end


tce
freeze atomic
lr-ccsd(tq)-1
tilesize 7
thresh 1e-7
maxiter 200
end

task tce energy

================================================================================


                                         
                                         


              Northwest Computational Chemistry Package (NWChem) 6.8
              ------------------------------------------------------


                    Environmental Molecular Sciences Laboratory
                       Pacific Northwest National Laboratory
                                Richland, WA 99352

                              Copyright (c) 1994-2018
                       Pacific Northwest National Laboratory
                            Battelle Memorial Institute

             NWChem is an open-source computational chemistry package
                        distributed under the terms of the
                      Educational Community License (ECL) 2.0
             A copy of the license is included with this distribution
                              in the LICENSE.TXT file

                                  ACKNOWLEDGMENT
                                  --------------

            This software and its documentation were developed at the
            EMSL at Pacific Northwest National Laboratory, a multiprogram
            national laboratory, operated for the U.S. Department of Energy
            by Battelle under Contract Number DE-AC05-76RL01830. Support
            for this work was provided by the Department of Energy Office
            of Biological and Environmental Research, Office of Basic
            Energy Sciences, and the Office of Advanced Scientific Computing.


           Job information
           ---------------

    hostname        = list1234-B360M-H
    program         = /home/list1234/source/nwchem-6.8.1-release/bin/LINUX64/nwchem
    date            = Sun Jun 30 06:20:13 2019

    compiled        = Sun_Jun_30_05:21:11_2019
    source          = /home/list1234/source/nwchem-6.8.1-release
    nwchem branch   = Development
    nwchem revision = N/A
    ga revision     = 5.6.5
    use scalapack   = T
    input           = /home/list1234/source/nwchem-6.8.1-release/QA/tests/tce_lr_ccsd_tq/tce_lr_ccsd_tq.nw
    prefix          = tce_lr_ccsd_tq.
    data base       = ./tce_lr_ccsd_tq.db
    status          = startup
    nproc           =        4
    time left       =     -1s



           Memory information
           ------------------

    heap     =   86247164 doubles =    658.0 Mbytes
    stack    =   86247169 doubles =    658.0 Mbytes
    global   =  172494336 doubles =   1316.0 Mbytes (distinct from heap & stack)
    total    =  344988669 doubles =   2632.1 Mbytes
    verify   = yes
    hardfail = no 


           Directory information
           ---------------------

  0 permanent = .
  0 scratch   = .




                                NWChem Input Module
                                -------------------



 Scaling coordinates for geometry "geometry" by  1.889725989
 (inverse scale =  0.529177249)

 Turning off AUTOSYM since
 SYMMETRY directive was detected!


          ------
          auto-z
          ------
  no constraints, skipping    0.0000000000000000     
  no constraints, skipping    0.0000000000000000     


                             Geometry "geometry" -> ""
                             -------------------------

 Output coordinates in angstroms (scale by  1.889725989 to convert to a.u.)

  No.       Tag          Charge          X              Y              Z
 ---- ---------------- ---------- -------------- -------------- --------------
    1 n                    7.0000     0.00000000     0.00000000    -0.63500000
    2 n                    7.0000     0.00000000     0.00000000     0.63500000

      Atomic Mass 
      ----------- 

      n                 14.003070


 Effective nuclear repulsion energy (a.u.)      20.4170749614

            Nuclear Dipole moment (a.u.) 
            ----------------------------
        X                 Y               Z
 ---------------- ---------------- ----------------
     0.0000000000     0.0000000000     0.0000000000



                                Z-matrix (autoz)
                                -------- 

 Units are Angstrom for bonds and degrees for angles

      Type          Name      I     J     K     L     M      Value
      ----------- --------  ----- ----- ----- ----- ----- ----------
    1 Stretch                  1     2                       1.27000


            XYZ format geometry
            -------------------
     2
 geometry
 n                     0.00000000     0.00000000    -0.63500000
 n                     0.00000000     0.00000000     0.63500000

 ==============================================================================
                                internuclear distances
 ------------------------------------------------------------------------------
       center one      |      center two      | atomic units |  angstroms
 ------------------------------------------------------------------------------
    2 n                |   1 n                |     2.39995  |     1.27000
 ------------------------------------------------------------------------------
                         number of included internuclear distances:          1
 ==============================================================================



                      Basis "ao basis" -> "" (spherical)
                      -----
  N (Nitrogen)
  ------------
            Exponent  Coefficients 
       -------------- ---------------------------------------------------------
  1 S  9.04600000E+03  0.000700
  1 S  1.35700000E+03  0.005389
  1 S  3.09300000E+02  0.027406
  1 S  8.77300000E+01  0.103207
  1 S  2.85600000E+01  0.278723
  1 S  1.02100000E+01  0.448540
  1 S  3.83800000E+00  0.278238
  1 S  7.46600000E-01  0.015440

  2 S  9.04600000E+03 -0.000153
  2 S  1.35700000E+03 -0.001208
  2 S  3.09300000E+02 -0.005992
  2 S  8.77300000E+01 -0.024544
  2 S  2.85600000E+01 -0.067459
  2 S  1.02100000E+01 -0.158078
  2 S  3.83800000E+00 -0.121831
  2 S  7.46600000E-01  0.549003

  3 S  2.24800000E-01  1.000000

  4 P  1.35500000E+01  0.039919
  4 P  2.91700000E+00  0.217169
  4 P  7.97300000E-01  0.510319

  5 P  2.18500000E-01  1.000000

  6 D  8.17000000E-01  1.000000



 Summary of "ao basis" -> "" (spherical)
 ------------------------------------------------------------------------------
       Tag                 Description            Shells   Functions and Types
 ---------------- ------------------------------  ------  ---------------------
 N                       user specified              6       14   3s2p1d


                                 NWChem SCF Module
                                 -----------------



  ao basis        = "ao basis"
  functions       =    28
  atoms           =     2
  closed shells   =     7
  open shells     =     0
  charge          =   0.00
  wavefunction    = RHF 
  input vectors   = atomic
  output vectors  = ./tce_lr_ccsd_tq.movecs
  use symmetry    = F
  symmetry adapt  = F


 Summary of "ao basis" -> "ao basis" (spherical)
 ------------------------------------------------------------------------------
       Tag                 Description            Shells   Functions and Types
 ---------------- ------------------------------  ------  ---------------------
 N                       user specified              6       14   3s2p1d



 Forming initial guess at       0.0s


      Superposition of Atomic Density Guess
      -------------------------------------

 Sum of atomic energies:        -108.60004629

      Non-variational initial energy
      ------------------------------

 Total energy =    -108.597748
 1-e energy   =    -188.133515
 2-e energy   =      59.118692
 HOMO         =      -0.387290
 LUMO         =      -0.021584


 Starting SCF solution at       0.1s



 ----------------------------------------------
         Quadratically convergent ROHF

 Convergence threshold     :          1.000E-10
 Maximum no. of iterations :          200
 Final Fock-matrix accuracy:          1.000E-10
 ----------------------------------------------


              iter       energy          gnorm     gmax       time
             ----- ------------------- --------- --------- --------
                 1     -108.8504059452  4.99D-01  2.73D-01      0.2
                 2     -108.8656545619  1.19D-01  6.35D-02      0.2
                 3     -108.8668294763  1.48D-03  8.63D-04      0.3
                 4     -108.8668295747  5.11D-07  2.48D-07      0.4
                 5     -108.8668295747  1.97D-12  8.50D-13      0.6


       Final RHF  results 
       ------------------ 

         Total SCF energy =   -108.866829574674
      One-electron energy =   -187.870712621290
      Two-electron energy =     58.586808085211
 Nuclear repulsion energy =     20.417074961406

        Time for solution =      0.5s


             Final eigenvalues
             -----------------

              1      
    1  -15.7369
    2  -15.7353
    3   -1.3527
    4   -0.8266
    5   -0.6076
    6   -0.5448
    7   -0.5448
    8    0.0941
    9    0.0941
   10    0.5002
   11    0.8867
   12    0.9087
   13    0.9087
   14    0.9422
   15    0.9802
   16    1.0210
   17    1.0210

                       ROHF Final Molecular Orbital Analysis
                       -------------------------------------

 Vector    2  Occ=2.000000D+00  E=-1.573535D+01
              MO Center= -1.0D-18,  3.8D-19, -5.4D-12, r^2= 4.2D-01
   Bfn.  Coefficient  Atom+Function         Bfn.  Coefficient  Atom+Function  
  ----- ------------  ---------------      ----- ------------  ---------------
     1      0.707739  1 N  s                 15     -0.707739  2 N  s          

 Vector    3  Occ=2.000000D+00  E=-1.352693D+00
              MO Center= -1.1D-16, -5.8D-17,  4.0D-15, r^2= 5.7D-01
   Bfn.  Coefficient  Atom+Function         Bfn.  Coefficient  Atom+Function  
  ----- ------------  ---------------      ----- ------------  ---------------
     2      0.335796  1 N  s                 16      0.335796  2 N  s          
     3      0.239934  1 N  s                 17      0.239934  2 N  s          
     6      0.175188  1 N  pz                20     -0.175188  2 N  pz         

 Vector    4  Occ=2.000000D+00  E=-8.265751D-01
              MO Center=  2.7D-17, -1.2D-16,  1.7D-14, r^2= 1.4D+00
   Bfn.  Coefficient  Atom+Function         Bfn.  Coefficient  Atom+Function  
  ----- ------------  ---------------      ----- ------------  ---------------
     3      0.425320  1 N  s                 17     -0.425320  2 N  s          
     2      0.351193  1 N  s                 16     -0.351193  2 N  s          
     6     -0.180433  1 N  pz                20     -0.180433  2 N  pz         

 Vector    5  Occ=2.000000D+00  E=-6.075628D-01
              MO Center= -2.6D-17, -1.0D-16, -2.6D-14, r^2= 1.4D+00
   Bfn.  Coefficient  Atom+Function         Bfn.  Coefficient  Atom+Function  
  ----- ------------  ---------------      ----- ------------  ---------------
     6      0.457155  1 N  pz                20     -0.457155  2 N  pz         
     3     -0.287360  1 N  s                 17     -0.287360  2 N  s          
     9      0.234349  1 N  pz                23     -0.234349  2 N  pz         

 Vector    6  Occ=2.000000D+00  E=-5.447581D-01
              MO Center= -6.3D-17, -5.7D-18, -2.5D-15, r^2= 1.1D+00
   Bfn.  Coefficient  Atom+Function         Bfn.  Coefficient  Atom+Function  
  ----- ------------  ---------------      ----- ------------  ---------------
     5      0.324059  1 N  py                19      0.324059  2 N  py         
     4     -0.260773  1 N  px                18     -0.260773  2 N  px         
     8      0.226568  1 N  py                22      0.226568  2 N  py         
     7     -0.182322  1 N  px                21     -0.182322  2 N  px         

 Vector    7  Occ=2.000000D+00  E=-5.447581D-01
              MO Center=  4.8D-16,  4.9D-16, -3.0D-15, r^2= 1.1D+00
   Bfn.  Coefficient  Atom+Function         Bfn.  Coefficient  Atom+Function  
  ----- ------------  ---------------      ----- ------------  ---------------
     4      0.324059  1 N  px                18      0.324059  2 N  px         
     5      0.260773  1 N  py                19      0.260773  2 N  py         
     7      0.226568  1 N  px                21      0.226568  2 N  px         
     8      0.182322  1 N  py                22      0.182322  2 N  py         

 Vector    8  Occ=0.000000D+00  E= 9.409773D-02
              MO Center= -2.7D-18,  1.5D-16,  5.0D-15, r^2= 1.4D+00
   Bfn.  Coefficient  Atom+Function         Bfn.  Coefficient  Atom+Function  
  ----- ------------  ---------------      ----- ------------  ---------------
     8      0.559814  1 N  py                22     -0.559814  2 N  py         
     5      0.441128  1 N  py                19     -0.441128  2 N  py         

 Vector    9  Occ=0.000000D+00  E= 9.409773D-02
              MO Center= -6.3D-17, -9.6D-19,  1.7D-15, r^2= 1.4D+00
   Bfn.  Coefficient  Atom+Function         Bfn.  Coefficient  Atom+Function  
  ----- ------------  ---------------      ----- ------------  ---------------
     7      0.559814  1 N  px                21     -0.559814  2 N  px         
     4      0.441128  1 N  px                18     -0.441128  2 N  px         

 Vector   10  Occ=0.000000D+00  E= 5.002028D-01
              MO Center=  2.4D-16, -2.0D-16,  7.6D-14, r^2= 2.5D+00
   Bfn.  Coefficient  Atom+Function         Bfn.  Coefficient  Atom+Function  
  ----- ------------  ---------------      ----- ------------  ---------------
     3      2.121565  1 N  s                 17     -2.121565  2 N  s          
     9      1.767560  1 N  pz                23      1.767560  2 N  pz         
     6      0.269399  1 N  pz                20      0.269399  2 N  pz         
     2      0.194289  1 N  s                 16     -0.194289  2 N  s          

 Vector   11  Occ=0.000000D+00  E= 8.867433D-01
              MO Center=  2.2D-15, -3.8D-16,  8.0D-14, r^2= 2.3D+00
   Bfn.  Coefficient  Atom+Function         Bfn.  Coefficient  Atom+Function  
  ----- ------------  ---------------      ----- ------------  ---------------
     9      0.857604  1 N  pz                23     -0.857604  2 N  pz         
     6     -0.552836  1 N  pz                20      0.552836  2 N  pz         

 Vector   12  Occ=0.000000D+00  E= 9.087462D-01
              MO Center= -1.8D-15,  1.4D-15, -3.6D-15, r^2= 1.8D+00
   Bfn.  Coefficient  Atom+Function         Bfn.  Coefficient  Atom+Function  
  ----- ------------  ---------------      ----- ------------  ---------------
     4      0.537883  1 N  px                18      0.537883  2 N  px         
     7     -0.488253  1 N  px                21     -0.488253  2 N  px         
     5     -0.430526  1 N  py                19     -0.430526  2 N  py         
     8      0.390802  1 N  py                22      0.390802  2 N  py         

 Vector   13  Occ=0.000000D+00  E= 9.087462D-01
              MO Center= -1.7D-15, -2.1D-15, -6.7D-15, r^2= 1.8D+00
   Bfn.  Coefficient  Atom+Function         Bfn.  Coefficient  Atom+Function  
  ----- ------------  ---------------      ----- ------------  ---------------
     5      0.537883  1 N  py                19      0.537883  2 N  py         
     8     -0.488253  1 N  py                22     -0.488253  2 N  py         
     4      0.430526  1 N  px                18      0.430526  2 N  px         
     7     -0.390802  1 N  px                21     -0.390802  2 N  px         

 Vector   14  Occ=0.000000D+00  E= 9.422303D-01
              MO Center= -1.2D-15, -2.5D-15, -8.5D-14, r^2= 1.9D+00
   Bfn.  Coefficient  Atom+Function         Bfn.  Coefficient  Atom+Function  
  ----- ------------  ---------------      ----- ------------  ---------------
     9      1.150104  1 N  pz                23      1.150104  2 N  pz         
     3      0.818945  1 N  s                 17     -0.818945  2 N  s          
     6     -0.753482  1 N  pz                20     -0.753482  2 N  pz         
    12      0.170390  1 N  d  0              26     -0.170390  2 N  d  0       

 Vector   15  Occ=0.000000D+00  E= 9.802151D-01
              MO Center=  7.0D-16,  1.1D-15, -6.1D-14, r^2= 1.8D+00
   Bfn.  Coefficient  Atom+Function         Bfn.  Coefficient  Atom+Function  
  ----- ------------  ---------------      ----- ------------  ---------------
     2      1.074018  1 N  s                 16      1.074018  2 N  s          
     3     -0.949194  1 N  s                 17     -0.949194  2 N  s          
     1      0.443274  1 N  s                 15      0.443274  2 N  s          
     6     -0.156537  1 N  pz                20      0.156537  2 N  pz         

 Vector   16  Occ=0.000000D+00  E= 1.020952D+00
              MO Center=  3.1D-16,  2.5D-15,  8.8D-15, r^2= 2.1D+00
   Bfn.  Coefficient  Atom+Function         Bfn.  Coefficient  Atom+Function  
  ----- ------------  ---------------      ----- ------------  ---------------
     8      1.053165  1 N  py                22     -1.053165  2 N  py         
     5     -0.713828  1 N  py                19      0.713828  2 N  py         

 Vector   17  Occ=0.000000D+00  E= 1.020952D+00
              MO Center=  3.8D-16, -4.5D-17,  2.4D-15, r^2= 2.1D+00
   Bfn.  Coefficient  Atom+Function         Bfn.  Coefficient  Atom+Function  
  ----- ------------  ---------------      ----- ------------  ---------------
     7      1.053165  1 N  px                21     -1.053165  2 N  px         
     4     -0.713828  1 N  px                18      0.713828  2 N  px         


 center of mass
 --------------
 x =   0.00000000 y =   0.00000000 z =   0.00000000

 moments of inertia (a.u.)
 ------------------
          40.327228647190           0.000000000000           0.000000000000
           0.000000000000          40.327228647190           0.000000000000
           0.000000000000           0.000000000000           0.000000000000

  Mulliken analysis of the total density
  --------------------------------------

    Atom       Charge   Shell Charges
 -----------   ------   -------------------------------------------------------
    1 N    7     7.00   2.00  0.89  0.92  1.95  1.19  0.05
    2 N    7     7.00   2.00  0.89  0.92  1.95  1.19  0.05

       Multipole analysis of the density wrt the origin
       ------------------------------------------------

     L   x y z        total         open         nuclear
     -   - - -        -----         ----         -------
     0   0 0 0     -0.000000      0.000000     14.000000

     1   1 0 0     -0.000000      0.000000      0.000000
     1   0 1 0     -0.000000      0.000000      0.000000
     1   0 0 1      0.000000      0.000000      0.000000

     2   2 0 0     -7.939868      0.000000      0.000000
     2   1 1 0     -0.000000      0.000000      0.000000
     2   1 0 1     -0.000000      0.000000      0.000000
     2   0 2 0     -7.939868      0.000000      0.000000
     2   0 1 1     -0.000000      0.000000      0.000000
     2   0 0 2     -8.721022      0.000000     20.159194

                   NWChem Extensible Many-Electron Theory Module
                   ---------------------------------------------

              ======================================================
                   This portion of the program was automatically
                  generated by a Tensor Contraction Engine (TCE).
                  The development of this portion of the program
                 and TCE was supported by US Department of Energy,
                Office of Science, Office of Basic Energy Science.
                      TCE is a product of Battelle and PNNL.
              Please cite: S.Hirata, J.Phys.Chem.A 107, 9887 (2003).
              ======================================================

            General Information
            -------------------
      Number of processors :     4
         Wavefunction type : Restricted Hartree-Fock
          No. of electrons :    14
           Alpha electrons :     7
            Beta electrons :     7
           No. of orbitals :    56
            Alpha orbitals :    28
             Beta orbitals :    28
        Alpha frozen cores :     2
         Beta frozen cores :     2
     Alpha frozen virtuals :     0
      Beta frozen virtuals :     0
         Spin multiplicity : singlet 
    Number of AO functions :    28
       Number of AO shells :    12
        Use of symmetry is : off
      Symmetry adaption is : off
         Schwarz screening : 0.10D-09

          Correlation Information
          -----------------------
          Calculation type : Coupled-cluster singles & doubles w/ perturbation           
   Perturbative correction : locally renormalized (TQ)-1                                 
            Max iterations :      200
        Residual threshold : 0.10D-06
     T(0) DIIS level shift : 0.00D+00
     L(0) DIIS level shift : 0.00D+00
     T(1) DIIS level shift : 0.00D+00
     L(1) DIIS level shift : 0.00D+00
     T(R) DIIS level shift : 0.00D+00
     T(I) DIIS level shift : 0.00D+00
   CC-T/L Amplitude update :  5-th order DIIS
                I/O scheme : Global Array Library
        L-threshold :  0.10D-06
        EOM-threshold :  0.10D-06
 no EOMCCSD initial starts read in
 TCE RESTART OPTIONS
 READ_INT:   F
 WRITE_INT:  F
 READ_TA:    F
 WRITE_TA:   F
 READ_XA:    F
 WRITE_XA:   F
 READ_IN3:   F
 WRITE_IN3:  F
 SLICE:      F
 D4D5:       F

            Memory Information
            ------------------
          Available GA space size is     689976560 doubles
          Available MA space size is     172492628 doubles

 Maximum block size supplied by input
 Maximum block size         7 doubles

 tile_dim =      7

 Block   Spin    Irrep     Size     Offset   Alpha
 -------------------------------------------------
   1    alpha     a      5 doubles       0       1
   2    beta      a      5 doubles       5       1
   3    alpha     a      7 doubles      10       3
   4    alpha     a      7 doubles      17       4
   5    alpha     a      7 doubles      24       5
   6    beta      a      7 doubles      31       3
   7    beta      a      7 doubles      38       4
   8    beta      a      7 doubles      45       5

 Global array virtual files algorithm will be used

 Parallel file system coherency ......... OK

 Fock matrix recomputed
 1-e file size   =              676
 1-e file name   = ./tce_lr_ccsd_tq.f1
 Cpu & wall time / sec            0.0            0.0

 tce_ao2e: fast2e=1
 half-transformed integrals in memory

 2-e (intermediate) file size =         1194816
 2-e (intermediate) file name = ./tce_lr_ccsd_tq.v2i
 Cpu & wall time / sec            0.1            0.1

 tce_mo2e: fast2e=1
 2-e integrals stored in memory

 2-e file size   =           636752
 2-e file name   = ./tce_lr_ccsd_tq.v2
 Cpu & wall time / sec            0.0            0.0
 T1-number-of-tasks                    3

 t1 file size   =              105
 t1 file name   = ./tce_lr_ccsd_tq.t1
 t1 file handle =       -999
 T2-number-of-boxes                   15

 t2 file size   =            18375
 t2 file name   = ./tce_lr_ccsd_tq.t2
 t2 file handle =       -996

 CCSD iterations
 -----------------------------------------------------------------
 Iter          Residuum       Correlation     Cpu    Wall    V2*C2
 -----------------------------------------------------------------
    1   0.2005311471517  -0.3658482918861     0.0     0.0     0.0
    2   0.0667244040718  -0.3283316518253     0.0     0.0     0.0
    3   0.0255433768406  -0.3509946222541     0.0     0.0     0.0
    4   0.0140297731628  -0.3463523210443     0.0     0.0     0.0
    5   0.0068967195027  -0.3496309477019     0.0     0.0     0.0
 MICROCYCLE DIIS UPDATE:                    5                    5
    6   0.0016216918685  -0.3499638320891     0.0     0.0     0.0
    7   0.0006206486413  -0.3500744109355     0.0     0.0     0.0
    8   0.0003316495896  -0.3500704261865     0.0     0.0     0.0
    9   0.0001901449529  -0.3500808581545     0.0     0.0     0.0
   10   0.0001143327933  -0.3500856397951     0.0     0.0     0.0
 MICROCYCLE DIIS UPDATE:                   10                    5
   11   0.0000199459953  -0.3500944210064     0.0     0.0     0.0
   12   0.0000074629429  -0.3500983537988     0.0     0.0     0.0
   13   0.0000039628736  -0.3500978254754     0.0     0.0     0.0
   14   0.0000019622486  -0.3500984543002     0.0     0.0     0.0
   15   0.0000011515517  -0.3500984363762     0.0     0.0     0.0
 MICROCYCLE DIIS UPDATE:                   15                    5
   16   0.0000002830738  -0.3500986111164     0.0     0.0     0.0
   17   0.0000001345195  -0.3500986432067     0.0     0.0     0.0
   18   0.0000000772061  -0.3500986410973     0.0     0.0     0.0
 -----------------------------------------------------------------
 Iterations converged
 CCSD correlation energy / hartree =        -0.350098641097260
 CCSD total energy / hartree       =      -109.216928215770835

 Singles contributions

 Doubles contributions
 LR-CCSD(T)

 LR-CCSD(T)IA correlation energy / hartree =        -0.365480276787986
 LR-CCSD(T)IA total energy / hartree       =      -109.232309851461565

 LR-CCSD(T)IB correlation energy / hartree =        -0.363371787071745
 LR-CCSD(T)IB total energy / hartree       =      -109.230201361745316

 LR-CCSD(T)IIA correlation energy / hartree =        -0.367405983879246
 LR-CCSD(T)IIA total energy / hartree       =      -109.234235558552825

 LR-CCSD(T)IIB correlation energy / hartree =        -0.365297494163004
 LR-CCSD(T)IIB total energy / hartree       =      -109.232127068836576

 LR-CCSD(T)IIIA correlation energy / hartree =        -0.369701457340864
 LR-CCSD(T)IIIA total energy / hartree       =      -109.236531032014440

 LR-CCSD(T)IIIB correlation energy / hartree =        -0.367357912713371
 LR-CCSD(T)IIIB total energy / hartree       =      -109.234187487386947

 Cpu & wall time / sec            0.2            0.2

 LR-CCSD(TQ)-1,B correlation energy / hartree =        -0.368760351344170
 LR-CCSD(TQ)-1,B total energy / hartree       =      -109.235589926017738

 Cpu & wall time / sec           58.6           58.7

 Task  times  cpu:       59.7s     wall:       60.0s


                                NWChem Input Module
                                -------------------


 Summary of allocated global arrays
-----------------------------------
  No active global arrays



                         GA Statistics for process    0
                         ------------------------------

       create   destroy   get      put      acc     scatter   gather  read&inc
calls: 2322     2322     3.08e+04 3066     6221        0        0     1.09e+04 
number of processes/call 1.14e+00 1.13e+00 1.32e+00 0.00e+00 0.00e+00
bytes total:             4.07e+08 1.40e+07 1.58e+08 0.00e+00 0.00e+00 8.76e+04
bytes remote:            2.23e+08 9.84e+06 1.09e+08 0.00e+00 0.00e+00 0.00e+00
Max memory consumed for GA by this process: 33859512 bytes

MA_summarize_allocated_blocks: starting scan ...
MA_summarize_allocated_blocks: scan completed: 0 heap blocks, 0 stack blocks
MA usage statistics:

	allocation statistics:
					      heap	     stack
					      ----	     -----
	current number of blocks	         0	         0
	maximum number of blocks	        16	        32
	current total bytes		         0	         0
	maximum total bytes		     80136	  37014696
	maximum total K-bytes		        81	     37015
	maximum total M-bytes		         1	        38


                                     CITATION
                                     --------
                Please cite the following reference when publishing
                           results obtained with NWChem:

                 M. Valiev, E.J. Bylaska, N. Govind, K. Kowalski,
              T.P. Straatsma, H.J.J. van Dam, D. Wang, J. Nieplocha,
                        E. Apra, T.L. Windus, W.A. de Jong
                 "NWChem: a comprehensive and scalable open-source
                  solution for large scale molecular simulations"
                      Comput. Phys. Commun. 181, 1477 (2010)
                           doi:10.1016/j.cpc.2010.04.018

                                      AUTHORS
                                      -------
          E. Apra, E. J. Bylaska, W. A. de Jong, N. Govind, K. Kowalski,
       T. P. Straatsma, M. Valiev, H. J. J. van Dam, D. Wang, T. L. Windus,
        J. Hammond, J. Autschbach, K. Bhaskaran-Nair, J. Brabec, K. Lopata,
    S. A. Fischer, S. Krishnamoorthy, M. Jacquelin, W. Ma, M. Klemm, O. Villa,
      Y. Chen, V. Anisimov, F. Aquino, S. Hirata, M. T. Hackler, V. Konjkov,
            D. Mejia-Rodriguez, T. Risthaus, M. Malagoli, A. Marenich,
   A. Otero-de-la-Roza, J. Mullin, P. Nichols, R. Peverati, J. Pittner, Y. Zhao,
        P.-D. Fan, A. Fonari, M. J. Williamson, R. J. Harrison, J. R. Rehr,
      M. Dupuis, D. Silverstein, D. M. A. Smith, J. Nieplocha, V. Tipparaju,
    M. Krishnan, B. E. Van Kuiken, A. Vazquez-Mayagoitia, L. Jensen, M. Swart,
      Q. Wu, T. Van Voorhis, A. A. Auer, M. Nooijen, L. D. Crosby, E. Brown,
      G. Cisneros, G. I. Fann, H. Fruchtl, J. Garza, K. Hirao, R. A. Kendall,
      J. A. Nichols, K. Tsemekhman, K. Wolinski, J. Anchell, D. E. Bernholdt,
      P. Borowski, T. Clark, D. Clerc, H. Dachsel, M. J. O. Deegan, K. Dyall,
    D. Elwood, E. Glendening, M. Gutowski, A. C. Hess, J. Jaffe, B. G. Johnson,
     J. Ju, R. Kobayashi, R. Kutteh, Z. Lin, R. Littlefield, X. Long, B. Meng,
      T. Nakajima, S. Niu, L. Pollack, M. Rosing, K. Glaesemann, G. Sandrone,
      M. Stave, H. Taylor, G. Thomas, J. H. van Lenthe, A. T. Wong, Z. Zhang.

 Total times  cpu:       59.8s     wall:       60.0s
