 argument  1 = /home/list1234/source/nwchem-6.8.1-release/QA/tests/tce_cr_eom_t_ozone/tce_cr_eom_t_ozone.nw



============================== echo of input deck ==============================
start tce_cr_eom_t_ozone

echo

##memory 3500 mb

geometry units bohr
  symmetry c2v
O   0.0000000000        0.0000000000        0.0000000000
O   0.0000000000       -2.0473224350       -1.2595211660
O   0.0000000000        2.0473224350       -1.2595211660
end

BASIS spherical
O    S
     10662.285000000      0.00079900
      1599.709700000      0.00615300
       364.725260000      0.03115700
       103.651790000      0.11559600
        33.905805000      0.30155200
O    S
        12.287469000      0.44487000
         4.756805000      0.24317200
O    S
         1.004271000      1.00000000
O    S
         0.300686000      1.00000000
O    S
         0.090030000      1.00000000
O    P
        34.856463000      0.01564800
         7.843131000      0.09819700
         2.306249000      0.30776800
         0.723164000      0.49247000
O    P
         0.214882000      1.00000000
O    P
         0.063850000      1.00000000
O    D
         2.306200000      0.20270000
         0.723200000      0.57910000
O    D
         0.214900000      0.78545000
         0.063900000      0.53387000
END

scf
thresh 1.0e-10
tol2e 1.0e-10
singlet
rhf
end

tce
freeze atomic
creomsd(t)
tilesize 20
thresh 1.0d-6
nroots 2
end

task tce energy

================================================================================


                                         
                                         


              Northwest Computational Chemistry Package (NWChem) 6.8
              ------------------------------------------------------


                    Environmental Molecular Sciences Laboratory
                       Pacific Northwest National Laboratory
                                Richland, WA 99352

                              Copyright (c) 1994-2018
                       Pacific Northwest National Laboratory
                            Battelle Memorial Institute

             NWChem is an open-source computational chemistry package
                        distributed under the terms of the
                      Educational Community License (ECL) 2.0
             A copy of the license is included with this distribution
                              in the LICENSE.TXT file

                                  ACKNOWLEDGMENT
                                  --------------

            This software and its documentation were developed at the
            EMSL at Pacific Northwest National Laboratory, a multiprogram
            national laboratory, operated for the U.S. Department of Energy
            by Battelle under Contract Number DE-AC05-76RL01830. Support
            for this work was provided by the Department of Energy Office
            of Biological and Environmental Research, Office of Basic
            Energy Sciences, and the Office of Advanced Scientific Computing.


           Job information
           ---------------

    hostname        = list1234-B360M-H
    program         = /home/list1234/source/nwchem-6.8.1-release/bin/LINUX64/nwchem
    date            = Sun Jun 30 06:10:26 2019

    compiled        = Sun_Jun_30_05:21:11_2019
    source          = /home/list1234/source/nwchem-6.8.1-release
    nwchem branch   = Development
    nwchem revision = N/A
    ga revision     = 5.6.5
    use scalapack   = T
    input           = /home/list1234/source/nwchem-6.8.1-release/QA/tests/tce_cr_eom_t_ozone/tce_cr_eom_t_ozone.nw
    prefix          = tce_cr_eom_t_ozone.
    data base       = ./tce_cr_eom_t_ozone.db
    status          = startup
    nproc           =        4
    time left       =     -1s



           Memory information
           ------------------

    heap     =   86247168 doubles =    658.0 Mbytes
    stack    =   86247165 doubles =    658.0 Mbytes
    global   =  172494336 doubles =   1316.0 Mbytes (distinct from heap & stack)
    total    =  344988669 doubles =   2632.1 Mbytes
    verify   = yes
    hardfail = no 


           Directory information
           ---------------------

  0 permanent = .
  0 scratch   = .




                                NWChem Input Module
                                -------------------


 Turning off AUTOSYM since
 SYMMETRY directive was detected!


          ------
          auto-z
          ------
  no constraints, skipping    0.0000000000000000     
  no constraints, skipping    0.0000000000000000     


                             Geometry "geometry" -> ""
                             -------------------------

 Output coordinates in a.u. (scale by  1.000000000 to convert to a.u.)

  No.       Tag          Charge          X              Y              Z
 ---- ---------------- ---------- -------------- -------------- --------------
    1 O                    8.0000     0.00000000     0.00000000     0.83968078
    2 O                    8.0000     0.00000000    -2.04732244    -0.41984039
    3 O                    8.0000     0.00000000     2.04732244    -0.41984039

      Atomic Mass 
      ----------- 

      O                 15.994910


 Effective nuclear repulsion energy (a.u.)      68.8807220355

            Nuclear Dipole moment (a.u.) 
            ----------------------------
        X                 Y               Z
 ---------------- ---------------- ----------------
     0.0000000000     0.0000000000    -0.0000000000

      Symmetry information
      --------------------

 Group name             C2v       
 Group number             16
 Group order               4
 No. of unique centers     2

      Symmetry unique atoms

     1    2



                                Z-matrix (autoz)
                                -------- 

 Units are Angstrom for bonds and degrees for angles

      Type          Name      I     J     K     L     M      Value
      ----------- --------  ----- ----- ----- ----- ----- ----------
    1 Stretch                  1     2                       1.27200
    2 Stretch                  1     3                       1.27200
    3 Bend                     2     1     3               116.80000


            XYZ format geometry
            -------------------
     3
 geometry
 O                     0.00000000     0.00000000     0.44433996
 O                     0.00000000    -1.08339645    -0.22216998
 O                     0.00000000     1.08339645    -0.22216998

 ==============================================================================
                                internuclear distances
 ------------------------------------------------------------------------------
       center one      |      center two      | atomic units |       a.u.
 ------------------------------------------------------------------------------
    2 O                |   1 O                |     2.40373  |     2.40373
    3 O                |   1 O                |     2.40373  |     2.40373
 ------------------------------------------------------------------------------
                         number of included internuclear distances:          2
 ==============================================================================



 ==============================================================================
                                 internuclear angles
 ------------------------------------------------------------------------------
        center 1       |       center 2       |       center 3       |  degrees
 ------------------------------------------------------------------------------
    2 O                |   1 O                |   3 O                |   116.80
 ------------------------------------------------------------------------------
                            number of included internuclear angles:          1
 ==============================================================================



                      Basis "ao basis" -> "" (spherical)
                      -----
  O (Oxygen)
  ----------
            Exponent  Coefficients 
       -------------- ---------------------------------------------------------
  1 S  1.06622850E+04  0.000799
  1 S  1.59970970E+03  0.006153
  1 S  3.64725260E+02  0.031157
  1 S  1.03651790E+02  0.115596
  1 S  3.39058050E+01  0.301552

  2 S  1.22874690E+01  0.444870
  2 S  4.75680500E+00  0.243172

  3 S  1.00427100E+00  1.000000

  4 S  3.00686000E-01  1.000000

  5 S  9.00300000E-02  1.000000

  6 P  3.48564630E+01  0.015648
  6 P  7.84313100E+00  0.098197
  6 P  2.30624900E+00  0.307768
  6 P  7.23164000E-01  0.492470

  7 P  2.14882000E-01  1.000000

  8 P  6.38500000E-02  1.000000

  9 D  2.30620000E+00  0.202700
  9 D  7.23200000E-01  0.579100

 10 D  2.14900000E-01  0.785450
 10 D  6.39000000E-02  0.533870



 Summary of "ao basis" -> "" (spherical)
 ------------------------------------------------------------------------------
       Tag                 Description            Shells   Functions and Types
 ---------------- ------------------------------  ------  ---------------------
 O                       user specified             10       24   5s3p2d


                                 NWChem SCF Module
                                 -----------------



  ao basis        = "ao basis"
  functions       =    72
  atoms           =     3
  closed shells   =    12
  open shells     =     0
  charge          =   0.00
  wavefunction    = RHF 
  input vectors   = atomic
  output vectors  = ./tce_cr_eom_t_ozone.movecs
  use symmetry    = T
  symmetry adapt  = T


 Summary of "ao basis" -> "ao basis" (spherical)
 ------------------------------------------------------------------------------
       Tag                 Description            Shells   Functions and Types
 ---------------- ------------------------------  ------  ---------------------
 O                       user specified             10       24   5s3p2d


      Symmetry analysis of basis
      --------------------------

        a1         29
        a2          9
        b1         12
        b2         22


 Forming initial guess at       0.0s


      Superposition of Atomic Density Guess
      -------------------------------------

 Sum of atomic energies:        -224.33629831

      Non-variational initial energy
      ------------------------------

 Total energy =    -224.636803
 1-e energy   =    -446.716128
 2-e energy   =     153.198603
 HOMO         =      -0.325374
 LUMO         =      -0.166284


      Symmetry analysis of molecular orbitals - initial
      -------------------------------------------------

  Numbering of irreducible representations: 

     1 a1          2 a2          3 b1          4 b2      

  Orbital symmetries:

     1 a1          2 b2          3 a1          4 a1          5 b2      
     6 a1          7 b2          8 a1          9 b1         10 a2      
    11 b2         12 a1         13 b1         14 b2         15 a1      
    16 a1         17 b1         18 a1         19 b2         20 a2      
    21 b1         22 a1      


 Starting SCF solution at       0.1s



 ----------------------------------------------
         Quadratically convergent ROHF

 Convergence threshold     :          1.000E-10
 Maximum no. of iterations :           30
 Final Fock-matrix accuracy:          1.000E-10
 ----------------------------------------------


              iter       energy          gnorm     gmax       time
             ----- ------------------- --------- --------- --------
                 1     -224.1518589385  1.89D+00  6.42D-01      0.3
                 2     -224.3121598851  4.03D-01  8.70D-02      0.5
                 3     -224.3273672717  2.13D-02  6.58D-03      1.0
                 4     -224.3274304257  1.63D-04  5.47D-05      1.9
                 5     -224.3274304292  5.11D-09  1.12D-09      3.2
                 6     -224.3274304292  1.09D-11  3.27D-12      4.3


       Final RHF  results 
       ------------------ 

         Total SCF energy =   -224.327430429218
      One-electron energy =   -445.079396985466
      Two-electron energy =    151.871244520766
 Nuclear repulsion energy =     68.880722035483

        Time for solution =      4.1s



       Symmetry analysis of molecular orbitals - final
       -----------------------------------------------

  Numbering of irreducible representations: 

     1 a1          2 a2          3 b1          4 b2      

  Orbital symmetries:

     1 a1          2 b2          3 a1          4 a1          5 b2      
     6 a1          7 a1          8 b2          9 b1         10 b2      
    11 a1         12 a2         13 b1         14 b2         15 a1      
    16 a1         17 b1         18 a1         19 b2         20 a2      
    21 b1         22 a1      

             Final eigenvalues
             -----------------

              1      
    1  -20.9188
    2  -20.7104
    3  -20.7103
    4   -1.7576
    5   -1.4376
    6   -1.0960
    7   -0.8365
    8   -0.8045
    9   -0.7857
   10   -0.5660
   11   -0.5551
   12   -0.4901
   13   -0.0495
   14    0.1106
   15    0.1132
   16    0.1336
   17    0.1606
   18    0.1960
   19    0.2041
   20    0.2118
   21    0.2210
   22    0.2576

                       ROHF Final Molecular Orbital Analysis
                       -------------------------------------

 Vector    3  Occ=2.000000D+00  E=-2.071030D+01  Symmetry=a1
              MO Center= -5.9D-19,  1.4D-10, -2.2D-01, r^2= 1.2D+00
   Bfn.  Coefficient  Atom+Function         Bfn.  Coefficient  Atom+Function  
  ----- ------------  ---------------      ----- ------------  ---------------
    26      0.469350  2 O  s                 50      0.469350  3 O  s          
    25      0.296450  2 O  s                 49      0.296450  3 O  s          

 Vector    4  Occ=2.000000D+00  E=-1.757565D+00  Symmetry=a1
              MO Center=  8.0D-17, -4.3D-15,  1.5D-01, r^2= 6.8D-01
   Bfn.  Coefficient  Atom+Function         Bfn.  Coefficient  Atom+Function  
  ----- ------------  ---------------      ----- ------------  ---------------
     3      0.420706  1 O  s                  4      0.375674  1 O  s          
    27      0.208910  2 O  s                 51      0.208910  3 O  s          
     2     -0.199503  1 O  s                 28      0.163760  2 O  s          
    52      0.163760  3 O  s          

 Vector    5  Occ=2.000000D+00  E=-1.437565D+00  Symmetry=b2
              MO Center= -8.2D-31, -1.2D-15, -2.0D-02, r^2= 1.2D+00
   Bfn.  Coefficient  Atom+Function         Bfn.  Coefficient  Atom+Function  
  ----- ------------  ---------------      ----- ------------  ---------------
    28     -0.350477  2 O  s                 52      0.350477  3 O  s          
    27     -0.337378  2 O  s                 51      0.337378  3 O  s          
     7      0.318777  1 O  py                26      0.162850  2 O  s          
    50     -0.162850  3 O  s          

 Vector    6  Occ=2.000000D+00  E=-1.096031D+00  Symmetry=a1
              MO Center= -1.7D-16,  2.0D-14,  3.7D-02, r^2= 1.6D+00
   Bfn.  Coefficient  Atom+Function         Bfn.  Coefficient  Atom+Function  
  ----- ------------  ---------------      ----- ------------  ---------------
     4      0.434830  1 O  s                 28     -0.357885  2 O  s          
    52     -0.357885  3 O  s                  3      0.355395  1 O  s          
    27     -0.305484  2 O  s                 51     -0.305484  3 O  s          
     8      0.223794  1 O  pz                 2     -0.159086  1 O  s          
     5      0.151327  1 O  s          

 Vector    7  Occ=2.000000D+00  E=-8.364700D-01  Symmetry=a1
              MO Center=  2.2D-15,  7.3D-14,  2.0D-01, r^2= 1.4D+00
   Bfn.  Coefficient  Atom+Function         Bfn.  Coefficient  Atom+Function  
  ----- ------------  ---------------      ----- ------------  ---------------
     8      0.557273  1 O  pz                31     -0.302049  2 O  py         
    55      0.302049  3 O  py                11      0.232326  1 O  pz         
    28      0.179971  2 O  s                 52      0.179971  3 O  s          

 Vector    8  Occ=2.000000D+00  E=-8.044974D-01  Symmetry=b2
              MO Center= -6.4D-16, -3.0D-14, -1.6D-01, r^2= 1.6D+00
   Bfn.  Coefficient  Atom+Function         Bfn.  Coefficient  Atom+Function  
  ----- ------------  ---------------      ----- ------------  ---------------
     7      0.476058  1 O  py                28      0.278666  2 O  s          
    32     -0.279803  2 O  pz                52     -0.278666  3 O  s          
    56      0.279803  3 O  pz                31     -0.223425  2 O  py         
    55     -0.223425  3 O  py                10      0.186201  1 O  py         
    27      0.182248  2 O  s                 51     -0.182248  3 O  s          

 Vector    9  Occ=2.000000D+00  E=-7.856812D-01  Symmetry=b1
              MO Center= -1.7D-15,  2.3D-15,  1.7D-01, r^2= 1.0D+00
   Bfn.  Coefficient  Atom+Function         Bfn.  Coefficient  Atom+Function  
  ----- ------------  ---------------      ----- ------------  ---------------
     6      0.566944  1 O  px                30      0.302266  2 O  px         
    54      0.302266  3 O  px                 9      0.232434  1 O  px         

 Vector   10  Occ=2.000000D+00  E=-5.659631D-01  Symmetry=b2
              MO Center= -2.0D-32, -7.1D-15, -1.6D-01, r^2= 1.8D+00
   Bfn.  Coefficient  Atom+Function         Bfn.  Coefficient  Atom+Function  
  ----- ------------  ---------------      ----- ------------  ---------------
    32     -0.399854  2 O  pz                56      0.399854  3 O  pz         
    31      0.395269  2 O  py                55      0.395269  3 O  py         
    34      0.195270  2 O  py                58      0.195270  3 O  py         
    35     -0.185466  2 O  pz                59      0.185466  3 O  pz         

 Vector   11  Occ=2.000000D+00  E=-5.550580D-01  Symmetry=a1
              MO Center= -9.9D-17, -7.3D-14, -1.1D-01, r^2= 1.6D+00
   Bfn.  Coefficient  Atom+Function         Bfn.  Coefficient  Atom+Function  
  ----- ------------  ---------------      ----- ------------  ---------------
    32      0.494388  2 O  pz                56      0.494388  3 O  pz         
     8     -0.373877  1 O  pz                35      0.224913  2 O  pz         
    59      0.224913  3 O  pz                 4     -0.151929  1 O  s          

 Vector   12  Occ=2.000000D+00  E=-4.901442D-01  Symmetry=a2
              MO Center= -4.9D-16, -5.1D-15, -1.9D-01, r^2= 1.8D+00
   Bfn.  Coefficient  Atom+Function         Bfn.  Coefficient  Atom+Function  
  ----- ------------  ---------------      ----- ------------  ---------------
    30      0.522340  2 O  px                54     -0.522340  3 O  px         
    33      0.275875  2 O  px                57     -0.275875  3 O  px         

 Vector   13  Occ=0.000000D+00  E=-4.949680D-02  Symmetry=b1
              MO Center= -2.2D-17,  9.5D-16,  1.3D-03, r^2= 1.8D+00
   Bfn.  Coefficient  Atom+Function         Bfn.  Coefficient  Atom+Function  
  ----- ------------  ---------------      ----- ------------  ---------------
     6      0.546193  1 O  px                30     -0.416683  2 O  px         
    54     -0.416683  3 O  px                 9      0.380461  1 O  px         
    33     -0.290120  2 O  px                57     -0.290120  3 O  px         
    12      0.238809  1 O  px                36     -0.190344  2 O  px         
    60     -0.190344  3 O  px         

 Vector   14  Occ=0.000000D+00  E= 1.105798D-01  Symmetry=b2
              MO Center=  5.6D-17, -1.6D-14, -2.2D-01, r^2= 1.2D+01
   Bfn.  Coefficient  Atom+Function         Bfn.  Coefficient  Atom+Function  
  ----- ------------  ---------------      ----- ------------  ---------------
    29      4.377919  2 O  s                 53     -4.377919  3 O  s          
    13      2.270592  1 O  py                37      1.404025  2 O  py         
    61      1.404025  3 O  py                10      1.339377  1 O  py         
    38      0.736413  2 O  pz                62     -0.736413  3 O  pz         
    34      0.646061  2 O  py                58      0.646061  3 O  py         

 Vector   15  Occ=0.000000D+00  E= 1.132051D-01  Symmetry=a1
              MO Center= -1.3D-17, -4.1D-15,  1.0D+00, r^2= 9.6D+00
   Bfn.  Coefficient  Atom+Function         Bfn.  Coefficient  Atom+Function  
  ----- ------------  ---------------      ----- ------------  ---------------
     5      7.370703  1 O  s                 29     -3.684815  2 O  s          
    53     -3.684815  3 O  s                 14     -1.867082  1 O  pz         
    37     -1.170210  2 O  py                61      1.170210  3 O  py         
    38     -0.634202  2 O  pz                62     -0.634202  3 O  pz         
    11     -0.570728  1 O  pz                 4      0.548995  1 O  s          

 Vector   16  Occ=0.000000D+00  E= 1.335956D-01  Symmetry=a1
              MO Center=  1.7D-17,  1.2D-15, -3.4D-01, r^2= 9.7D+00
   Bfn.  Coefficient  Atom+Function         Bfn.  Coefficient  Atom+Function  
  ----- ------------  ---------------      ----- ------------  ---------------
     5      2.162064  1 O  s                 14      1.699532  1 O  pz         
    38     -1.123588  2 O  pz                62     -1.123588  3 O  pz         
    37     -0.864871  2 O  py                61      0.864871  3 O  py         
     4      0.413784  1 O  s                 45     -0.281415  2 O  d -1       
    69      0.281415  3 O  d -1              11     -0.208875  1 O  pz         

 Vector   17  Occ=0.000000D+00  E= 1.605990D-01  Symmetry=b1
              MO Center=  1.7D-16,  1.4D-17,  1.1D-01, r^2= 7.3D+00
   Bfn.  Coefficient  Atom+Function         Bfn.  Coefficient  Atom+Function  
  ----- ------------  ---------------      ----- ------------  ---------------
    36      0.459714  2 O  px                60      0.459714  3 O  px         
    12      0.452584  1 O  px                33     -0.254528  2 O  px         
    57     -0.254528  3 O  px         

 Vector   18  Occ=0.000000D+00  E= 1.960138D-01  Symmetry=a1
              MO Center= -4.5D-17,  3.9D-15, -6.4D-01, r^2= 8.4D+00
   Bfn.  Coefficient  Atom+Function         Bfn.  Coefficient  Atom+Function  
  ----- ------------  ---------------      ----- ------------  ---------------
    14      1.183008  1 O  pz                38     -0.841734  2 O  pz         
    62     -0.841734  3 O  pz                37      0.765987  2 O  py         
    61     -0.765987  3 O  py                 5     -0.512991  1 O  s          
    29      0.258291  2 O  s                 53      0.258291  3 O  s          
    35      0.206444  2 O  pz                59      0.206444  3 O  pz         

 Vector   19  Occ=0.000000D+00  E= 2.041025D-01  Symmetry=b2
              MO Center= -1.1D-17,  1.6D-15, -8.6D-02, r^2= 9.6D+00
   Bfn.  Coefficient  Atom+Function         Bfn.  Coefficient  Atom+Function  
  ----- ------------  ---------------      ----- ------------  ---------------
    38      1.267885  2 O  pz                62     -1.267885  3 O  pz         
    29     -0.681333  2 O  s                 53      0.681333  3 O  s          
    13     -0.603251  1 O  py                21      0.338857  1 O  d -1       
    35     -0.275053  2 O  pz                59      0.275053  3 O  pz         
    10     -0.260728  1 O  py                28     -0.201912  2 O  s          

 Vector   20  Occ=0.000000D+00  E= 2.118017D-01  Symmetry=a2
              MO Center=  1.2D-17, -1.5D-16, -2.1D-01, r^2= 9.6D+00
   Bfn.  Coefficient  Atom+Function         Bfn.  Coefficient  Atom+Function  
  ----- ------------  ---------------      ----- ------------  ---------------
    36      1.408684  2 O  px                60     -1.408684  3 O  px         
    33     -0.228647  2 O  px                57      0.228647  3 O  px         

 Vector   21  Occ=0.000000D+00  E= 2.210118D-01  Symmetry=b1
              MO Center= -6.7D-17,  5.3D-16,  1.9D-01, r^2= 9.0D+00
   Bfn.  Coefficient  Atom+Function         Bfn.  Coefficient  Atom+Function  
  ----- ------------  ---------------      ----- ------------  ---------------
    12      3.420895  1 O  px                36     -1.847455  2 O  px         
    60     -1.847455  3 O  px                 9     -0.163308  1 O  px         
    44     -0.155405  2 O  d -2              68      0.155405  3 O  d -2       

 Vector   22  Occ=0.000000D+00  E= 2.575905D-01  Symmetry=a1
              MO Center= -1.3D-16,  4.9D-17,  8.3D-02, r^2= 5.7D+00
   Bfn.  Coefficient  Atom+Function         Bfn.  Coefficient  Atom+Function  
  ----- ------------  ---------------      ----- ------------  ---------------
    14      1.537295  1 O  pz                 5      1.516794  1 O  s          
    29     -1.011869  2 O  s                 53     -1.011869  3 O  s          
    38     -0.940286  2 O  pz                62     -0.940286  3 O  pz         
    24     -0.409592  1 O  d  2               4      0.320509  1 O  s          
    28      0.264570  2 O  s                 52      0.264570  3 O  s          

 Vector   23  Occ=0.000000D+00  E= 2.637839D-01  Symmetry=b2
              MO Center= -4.7D-17, -1.8D-15,  5.7D-02, r^2= 1.1D+01
   Bfn.  Coefficient  Atom+Function         Bfn.  Coefficient  Atom+Function  
  ----- ------------  ---------------      ----- ------------  ---------------
    13      5.919665  1 O  py                29      3.092892  2 O  s          
    53     -3.092892  3 O  s                 37     -1.966049  2 O  py         
    61     -1.966049  3 O  py                38      1.884514  2 O  pz         
    62     -1.884514  3 O  pz                10      0.416380  1 O  py         
    21     -0.342076  1 O  d -1              34      0.312769  2 O  py         

 Vector   24  Occ=0.000000D+00  E= 3.058948D-01  Symmetry=a1
              MO Center=  2.8D-18,  1.8D-14,  1.3D-01, r^2= 4.4D+00
   Bfn.  Coefficient  Atom+Function         Bfn.  Coefficient  Atom+Function  
  ----- ------------  ---------------      ----- ------------  ---------------
     5      7.674805  1 O  s                 29     -3.635869  2 O  s          
    53     -3.635869  3 O  s                 14     -1.260482  1 O  pz         
    37     -1.193981  2 O  py                61      1.193981  3 O  py         
    24     -0.493427  1 O  d  2              31      0.375910  2 O  py         
    55     -0.375910  3 O  py                38     -0.365849  2 O  pz         

 Vector   25  Occ=0.000000D+00  E= 3.630387D-01  Symmetry=b2
              MO Center= -3.3D-18,  3.3D-14, -1.0D-01, r^2= 5.9D+00
   Bfn.  Coefficient  Atom+Function         Bfn.  Coefficient  Atom+Function  
  ----- ------------  ---------------      ----- ------------  ---------------
    29      7.261900  2 O  s                 53     -7.261900  3 O  s          
    13      3.395047  1 O  py                10      2.349032  1 O  py         
    34      1.323776  2 O  py                58      1.323776  3 O  py         
    21     -1.192436  1 O  d -1              38      1.188966  2 O  pz         
    62     -1.188966  3 O  pz                37      1.052827  2 O  py         

 Vector   26  Occ=0.000000D+00  E= 4.155264D-01  Symmetry=a1
              MO Center=  1.0D-16, -2.4D-15,  3.1D-03, r^2= 6.7D+00
   Bfn.  Coefficient  Atom+Function         Bfn.  Coefficient  Atom+Function  
  ----- ------------  ---------------      ----- ------------  ---------------
     5     10.823795  1 O  s                 29     -5.288013  2 O  s          
    53     -5.288013  3 O  s                 38     -1.220325  2 O  pz         
    62     -1.220325  3 O  pz                37     -1.019820  2 O  py         
    61      1.019820  3 O  py                11     -0.752379  1 O  pz         
    35     -0.597370  2 O  pz                59     -0.597370  3 O  pz         

 Vector   27  Occ=0.000000D+00  E= 4.453959D-01  Symmetry=b1
              MO Center=  6.9D-16,  1.9D-13, -2.8D-01, r^2= 5.3D+00
   Bfn.  Coefficient  Atom+Function         Bfn.  Coefficient  Atom+Function  
  ----- ------------  ---------------      ----- ------------  ---------------
    12      1.118133  1 O  px                36     -0.621185  2 O  px         
    60     -0.621185  3 O  px                44      0.523053  2 O  d -2       
    68     -0.523053  3 O  d -2               9     -0.374060  1 O  px         
    47      0.374724  2 O  d  1              71      0.374724  3 O  d  1       

 Vector   28  Occ=0.000000D+00  E= 4.725105D-01  Symmetry=b2
              MO Center=  7.4D-17,  1.5D-14, -6.5D-02, r^2= 5.8D+00
   Bfn.  Coefficient  Atom+Function         Bfn.  Coefficient  Atom+Function  
  ----- ------------  ---------------      ----- ------------  ---------------
    29      7.305257  2 O  s                 53     -7.305257  3 O  s          
    13      2.979421  1 O  py                10      2.573437  1 O  py         
    34      1.466481  2 O  py                58      1.466481  3 O  py         
    37      1.132442  2 O  py                61      1.132442  3 O  py         
    35      0.920064  2 O  pz                59     -0.920064  3 O  pz         

 Vector   29  Occ=0.000000D+00  E= 4.861400D-01  Symmetry=a1
              MO Center= -5.5D-16, -8.4D-15,  5.2D-01, r^2= 5.7D+00
   Bfn.  Coefficient  Atom+Function         Bfn.  Coefficient  Atom+Function  
  ----- ------------  ---------------      ----- ------------  ---------------
     5     12.535535  1 O  s                 29     -6.088021  2 O  s          
    53     -6.088021  3 O  s                 14     -2.643495  1 O  pz         
    11     -1.657305  1 O  pz                34     -1.393658  2 O  py         
    58      1.393658  3 O  py                28     -1.214352  2 O  s          
    52     -1.214352  3 O  s                  4      0.953038  1 O  s          

 Vector   30  Occ=0.000000D+00  E= 5.389884D-01  Symmetry=b2
              MO Center=  2.0D-17, -2.2D-14, -3.7D-02, r^2= 5.6D+00
   Bfn.  Coefficient  Atom+Function         Bfn.  Coefficient  Atom+Function  
  ----- ------------  ---------------      ----- ------------  ---------------
    29      4.816203  2 O  s                 53     -4.816203  3 O  s          
    10      3.666093  1 O  py                34      1.935243  2 O  py         
    58      1.935243  3 O  py                28      1.794393  2 O  s          
    52     -1.794393  3 O  s                 21     -1.385048  1 O  d -1       
    35      1.149086  2 O  pz                59     -1.149086  3 O  pz         


 center of mass
 --------------
 x =   0.00000000 y =   0.00000000 z =  -0.00000000

 moments of inertia (a.u.)
 ------------------
         151.002411350145           0.000000000000           0.000000000000
           0.000000000000          16.916148225582           0.000000000000
           0.000000000000           0.000000000000         134.086263124563

  Mulliken analysis of the total density
  --------------------------------------

    Atom       Charge   Shell Charges
 -----------   ------   -------------------------------------------------------
    1 O    8     7.71   0.76  1.22  0.94  0.95 -0.02  3.12  0.64 -0.01  0.11  0.01
    2 O    8     8.14   0.76  1.22  0.93  1.06  0.12  3.16  0.91 -0.01  0.04 -0.05
    3 O    8     8.14   0.76  1.22  0.93  1.06  0.12  3.16  0.91 -0.01  0.04 -0.05

       Multipole analysis of the density wrt the origin
       ------------------------------------------------

     L   x y z        total         open         nuclear
     -   - - -        -----         ----         -------
     0   0 0 0     -0.000000      0.000000     24.000000

     1   1 0 0      0.000000      0.000000      0.000000
     1   0 1 0      0.000000      0.000000      0.000000
     1   0 0 1      0.306894      0.000000     -0.000000

     2   2 0 0    -11.157779      0.000000      0.000000
     2   1 1 0     -0.000000      0.000000      0.000000
     2   1 0 1      0.000000      0.000000      0.000000
     2   0 2 0    -12.831221      0.000000     67.064466
     2   0 1 1      0.000000      0.000000      0.000000
     2   0 0 2    -11.756375      0.000000      8.460766

                   NWChem Extensible Many-Electron Theory Module
                   ---------------------------------------------

              ======================================================
                   This portion of the program was automatically
                  generated by a Tensor Contraction Engine (TCE).
                  The development of this portion of the program
                 and TCE was supported by US Department of Energy,
                Office of Science, Office of Basic Energy Science.
                      TCE is a product of Battelle and PNNL.
              Please cite: S.Hirata, J.Phys.Chem.A 107, 9887 (2003).
              ======================================================

            General Information
            -------------------
      Number of processors :     4
         Wavefunction type : Restricted Hartree-Fock
          No. of electrons :    24
           Alpha electrons :    12
            Beta electrons :    12
           No. of orbitals :   144
            Alpha orbitals :    72
             Beta orbitals :    72
        Alpha frozen cores :     3
         Beta frozen cores :     3
     Alpha frozen virtuals :     0
      Beta frozen virtuals :     0
         Spin multiplicity : singlet 
    Number of AO functions :    72
       Number of AO shells :    30
        Use of symmetry is : on 
      Symmetry adaption is : on 
         Schwarz screening : 0.10D-09

          Correlation Information
          -----------------------
          Calculation type : Coupled-cluster singles & doubles w/ perturbation           
   Perturbative correction : completely renormalized EOMCCSD(T)                          
            Max iterations :      100
        Residual threshold : 0.10D-05
     T(0) DIIS level shift : 0.00D+00
     L(0) DIIS level shift : 0.00D+00
     T(1) DIIS level shift : 0.00D+00
     L(1) DIIS level shift : 0.00D+00
     T(R) DIIS level shift : 0.00D+00
     T(I) DIIS level shift : 0.00D+00
   CC-T/L Amplitude update :  5-th order DIIS
     No. of excited states :     2
               Target root :     1
           Target symmetry : none
      Symmetry restriction : off
   Dipole & oscillator str : off
                I/O scheme : Global Array Library
        L-threshold :  0.10D-05
        EOM-threshold :  0.10D-05
 no EOMCCSD initial starts read in
 TCE RESTART OPTIONS
 READ_INT:   F
 WRITE_INT:  F
 READ_TA:    F
 WRITE_TA:   F
 READ_XA:    F
 WRITE_XA:   F
 READ_IN3:   F
 WRITE_IN3:  F
 SLICE:      F
 D4D5:       F

            Memory Information
            ------------------
          Available GA space size is     689972160 doubles
          Available MA space size is     172488988 doubles

 Maximum block size supplied by input
 Maximum block size        20 doubles

 tile_dim =     18

 Block   Spin    Irrep     Size     Offset   Alpha
 -------------------------------------------------
   1    alpha     a1     4 doubles       0       1
   2    alpha     a2     1 doubles       4       2
   3    alpha     b1     1 doubles       5       3
   4    alpha     b2     3 doubles       6       4
   5    beta      a1     4 doubles       9       1
   6    beta      a2     1 doubles      13       2
   7    beta      b1     1 doubles      14       3
   8    beta      b2     3 doubles      15       4
   9    alpha     a1    11 doubles      18       9
  10    alpha     a1    12 doubles      29      10
  11    alpha     a2     8 doubles      41      11
  12    alpha     b1    11 doubles      49      12
  13    alpha     b2    18 doubles      60      13
  14    beta      a1    11 doubles      78       9
  15    beta      a1    12 doubles      89      10
  16    beta      a2     8 doubles     101      11
  17    beta      b1    11 doubles     109      12
  18    beta      b2    18 doubles     120      13

 Global array virtual files algorithm will be used

 Parallel file system coherency ......... OK

 Fock matrix recomputed
 1-e file size   =             1395
 1-e file name   = ./tce_cr_eom_t_ozone.f1
 Cpu & wall time / sec            0.2            0.2

 tce_ao2e: fast2e=1
 half-transformed integrals in memory

 2-e (intermediate) file size =        53514432
 2-e (intermediate) file name = ./tce_cr_eom_t_ozone.v2i
 Cpu & wall time / sec            4.6            4.6

 tce_mo2e: fast2e=1
 2-e integrals stored in memory

 2-e file size   =          7970724
 2-e file name   = ./tce_cr_eom_t_ozone.v2
 Cpu & wall time / sec            1.8            1.9
 T1-number-of-tasks                    5

 t1 file size   =              165
 t1 file name   = ./tce_cr_eom_t_ozone.t1
 t1 file handle =       -999
 T2-number-of-boxes                  142

 t2 file size   =           112383
 t2 file name   = ./tce_cr_eom_t_ozone.t2
 t2 file handle =       -996

 CCSD iterations
 -----------------------------------------------------------------
 Iter          Residuum       Correlation     Cpu    Wall    V2*C2
 -----------------------------------------------------------------
    1   0.2609153779021  -0.6556358351873     0.1     0.2     0.0
    2   0.0854505682040  -0.5999210435949     0.2     0.2     0.0
    3   0.0330027501464  -0.6345458462149     0.1     0.2     0.0
    4   0.0223062042444  -0.6259238774819     0.1     0.2     0.0
    5   0.0094141963511  -0.6321663040556     0.2     0.2     0.0
 MICROCYCLE DIIS UPDATE:                    5                    5
    6   0.0039078352475  -0.6316276484058     0.1     0.2     0.0
    7   0.0024212944549  -0.6316687917787     0.1     0.2     0.0
    8   0.0011908164220  -0.6317758513296     0.2     0.2     0.0
    9   0.0009707199545  -0.6317901059364     0.1     0.2     0.0
   10   0.0005110668544  -0.6318688356794     0.2     0.2     0.0
 MICROCYCLE DIIS UPDATE:                   10                    5
   11   0.0000917265264  -0.6319515485190     0.1     0.2     0.0
   12   0.0000392671078  -0.6319383149888     0.1     0.2     0.0
   13   0.0000205175130  -0.6319474619977     0.2     0.2     0.0
   14   0.0000133498057  -0.6319449208052     0.2     0.2     0.0
   15   0.0000076515963  -0.6319468964100     0.1     0.2     0.0
 MICROCYCLE DIIS UPDATE:                   15                    5
   16   0.0000030803915  -0.6319467214979     0.1     0.2     0.0
   17   0.0000017058590  -0.6319468392103     0.1     0.2     0.0
   18   0.0000008124139  -0.6319468192818     0.1     0.2     0.0
 -----------------------------------------------------------------
 Iterations converged
 CCSD correlation energy / hartree =        -0.631946819281832
 CCSD total energy / hartree       =      -224.959377248499806

 Singles contributions

 Doubles contributions
    13b1  (alpha)    13b1  (beta ) ---    12a2  (alpha)    12a2  (beta )       -0.1912204622

 Ground-state symmetry is a1  

 =========================================
 Excited-state calculation ( a1  symmetry)
 =========================================
 Dim. of EOMCC iter. space      500

 x1 file size   =              165

 x2 file size   =           112383

 EOMCCSD SOLVER TYPE  1

 No. of initial right vectors    2

 EOM-CCSD right-hand side iterations
 --------------------------------------------------------------
      Residuum       Omega / hartree  Omega / eV    Cpu    Wall
 --------------------------------------------------------------

 Iteration   1 using    2 trial vectors
   0.7028805228247   0.5584033376607   15.19493
   0.7125332748210   0.5780408545430   15.72930     0.5     0.5

 Iteration   2 using    4 trial vectors
   0.1330171080217   0.3952553080358   10.75545
   0.1361114964703   0.4063259171778   11.05670     0.4     0.5

 Iteration   3 using    6 trial vectors
   0.1005535617463   0.3848559216158   10.47247
   0.0786634757612   0.3973312570021   10.81194     0.4     0.5

 Iteration   4 using    8 trial vectors
   0.1002542304048   0.3720670281264   10.12446
   0.0614093018474   0.3907869426038   10.63386     0.4     0.5

 Iteration   5 using   10 trial vectors
   0.1081405256481   0.3570092987537    9.71472
   0.0566865528305   0.3858310310985   10.49900     0.4     0.5

 Iteration   6 using   12 trial vectors
   0.0858158595633   0.3495003880243    9.51039
   0.0541096600609   0.3835097246646   10.43584     0.5     0.5

 Iteration   7 using   14 trial vectors
   0.0538721630922   0.3413700922183    9.28916
   0.0467091352240   0.3792079822994   10.31878     0.4     0.5

 Iteration   8 using   16 trial vectors
   0.0383425108232   0.3399359378814    9.25013
   0.0371615977087   0.3771931118658   10.26395     0.5     0.5

 Iteration   9 using   18 trial vectors
   0.0455898759992   0.3377922302174    9.19180
   0.0606205173368   0.3744941733408   10.19051     0.5     0.5

 Iteration  10 using   20 trial vectors
   0.0475834482579   0.3359533426021    9.14176
   0.0910843845852   0.3657324861901    9.95209     0.5     0.5

 Iteration  11 using   22 trial vectors
   0.0327090337554   0.3347653080264    9.10943
   0.0582316326663   0.3588363345411    9.76444     0.5     0.5

 Iteration  12 using   24 trial vectors
   0.0302184348461   0.3340503224728    9.08998
   0.0493060451118   0.3563244663322    9.69609     0.5     0.6

 Iteration  13 using   26 trial vectors
   0.0329017388128   0.3334795679563    9.07444
   0.0550446894149   0.3525312771944    9.59287     0.4     0.6

 Iteration  14 using   28 trial vectors
   0.0250092208413   0.3335344168902    9.07594
   0.0490658211628   0.3503148479901    9.53256     0.5     0.6

 Iteration  15 using   30 trial vectors
   0.0216766573825   0.3329377519636    9.05970
   0.0397188502239   0.3480724603489    9.47154     0.5     0.6

 Iteration  16 using   32 trial vectors
   0.0140447049274   0.3333625762480    9.07126
   0.0270291238899   0.3474641894429    9.45499     0.5     0.6

 Iteration  17 using   34 trial vectors
   0.0073322969606   0.3331185212441    9.06462
   0.0141845719182   0.3469283809572    9.44041     0.5     0.6

 Iteration  18 using   36 trial vectors
   0.0036019501388   0.3332113813486    9.06715
   0.0072283843905   0.3469896564399    9.44207     0.5     0.6

 Iteration  19 using   38 trial vectors
   0.0019255697220   0.3331710538898    9.06605
   0.0039993438160   0.3469760765517    9.44170     0.5     0.6

 Iteration  20 using   40 trial vectors
   0.0010005155989   0.3331848823739    9.06643
   0.0022780984393   0.3470128527897    9.44270     0.5     0.6

 Iteration  21 using   42 trial vectors
   0.0004967255171   0.3331869247761    9.06648
   0.0011953569250   0.3470139103859    9.44273     0.6     0.6

 Iteration  22 using   44 trial vectors
   0.0002306534209   0.3331861554069    9.06646
   0.0005717617682   0.3470085533864    9.44259     0.5     0.6

 Iteration  23 using   46 trial vectors
   0.0001107230011   0.3331867562266    9.06648
   0.0002769575138   0.3470066741758    9.44254     0.6     0.6

 Iteration  24 using   48 trial vectors
   0.0000608026140   0.3331873974408    9.06649
   0.0001490086349   0.3470050724526    9.44249     0.6     0.6

 Iteration  25 using   50 trial vectors
   0.0000335203683   0.3331868341483    9.06648
   0.0000828710561   0.3470051231617    9.44249     0.6     0.7

 Iteration  26 using   52 trial vectors
   0.0000186034119   0.3331868279407    9.06648
   0.0000471192434   0.3470055694432    9.44251     0.5     0.7

 Iteration  27 using   54 trial vectors
   0.0000085990435   0.3331866555973    9.06647
   0.0000225782264   0.3470055957106    9.44251     0.6     0.7

 Iteration  28 using   56 trial vectors
   0.0000035022474   0.3331866271211    9.06647
   0.0000095107357   0.3470056415060    9.44251     0.6     0.7

 Iteration  29 using   58 trial vectors
   0.0000014492391   0.3331866277633    9.06647
   0.0000041190970   0.3470056090273    9.44251     0.6     0.7

 Iteration  30 using   60 trial vectors
   0.0000005756395   0.3331866255048    9.06647
   0.0000016848492   0.3470056045726    9.44251     0.5     0.6

 Iteration  31 using   61 trial vectors
   0.0000002338791   0.3331866267154    9.06647
   0.0000006690825   0.3470056005431    9.44251     0.3     0.4
 --------------------------------------------------------------
 Iterations converged
 ------------------

 Excited state root  1
 Excitation energy / hartree =        0.333186626715433
                   / eV      =        9.066473274776497
 largest EOMCCSD amplitudes: R1 and R2

 Singles contributions
    15a1  (alpha) ---    11a1  (alpha)        0.2765094250
    16a1  (alpha) ---    11a1  (alpha)        0.1770936044
    18a1  (alpha) ---    11a1  (alpha)       -0.1949493824
    24a1  (alpha) ---    11a1  (alpha)       -0.4766062418
    29a1  (alpha) ---    11a1  (alpha)        0.1454742419
    13b1  (alpha) ---     9b1  (alpha)       -0.4744581220

 Doubles contributions
    13b1  (alpha)    13b1  (beta ) ---    12a2  (alpha)    12a2  (beta )        0.4760405090
    13b1  (alpha)    13b1  (beta ) ---     9b1  (alpha)     9b1  (beta )       -0.1200163428
 ------------------

 Excited state root  2
 Excitation energy / hartree =        0.347005600543061
                   / eV      =        9.442506845295618
 largest EOMCCSD amplitudes: R1 and R2

 Singles contributions
    15a1  (alpha) ---    11a1  (alpha)       -0.2866800877
    24a1  (alpha) ---     7a1  (alpha)        0.1029980747
    24a1  (alpha) ---    11a1  (alpha)        0.2319729442
    13b1  (alpha) ---     9b1  (alpha)       -0.4873902551

 Doubles contributions
    13b1  (alpha)    13b1  (beta ) ---    11a1  (alpha)    11a1  (beta )       -0.3111807032
    13b1  (alpha)    13b1  (beta ) ---    12a2  (alpha)    12a2  (beta )        0.5634153782
    13b1  (alpha)    13b1  (beta ) ---     9b1  (alpha)     9b1  (beta )       -0.1310144776
    13b1  (alpha)    13b1  (beta ) ---    10b2  (alpha)    10b2  (beta )        0.1962743885
======= CR-EOMCCSD(T) calculation ======
corresponding R0 value =     0.205152
          
CR-EOMCCSD(T) Intermediates cpu wall time             0.8            0.9
 cr_N i1_1 nr of boxes                   210
 cr_N i1_2 nr of boxes                   325
 creom_N i2_1 nr of boxes                   210
 creom_N i2_2 nr of boxes                   325
 creom_N i2_3 nr of boxes                   210
 creom_N i2_4 nr of boxes                   325
          
          
CR-EOMCCSD(T) triples loop cpu wall             4.0            4.0
          
 CR-EOMCCSD(T)  total energy / hartree       =      -224.649239446769286
 CR-EOMCCSD(T)  excitation energy (eV)       =      8.43928

======= CR-EOMCCSD(T) calculation ======
corresponding R0 value =     0.117608
          
CR-EOMCCSD(T) Intermediates cpu wall time             0.8            0.9
 cr_N i1_1 nr of boxes                   210
 cr_N i1_2 nr of boxes                   325
 creom_N i2_1 nr of boxes                   210
 creom_N i2_2 nr of boxes                   325
 creom_N i2_3 nr of boxes                   210
 creom_N i2_4 nr of boxes                   325
          
          
CR-EOMCCSD(T) triples loop cpu wall             3.8            3.9
          
 CR-EOMCCSD(T)  total energy / hartree       =      -224.663196380004251
 CR-EOMCCSD(T)  excitation energy (eV)       =      8.05949


 =========================================
 Excited-state calculation ( a2  symmetry)
 =========================================
 Dim. of EOMCC iter. space      500

 x1 file size   =              106

 x2 file size   =            95191

 EOMCCSD SOLVER TYPE  1

 No. of initial right vectors    2

 EOM-CCSD right-hand side iterations
 --------------------------------------------------------------
      Residuum       Omega / hartree  Omega / eV    Cpu    Wall
 --------------------------------------------------------------

 Iteration   1 using    2 trial vectors
   0.8958643825097   0.2925677835441    7.96118
   0.6183675692357   0.5539082956327   15.07262     0.5     0.5

 Iteration   2 using    4 trial vectors
   0.1738558552778   0.0944693999663    2.57064
   0.1316551994458   0.4203132954667   11.43731     0.4     0.4

 Iteration   3 using    6 trial vectors
   0.0722045332110   0.0864405931760    2.35217
   0.1054648264225   0.4103249791445   11.16552     0.4     0.5

 Iteration   4 using    8 trial vectors
   0.0273857040635   0.0851702022568    2.31760
   0.1158866611503   0.3982057017064   10.83573     0.4     0.5

 Iteration   5 using   10 trial vectors
   0.0131625362802   0.0845653684495    2.30114
   0.1222325513105   0.3719522747634   10.12134     0.4     0.5

 Iteration   6 using   12 trial vectors
   0.0061697291663   0.0844720157121    2.29860
   0.0789835678389   0.3658901365524    9.95638     0.4     0.5

 Iteration   7 using   14 trial vectors
   0.0021325930330   0.0844383383341    2.29769
   0.0518228646631   0.3564830832850    9.70040     0.4     0.5

 Iteration   8 using   16 trial vectors
   0.0008283102069   0.0844351208577    2.29760
   0.0517662400629   0.3564089403177    9.69838     0.4     0.5

 Iteration   9 using   18 trial vectors
   0.0002587582297   0.0844306071893    2.29747
   0.0597702149471   0.3490369538843    9.49778     0.4     0.5

 Iteration  10 using   20 trial vectors
   0.0000816055804   0.0844306275253    2.29748
   0.0392806919789   0.3453843649667    9.39839     0.4     0.5

 Iteration  11 using   22 trial vectors
   0.0000262565287   0.0844308487645    2.29748
   0.0253413990248   0.3430138636060    9.33389     0.4     0.5

 Iteration  12 using   24 trial vectors
   0.0000086691335   0.0844308634024    2.29748
   0.0158757161094   0.3418025180339    9.30092     0.4     0.5

 Iteration  13 using   26 trial vectors
   0.0000030011130   0.0844308350250    2.29748
   0.0115536969629   0.3412764354464    9.28661     0.4     0.5

 Iteration  14 using   28 trial vectors
   0.0000010684337   0.0844308246514    2.29748
   0.0081348626426   0.3408666346851    9.27546     0.5     0.5

 Iteration  15 using   30 trial vectors
   0.0000003451599   0.0844308210125    2.29748
   0.0043716239724   0.3408271387793    9.27438     0.5     0.5

 Iteration  16 using   31 trial vectors
   0.0000003448680   0.0844308210240    2.29748
   0.0029448803278   0.3407730398279    9.27291     0.3     0.3

 Iteration  17 using   32 trial vectors
   0.0000003454826   0.0844308209713    2.29748
   0.0021051332086   0.3407852986364    9.27324     0.3     0.3

 Iteration  18 using   33 trial vectors
   0.0000003448500   0.0844308208749    2.29748
   0.0010629628762   0.3407662495407    9.27273     0.3     0.3

 Iteration  19 using   34 trial vectors
   0.0000003437907   0.0844308207658    2.29748
   0.0005383705112   0.3407752938176    9.27297     0.3     0.3

 Iteration  20 using   35 trial vectors
   0.0000003438069   0.0844308207623    2.29748
   0.0003367955957   0.3407719480916    9.27288     0.3     0.3

 Iteration  21 using   36 trial vectors
   0.0000003436525   0.0844308208407    2.29748
   0.0002318984812   0.3407779610294    9.27304     0.3     0.3

 Iteration  22 using   37 trial vectors
   0.0000003431723   0.0844308208190    2.29748
   0.0001560886523   0.3407756439359    9.27298     0.3     0.3

 Iteration  23 using   38 trial vectors
   0.0000003422589   0.0844308208244    2.29748
   0.0000846310471   0.3407776704388    9.27304     0.3     0.3

 Iteration  24 using   39 trial vectors
   0.0000003417355   0.0844308208248    2.29748
   0.0000375280519   0.3407770555312    9.27302     0.3     0.3

 Iteration  25 using   40 trial vectors
   0.0000003416372   0.0844308208252    2.29748
   0.0000182465072   0.3407773878163    9.27303     0.3     0.3

 Iteration  26 using   41 trial vectors
   0.0000003411549   0.0844308208106    2.29748
   0.0000110161681   0.3407773909764    9.27303     0.3     0.3

 Iteration  27 using   42 trial vectors
   0.0000003410833   0.0844308208190    2.29748
   0.0000054792749   0.3407774228256    9.27303     0.3     0.3

 Iteration  28 using   43 trial vectors
   0.0000003412634   0.0844308208269    2.29748
   0.0000025899303   0.3407774397078    9.27303     0.3     0.3

 Iteration  29 using   44 trial vectors
   0.0000003412889   0.0844308208381    2.29748
   0.0000013712749   0.3407774417124    9.27303     0.3     0.3

 Iteration  30 using   45 trial vectors
   0.0000003403370   0.0844308207843    2.29748
   0.0000007261802   0.3407774452230    9.27303     0.3     0.3
 --------------------------------------------------------------
 Iterations converged
 ------------------

 Excited state root  1
 Excitation energy / hartree =        0.084430820784324
                   / eV      =        2.297480507410361
 largest EOMCCSD amplitudes: R1 and R2

 Singles contributions
    13b1  (alpha) ---    10b2  (alpha)       -0.8928255143

 Doubles contributions
    13b1  (alpha)    13b1  (beta ) ---    11a1  (alpha)    12a2  (beta )       -0.1794227034
    13b1  (alpha)    13b1  (beta ) ---    12a2  (alpha)    11a1  (beta )       -0.1794227034
 ------------------

 Excited state root  2
 Excitation energy / hartree =        0.340777445223028
                   / eV      =        9.273030043909859
 largest EOMCCSD amplitudes: R1 and R2

 Singles contributions
    13b1  (alpha) ---     8b2  (alpha)        0.7482083765
    13b1  (alpha) ---    10b2  (alpha)       -0.1238703343

 Doubles contributions
    13b1  (alpha)    13b1  (beta ) ---     7a1  (alpha)    12a2  (beta )       -0.1611309420
    13b1  (alpha)    13b1  (beta ) ---    11a1  (alpha)    12a2  (beta )        0.3499218527
    13b1  (alpha)    13b1  (beta ) ---    12a2  (alpha)     7a1  (beta )       -0.1611309420
    13b1  (alpha)    13b1  (beta ) ---    12a2  (alpha)    11a1  (beta )        0.3499218527
======= CR-EOMCCSD(T) calculation ======
corresponding R0 value =     0.000000
          
CR-EOMCCSD(T) Intermediates cpu wall time             0.6            0.6
 creom_N i2_1 nr of boxes                   210
 creom_N i2_2 nr of boxes                   325
 creom_N i2_3 nr of boxes                   210
 creom_N i2_4 nr of boxes                   325
          
          
CR-EOMCCSD(T) triples loop cpu wall             2.2            2.3
          
 CR-EOMCCSD(T)  total energy / hartree       =      -224.890204610676619
 CR-EOMCCSD(T)  excitation energy (eV)       =      1.88228

======= CR-EOMCCSD(T) calculation ======
corresponding R0 value =     0.000000
          
CR-EOMCCSD(T) Intermediates cpu wall time             0.6            0.6
 creom_N i2_1 nr of boxes                   210
 creom_N i2_2 nr of boxes                   325
 creom_N i2_3 nr of boxes                   210
 creom_N i2_4 nr of boxes                   325
          
          
CR-EOMCCSD(T) triples loop cpu wall             2.3            2.3
          
 CR-EOMCCSD(T)  total energy / hartree       =      -224.656995026621900
 CR-EOMCCSD(T)  excitation energy (eV)       =      8.22824


 =========================================
 Excited-state calculation ( b1  symmetry)
 =========================================
 Dim. of EOMCC iter. space      500

 x1 file size   =              109

 x2 file size   =            95431

 EOMCCSD SOLVER TYPE  1

 No. of initial right vectors    2

 EOM-CCSD right-hand side iterations
 --------------------------------------------------------------
      Residuum       Omega / hartree  Omega / eV    Cpu    Wall
 --------------------------------------------------------------

 Iteration   1 using    2 trial vectors
   0.8833188127548   0.2783035520108    7.57303
   0.6148721955488   0.5530202996567   15.04845     0.5     0.5

 Iteration   2 using    4 trial vectors
   0.1675688185821   0.0956011366934    2.60144
   0.1254271189095   0.4257212788169   11.58447     0.4     0.4

 Iteration   3 using    6 trial vectors
   0.0695504456477   0.0887998718080    2.41637
   0.0727442970102   0.4194049760178   11.41259     0.4     0.5

 Iteration   4 using    8 trial vectors
   0.0262896343680   0.0875226969772    2.38161
   0.0529143882547   0.4156901364791   11.31151     0.4     0.5

 Iteration   5 using   10 trial vectors
   0.0140281908629   0.0868505854279    2.36333
   0.0652660042677   0.4096758385150   11.14785     0.4     0.5

 Iteration   6 using   12 trial vectors
   0.0057904837464   0.0867700780333    2.36113
   0.1352882567134   0.4027565732805   10.95957     0.4     0.5

 Iteration   7 using   14 trial vectors
   0.0022569916538   0.0867353012693    2.36019
   0.1342303792868   0.3593324693676    9.77794     0.4     0.5

 Iteration   8 using   16 trial vectors
   0.0009278381281   0.0867362324212    2.36021
   0.0909371703288   0.3425801529132    9.32208     0.4     0.5

 Iteration   9 using   18 trial vectors
   0.0003139612897   0.0867350490325    2.36018
   0.0536812072851   0.3353741255232    9.12600     0.4     0.5

 Iteration  10 using   20 trial vectors
   0.0001153155491   0.0867356492601    2.36020
   0.0296050691687   0.3333504771294    9.07093     0.5     0.5

 Iteration  11 using   22 trial vectors
   0.0000460859697   0.0867362913402    2.36022
   0.0202138288397   0.3324846911632    9.04737     0.5     0.5

 Iteration  12 using   24 trial vectors
   0.0000157717733   0.0867363428128    2.36022
   0.0132229492976   0.3320912514788    9.03667     0.4     0.5

 Iteration  13 using   26 trial vectors
   0.0000053597048   0.0867362976207    2.36022
   0.0084972442757   0.3318245843862    9.02941     0.5     0.5

 Iteration  14 using   28 trial vectors
   0.0000018993262   0.0867363000499    2.36022
   0.0042980465492   0.3316703552126    9.02521     0.5     0.5

 Iteration  15 using   30 trial vectors
   0.0000006060004   0.0867362969561    2.36022
   0.0017698288019   0.3316291047076    9.02409     0.5     0.5

 Iteration  16 using   31 trial vectors
   0.0000005749747   0.0867362969132    2.36022
   0.0007644571369   0.3316130410687    9.02365     0.3     0.3

 Iteration  17 using   32 trial vectors
   0.0000005747878   0.0867362970405    2.36022
   0.0003656621258   0.3316183025426    9.02380     0.3     0.3

 Iteration  18 using   33 trial vectors
   0.0000005732790   0.0867362971026    2.36022
   0.0001810950478   0.3316161577867    9.02374     0.3     0.3

 Iteration  19 using   34 trial vectors
   0.0000005706156   0.0867362969373    2.36022
   0.0001001469425   0.3316174772276    9.02377     0.3     0.3

 Iteration  20 using   35 trial vectors
   0.0000005706773   0.0867362969295    2.36022
   0.0000517004789   0.3316159941815    9.02373     0.3     0.3

 Iteration  21 using   36 trial vectors
   0.0000005706740   0.0867362969162    2.36022
   0.0000236011918   0.3316162913810    9.02374     0.3     0.3

 Iteration  22 using   37 trial vectors
   0.0000005707545   0.0867362969120    2.36022
   0.0000108890513   0.3316161019285    9.02374     0.3     0.3

 Iteration  23 using   38 trial vectors
   0.0000005711518   0.0867362970248    2.36022
   0.0000054514758   0.3316162015665    9.02374     0.3     0.3

 Iteration  24 using   39 trial vectors
   0.0000005724908   0.0867362970807    2.36022
   0.0000026364828   0.3316161693149    9.02374     0.3     0.3

 Iteration  25 using   40 trial vectors
   0.0000005644089   0.0867362969859    2.36022
   0.0000010935952   0.3316161930678    9.02374     0.3     0.3

 Iteration  26 using   41 trial vectors
   0.0000005646694   0.0867362969601    2.36022
   0.0000004730969   0.3316161899361    9.02374     0.3     0.3
 --------------------------------------------------------------
 Iterations converged
 ------------------

 Excited state root  1
 Excitation energy / hartree =        0.086736296960075
                   / eV      =        2.360215732827831
 largest EOMCCSD amplitudes: R1 and R2

 Singles contributions
    13b1  (alpha) ---    11a1  (alpha)        0.9030595454

 Doubles contributions
    13b1  (alpha)    13b1  (beta ) ---    12a2  (alpha)    10b2  (beta )        0.1733334866
    13b1  (alpha)    13b1  (beta ) ---    10b2  (alpha)    12a2  (beta )        0.1733334866
 ------------------

 Excited state root  2
 Excitation energy / hartree =        0.331616189936056
                   / eV      =        9.023739497522845
 largest EOMCCSD amplitudes: R1 and R2

 Singles contributions
    13b1  (alpha) ---     7a1  (alpha)       -0.8376864454
    13b1  (alpha) ---    11a1  (alpha)        0.1095337708

 Doubles contributions
    13b1  (alpha)    13b1  (beta ) ---    12a2  (alpha)     8b2  (beta )        0.1133399039
    13b1  (alpha)    13b1  (beta ) ---    12a2  (alpha)    10b2  (beta )       -0.2647991448
    13b1  (alpha)    13b1  (beta ) ---     8b2  (alpha)    12a2  (beta )        0.1133399039
    13b1  (alpha)    13b1  (beta ) ---    10b2  (alpha)    12a2  (beta )       -0.2647991448
======= CR-EOMCCSD(T) calculation ======
corresponding R0 value =     0.000000
          
CR-EOMCCSD(T) Intermediates cpu wall time             0.6            0.6
 creom_N i2_1 nr of boxes                   210
 creom_N i2_2 nr of boxes                   325
 creom_N i2_3 nr of boxes                   210
 creom_N i2_4 nr of boxes                   325
          
          
CR-EOMCCSD(T) triples loop cpu wall             2.3            2.3
          
 CR-EOMCCSD(T)  total energy / hartree       =      -224.888619704415078
 CR-EOMCCSD(T)  excitation energy (eV)       =      1.92541

======= CR-EOMCCSD(T) calculation ======
corresponding R0 value =     0.000000
          
CR-EOMCCSD(T) Intermediates cpu wall time             0.6            0.6
 creom_N i2_1 nr of boxes                   210
 creom_N i2_2 nr of boxes                   325
 creom_N i2_3 nr of boxes                   210
 creom_N i2_4 nr of boxes                   325
          
          
CR-EOMCCSD(T) triples loop cpu wall             2.3            2.3
          
 CR-EOMCCSD(T)  total energy / hartree       =      -224.655661262953117
 CR-EOMCCSD(T)  excitation energy (eV)       =      8.26454


 =========================================
 Excited-state calculation ( b2  symmetry)
 =========================================
 Dim. of EOMCC iter. space      500

 x1 file size   =              160

 x2 file size   =           106693

 EOMCCSD SOLVER TYPE  1

 No. of initial right vectors    2

 EOM-CCSD right-hand side iterations
 --------------------------------------------------------------
      Residuum       Omega / hartree  Omega / eV    Cpu    Wall
 --------------------------------------------------------------

 Iteration   1 using    2 trial vectors
   0.8265940620343   0.4589560047785   12.48883
   0.6497367546575   0.5842082663129   15.89712     0.5     0.5

 Iteration   2 using    4 trial vectors
   0.2807102779069   0.2213209061097    6.02245
   0.1465979183206   0.4439448941148   12.08036     0.4     0.5

 Iteration   3 using    6 trial vectors
   0.1178348620083   0.2034695751153    5.53669
   0.0720506647460   0.4378149971133   11.91356     0.4     0.5

 Iteration   4 using    8 trial vectors
   0.0593766291507   0.1991793471578    5.41995
   0.0550614576607   0.4357312974561   11.85686     0.4     0.5

 Iteration   5 using   10 trial vectors
   0.0228999328666   0.1986538613213    5.40565
   0.0811114949951   0.4307175728410   11.72043     0.4     0.5

 Iteration   6 using   12 trial vectors
   0.0129212879310   0.1981850121580    5.39289
   0.1322186558119   0.4185536793922   11.38943     0.4     0.5

 Iteration   7 using   14 trial vectors
   0.0059182358235   0.1982203363465    5.39385
   0.1379205096028   0.3925074317067   10.68068     0.4     0.5

 Iteration   8 using   16 trial vectors
   0.0032845188658   0.1981691635864    5.39246
   0.1028969068737   0.3795963388744   10.32935     0.5     0.5

 Iteration   9 using   18 trial vectors
   0.0017794867248   0.1981620912356    5.39227
   0.0934118721335   0.3684629441193   10.02639     0.5     0.5

 Iteration  10 using   20 trial vectors
   0.0009504759600   0.1981632264857    5.39230
   0.0951935608139   0.3580003049317    9.74169     0.5     0.5

 Iteration  11 using   22 trial vectors
   0.0003790955715   0.1981662529670    5.39238
   0.0587663120410   0.3501211084766    9.52728     0.5     0.5

 Iteration  12 using   24 trial vectors
   0.0001650995976   0.1981687349936    5.39245
   0.0405347284086   0.3475809840843    9.45816     0.5     0.5

 Iteration  13 using   26 trial vectors
   0.0000698568488   0.1981684080831    5.39244
   0.0289110626714   0.3467382280653    9.43523     0.5     0.5

 Iteration  14 using   28 trial vectors
   0.0000286283846   0.1981677554552    5.39242
   0.0184776377305   0.3459304532033    9.41325     0.5     0.6

 Iteration  15 using   30 trial vectors
   0.0000131497811   0.1981678155961    5.39242
   0.0119542905031   0.3456744026294    9.40628     0.5     0.6

 Iteration  16 using   32 trial vectors
   0.0000056866041   0.1981678055486    5.39242
   0.0074735841356   0.3455934045056    9.40408     0.5     0.6

 Iteration  17 using   34 trial vectors
   0.0000028823412   0.1981678275839    5.39242
   0.0054408717268   0.3455977344290    9.40420     0.5     0.6

 Iteration  18 using   36 trial vectors
   0.0000014735031   0.1981678303281    5.39242
   0.0053576021885   0.3455570251223    9.40309     0.5     0.6

 Iteration  19 using   38 trial vectors
   0.0000005913642   0.1981678267627    5.39242
   0.0045008561945   0.3454286052100    9.39959     0.5     0.6

 Iteration  20 using   39 trial vectors
   0.0000002988679   0.1981678269760    5.39242
   0.0024644465331   0.3454163630920    9.39926     0.3     0.3

 Iteration  21 using   40 trial vectors
   0.0000002489273   0.1981678265650    5.39242
   0.0014046037898   0.3454489687180    9.40015     0.3     0.4

 Iteration  22 using   41 trial vectors
   0.0000002442292   0.1981678265067    5.39242
   0.0007834389002   0.3454403161339    9.39991     0.3     0.4

 Iteration  23 using   42 trial vectors
   0.0000002446149   0.1981678264591    5.39242
   0.0004659949075   0.3454458976228    9.40007     0.3     0.4

 Iteration  24 using   43 trial vectors
   0.0000002452478   0.1981678264910    5.39242
   0.0002522863145   0.3454424863688    9.39997     0.3     0.4

 Iteration  25 using   44 trial vectors
   0.0000002453198   0.1981678264918    5.39242
   0.0001272644978   0.3454429394829    9.39998     0.3     0.4

 Iteration  26 using   45 trial vectors
   0.0000002431776   0.1981678264664    5.39242
   0.0000588120565   0.3454421715427    9.39996     0.3     0.4

 Iteration  27 using   46 trial vectors
   0.0000002432442   0.1981678264364    5.39242
   0.0000254433009   0.3454424365023    9.39997     0.3     0.4

 Iteration  28 using   47 trial vectors
   0.0000002428996   0.1981678263417    5.39242
   0.0000116170016   0.3454423285387    9.39997     0.3     0.4

 Iteration  29 using   48 trial vectors
   0.0000002430023   0.1981678263868    5.39242
   0.0000054841514   0.3454423363102    9.39997     0.3     0.4

 Iteration  30 using   49 trial vectors
   0.0000002430077   0.1981678263849    5.39242
   0.0000025609368   0.3454423519021    9.39997     0.3     0.4

 Iteration  31 using   50 trial vectors
   0.0000002439553   0.1981678263798    5.39242
   0.0000012812302   0.3454423605465    9.39997     0.3     0.4

 Iteration  32 using   51 trial vectors
   0.0000002444529   0.1981678264504    5.39242
   0.0000007198078   0.3454423683704    9.39997     0.3     0.4
 --------------------------------------------------------------
 Iterations converged
 ------------------

 Excited state root  1
 Excitation energy / hartree =        0.198167826450358
                   / eV      =        5.392423219816741
 largest EOMCCSD amplitudes: R1 and R2

 Singles contributions
    24a1  (alpha) ---    10b2  (alpha)       -0.1762424781
    13b1  (alpha) ---    12a2  (alpha)       -0.8099019406
    25b2  (alpha) ---    11a1  (alpha)        0.1381387259

 Doubles contributions
    13b1  (alpha)    13b1  (beta ) ---    12a2  (alpha)     9b1  (beta )        0.2804617470
    13b1  (alpha)    13b1  (beta ) ---     9b1  (alpha)    12a2  (beta )        0.2804617470
 ------------------

 Excited state root  2
 Excitation energy / hartree =        0.345442368370379
                   / eV      =        9.399969115448483
 largest EOMCCSD amplitudes: R1 and R2

 Singles contributions
    15a1  (alpha) ---    10b2  (alpha)       -0.4032123369
    16a1  (alpha) ---    10b2  (alpha)       -0.1556059563
    18a1  (alpha) ---    10b2  (alpha)        0.3431719184
    24a1  (alpha) ---    10b2  (alpha)        0.6201693118
    29a1  (alpha) ---    10b2  (alpha)       -0.1601124374
    14b2  (alpha) ---    11a1  (alpha)       -0.2081738442
    25b2  (alpha) ---    11a1  (alpha)        0.2265068109
    28b2  (alpha) ---    11a1  (alpha)       -0.1065661220

 Doubles contributions
======= CR-EOMCCSD(T) calculation ======
corresponding R0 value =     0.000000
          
CR-EOMCCSD(T) Intermediates cpu wall time             0.6            0.6
 creom_N i2_1 nr of boxes                   210
 creom_N i2_2 nr of boxes                   325
 creom_N i2_3 nr of boxes                   210
 creom_N i2_4 nr of boxes                   325
          
          
CR-EOMCCSD(T) triples loop cpu wall             2.7            2.7
          
 CR-EOMCCSD(T)  total energy / hartree       =      -224.784676167093465
 CR-EOMCCSD(T)  excitation energy (eV)       =      4.75386

======= CR-EOMCCSD(T) calculation ======
corresponding R0 value =     0.000000
          
CR-EOMCCSD(T) Intermediates cpu wall time             0.6            0.6
 creom_N i2_1 nr of boxes                   210
 creom_N i2_2 nr of boxes                   325
 creom_N i2_3 nr of boxes                   210
 creom_N i2_4 nr of boxes                   325
          
          
CR-EOMCCSD(T) triples loop cpu wall             2.7            2.7
          
 CR-EOMCCSD(T)  total energy / hartree       =      -224.617185778036855
 CR-EOMCCSD(T)  excitation energy (eV)       =      9.31151


 Task  times  cpu:       90.1s     wall:       98.3s


                                NWChem Input Module
                                -------------------


 Summary of allocated global arrays
-----------------------------------
  No active global arrays



                         GA Statistics for process    0
                         ------------------------------

       create   destroy   get      put      acc     scatter   gather  read&inc
calls: 6.99e+04 6.99e+04 4.10e+06 8.49e+04 8.31e+05    0        0     2.83e+06 
number of processes/call 1.11e+00 1.06e+00 1.06e+00 0.00e+00 0.00e+00
bytes total:             8.32e+10 7.86e+08 8.05e+09 0.00e+00 0.00e+00 2.26e+07
bytes remote:            5.50e+10 5.57e+08 5.87e+09 0.00e+00 0.00e+00 0.00e+00
Max memory consumed for GA by this process: 122991544 bytes

MA_summarize_allocated_blocks: starting scan ...
MA_summarize_allocated_blocks: scan completed: 0 heap blocks, 0 stack blocks
MA usage statistics:

	allocation statistics:
					      heap	     stack
					      ----	     -----
	current number of blocks	         0	         0
	maximum number of blocks	        17	        42
	current total bytes		         0	         0
	maximum total bytes		     80104	  22510920
	maximum total K-bytes		        81	     22511
	maximum total M-bytes		         1	        23


                                     CITATION
                                     --------
                Please cite the following reference when publishing
                           results obtained with NWChem:

                 M. Valiev, E.J. Bylaska, N. Govind, K. Kowalski,
              T.P. Straatsma, H.J.J. van Dam, D. Wang, J. Nieplocha,
                        E. Apra, T.L. Windus, W.A. de Jong
                 "NWChem: a comprehensive and scalable open-source
                  solution for large scale molecular simulations"
                      Comput. Phys. Commun. 181, 1477 (2010)
                           doi:10.1016/j.cpc.2010.04.018

                                      AUTHORS
                                      -------
          E. Apra, E. J. Bylaska, W. A. de Jong, N. Govind, K. Kowalski,
       T. P. Straatsma, M. Valiev, H. J. J. van Dam, D. Wang, T. L. Windus,
        J. Hammond, J. Autschbach, K. Bhaskaran-Nair, J. Brabec, K. Lopata,
    S. A. Fischer, S. Krishnamoorthy, M. Jacquelin, W. Ma, M. Klemm, O. Villa,
      Y. Chen, V. Anisimov, F. Aquino, S. Hirata, M. T. Hackler, V. Konjkov,
            D. Mejia-Rodriguez, T. Risthaus, M. Malagoli, A. Marenich,
   A. Otero-de-la-Roza, J. Mullin, P. Nichols, R. Peverati, J. Pittner, Y. Zhao,
        P.-D. Fan, A. Fonari, M. J. Williamson, R. J. Harrison, J. R. Rehr,
      M. Dupuis, D. Silverstein, D. M. A. Smith, J. Nieplocha, V. Tipparaju,
    M. Krishnan, B. E. Van Kuiken, A. Vazquez-Mayagoitia, L. Jensen, M. Swart,
      Q. Wu, T. Van Voorhis, A. A. Auer, M. Nooijen, L. D. Crosby, E. Brown,
      G. Cisneros, G. I. Fann, H. Fruchtl, J. Garza, K. Hirao, R. A. Kendall,
      J. A. Nichols, K. Tsemekhman, K. Wolinski, J. Anchell, D. E. Bernholdt,
      P. Borowski, T. Clark, D. Clerc, H. Dachsel, M. J. O. Deegan, K. Dyall,
    D. Elwood, E. Glendening, M. Gutowski, A. C. Hess, J. Jaffe, B. G. Johnson,
     J. Ju, R. Kobayashi, R. Kutteh, Z. Lin, R. Littlefield, X. Long, B. Meng,
      T. Nakajima, S. Niu, L. Pollack, M. Rosing, K. Glaesemann, G. Sandrone,
      M. Stave, H. Taylor, G. Thomas, J. H. van Lenthe, A. T. Wong, Z. Zhang.

 Total times  cpu:       90.1s     wall:       98.3s
