 argument  1 = /home/list1234/source/nwchem-6.8.1-release/QA/tests/tce_h2o_eomcc/tce_h2o_eomcc.nw



============================== echo of input deck ==============================
#
# Test for CC Lambda & EOM-CC codes in the TCE module
# Reference data obtained by an independent determinantal CC code are
#
# CCSD       dipole -0.622369 au
# EOM-CCSD   energy 11.99085 eV -74.5720575104 au
#            dipole -0.002805 au trnsmmnt 0.106385 au
#
# CCSDT      dipole -0.623302 au
# EOM-CCSDT  energy 12.01829 eV -74.5711542500 au
#            dipole 0.023918 au  trnsmmnt 0.106140 au
#
# CCSDTQ     dipole -0.623208 au
# EOM-CCSDTQ energy 12.01783 eV -74.5711948088 au
#            dipole 0.024926 au  trnsmmnt 0.106143 au
#
start tce_h2o_eomcc

echo

geometry units bohr
symmetry c1
H    1.474611052297904   0.000000000000000   0.863401706825835
O    0.000000000000000   0.000000000000000  -0.215850436155089
H   -1.474611052297904   0.000000000000000   0.863401706825835
end

basis
* library sto-3g
end

scf
thresh 1.0e-14
tol2e 0.0e-10
singlet
rhf
end

tce
ccsd
dipole
freeze core atomic
thresh 1.0d-12
nroots 1
end

task tce energy

tce
ccsdt
dipole
freeze core atomic
thresh 1.0d-12
nroots 1
end

task tce energy

tce
ccsdtq
dipole
freeze core atomic
thresh 1.0d-12
nroots 1
end

#task tce energy
================================================================================


                                         
                                         


              Northwest Computational Chemistry Package (NWChem) 6.8
              ------------------------------------------------------


                    Environmental Molecular Sciences Laboratory
                       Pacific Northwest National Laboratory
                                Richland, WA 99352

                              Copyright (c) 1994-2018
                       Pacific Northwest National Laboratory
                            Battelle Memorial Institute

             NWChem is an open-source computational chemistry package
                        distributed under the terms of the
                      Educational Community License (ECL) 2.0
             A copy of the license is included with this distribution
                              in the LICENSE.TXT file

                                  ACKNOWLEDGMENT
                                  --------------

            This software and its documentation were developed at the
            EMSL at Pacific Northwest National Laboratory, a multiprogram
            national laboratory, operated for the U.S. Department of Energy
            by Battelle under Contract Number DE-AC05-76RL01830. Support
            for this work was provided by the Department of Energy Office
            of Biological and Environmental Research, Office of Basic
            Energy Sciences, and the Office of Advanced Scientific Computing.


           Job information
           ---------------

    hostname        = list1234-B360M-H
    program         = /home/list1234/source/nwchem-6.8.1-release/bin/LINUX64/nwchem
    date            = Sun Jun 30 06:10:12 2019

    compiled        = Sun_Jun_30_05:21:11_2019
    source          = /home/list1234/source/nwchem-6.8.1-release
    nwchem branch   = Development
    nwchem revision = N/A
    ga revision     = 5.6.5
    use scalapack   = T
    input           = /home/list1234/source/nwchem-6.8.1-release/QA/tests/tce_h2o_eomcc/tce_h2o_eomcc.nw
    prefix          = tce_h2o_eomcc.
    data base       = ./tce_h2o_eomcc.db
    status          = startup
    nproc           =        4
    time left       =     -1s



           Memory information
           ------------------

    heap     =   86247164 doubles =    658.0 Mbytes
    stack    =   86247169 doubles =    658.0 Mbytes
    global   =  172494336 doubles =   1316.0 Mbytes (distinct from heap & stack)
    total    =  344988669 doubles =   2632.1 Mbytes
    verify   = yes
    hardfail = no 


           Directory information
           ---------------------

  0 permanent = .
  0 scratch   = .




                                NWChem Input Module
                                -------------------


 Turning off AUTOSYM since
 SYMMETRY directive was detected!


          ------
          auto-z
          ------
  no constraints, skipping    0.0000000000000000     
  no constraints, skipping    0.0000000000000000     


                             Geometry "geometry" -> ""
                             -------------------------

 Output coordinates in a.u. (scale by  1.000000000 to convert to a.u.)

  No.       Tag          Charge          X              Y              Z
 ---- ---------------- ---------- -------------- -------------- --------------
    1 H                    1.0000     1.47461105     0.00000000     0.86340171
    2 O                    8.0000     0.00000000     0.00000000    -0.21585043
    3 H                    1.0000    -1.47461105     0.00000000     0.86340171

      Atomic Mass 
      ----------- 

      H                  1.007825
      O                 15.994910


 Effective nuclear repulsion energy (a.u.)       9.0948490908

            Nuclear Dipole moment (a.u.) 
            ----------------------------
        X                 Y               Z
 ---------------- ---------------- ----------------
     0.0000000000     0.0000000000     0.0000000000



                                Z-matrix (autoz)
                                -------- 

 Units are Angstrom for bonds and degrees for angles

      Type          Name      I     J     K     L     M      Value
      ----------- --------  ----- ----- ----- ----- ----- ----------
    1 Stretch                  1     2                       0.96700
    2 Stretch                  2     3                       0.96700
    3 Bend                     1     2     3               107.60000


            XYZ format geometry
            -------------------
     3
 geometry
 H                     0.78033062     0.00000000     0.45689254
 O                     0.00000000     0.00000000    -0.11422314
 H                    -0.78033062     0.00000000     0.45689254

 ==============================================================================
                                internuclear distances
 ------------------------------------------------------------------------------
       center one      |      center two      | atomic units |       a.u.
 ------------------------------------------------------------------------------
    2 O                |   1 H                |     1.82737  |     1.82737
    3 H                |   2 O                |     1.82737  |     1.82737
 ------------------------------------------------------------------------------
                         number of included internuclear distances:          2
 ==============================================================================



 ==============================================================================
                                 internuclear angles
 ------------------------------------------------------------------------------
        center 1       |       center 2       |       center 3       |  degrees
 ------------------------------------------------------------------------------
    1 H                |   2 O                |   3 H                |   107.60
 ------------------------------------------------------------------------------
                            number of included internuclear angles:          1
 ==============================================================================





 Summary of "ao basis" -> "" (cartesian)
 ------------------------------------------------------------------------------
       Tag                 Description            Shells   Functions and Types
 ---------------- ------------------------------  ------  ---------------------
 *                           sto-3g                   on all atoms 


                      Basis "ao basis" -> "ao basis" (cartesian)
                      -----
  H (Hydrogen)
  ------------
            Exponent  Coefficients 
       -------------- ---------------------------------------------------------
  1 S  3.42525091E+00  0.154329
  1 S  6.23913730E-01  0.535328
  1 S  1.68855400E-01  0.444635

  O (Oxygen)
  ----------
            Exponent  Coefficients 
       -------------- ---------------------------------------------------------
  1 S  1.30709320E+02  0.154329
  1 S  2.38088610E+01  0.535328
  1 S  6.44360830E+00  0.444635

  2 S  5.03315130E+00 -0.099967
  2 S  1.16959610E+00  0.399513
  2 S  3.80389000E-01  0.700115

  3 P  5.03315130E+00  0.155916
  3 P  1.16959610E+00  0.607684
  3 P  3.80389000E-01  0.391957



 Summary of "ao basis" -> "ao basis" (cartesian)
 ------------------------------------------------------------------------------
       Tag                 Description            Shells   Functions and Types
 ---------------- ------------------------------  ------  ---------------------
 H                           sto-3g                  1        1   1s
 O                           sto-3g                  3        5   2s1p


                                 NWChem SCF Module
                                 -----------------



  ao basis        = "ao basis"
  functions       =     7
  atoms           =     3
  closed shells   =     5
  open shells     =     0
  charge          =   0.00
  wavefunction    = RHF 
  input vectors   = atomic
  output vectors  = ./tce_h2o_eomcc.movecs
  use symmetry    = F
  symmetry adapt  = F


 Summary of "ao basis" -> "ao basis" (cartesian)
 ------------------------------------------------------------------------------
       Tag                 Description            Shells   Functions and Types
 ---------------- ------------------------------  ------  ---------------------
 H                           sto-3g                  1        1   1s
 O                           sto-3g                  3        5   2s1p



 Forming initial guess at       0.0s


      Superposition of Atomic Density Guess
      -------------------------------------

 Sum of atomic energies:         -74.71095592

      Non-variational initial energy
      ------------------------------

 Total energy =     -74.656968
 1-e energy   =    -121.607270
 2-e energy   =      37.855454
 HOMO         =      -0.256142
 LUMO         =       0.488053


 Starting SCF solution at       0.0s



 ----------------------------------------------
         Quadratically convergent ROHF

 Convergence threshold     :          1.000E-14
 Maximum no. of iterations :           30
 Final Fock-matrix accuracy:          0.000E+00
 ----------------------------------------------


              iter       energy          gnorm     gmax       time
             ----- ------------------- --------- --------- --------
                 1      -74.9239094229  6.49D-01  5.52D-01      0.1
                 2      -74.9617970551  1.35D-01  9.96D-02      0.1
                 3      -74.9626616080  3.16D-03  2.92D-03      0.1
                 4      -74.9626630619  7.11D-06  6.49D-06      0.2
                 5      -74.9626630619  5.45D-13  4.13D-13      0.2
                 6      -74.9626630619  3.52D-14  2.52D-14      0.2
                 7      -74.9626630619  3.13D-14  2.81D-14      0.2
                 8      -74.9626630619  1.50D-14  9.14D-15      0.2
                 9      -74.9626630619  7.27D-15  6.07D-15      0.2


       Final RHF  results 
       ------------------ 

         Total SCF energy =    -74.962663061923
      One-electron energy =   -122.219010674876
      Two-electron energy =     38.161498522133
 Nuclear repulsion energy =      9.094849090820

        Time for solution =      0.1s


             Final eigenvalues
             -----------------

              1      
    1  -20.2384
    2   -1.2597
    3   -0.6175
    4   -0.4443
    5   -0.3881
    6    0.5899
    7    0.7400

                       ROHF Final Molecular Orbital Analysis
                       -------------------------------------

 Vector    2  Occ=2.000000D+00  E=-1.259694D+00
              MO Center= -4.5D-16, -7.6D-20,  6.7D-02, r^2= 5.4D-01
   Bfn.  Coefficient  Atom+Function         Bfn.  Coefficient  Atom+Function  
  ----- ------------  ---------------      ----- ------------  ---------------
     3      0.837663  2 O  s                  2     -0.233394  2 O  s          
     1      0.158623  1 H  s                  7      0.158623  3 H  s          

 Vector    3  Occ=2.000000D+00  E=-6.175019D-01
              MO Center= -3.3D-16,  8.0D-32,  1.4D-01, r^2= 8.5D-01
   Bfn.  Coefficient  Atom+Function         Bfn.  Coefficient  Atom+Function  
  ----- ------------  ---------------      ----- ------------  ---------------
     4      0.601814  2 O  px                 1      0.443956  1 H  s          
     7     -0.443956  3 H  s          

 Vector    4  Occ=2.000000D+00  E=-4.443043D-01
              MO Center=  6.4D-16, -1.9D-18, -1.6D-01, r^2= 6.2D-01
   Bfn.  Coefficient  Atom+Function         Bfn.  Coefficient  Atom+Function  
  ----- ------------  ---------------      ----- ------------  ---------------
     6      0.784227  2 O  pz                 3     -0.524383  2 O  s          
     1      0.278248  1 H  s                  7      0.278248  3 H  s          

 Vector    5  Occ=2.000000D+00  E=-3.881364D-01
              MO Center=  1.2D-33,  2.4D-18, -1.1D-01, r^2= 4.2D-01
   Bfn.  Coefficient  Atom+Function         Bfn.  Coefficient  Atom+Function  
  ----- ------------  ---------------      ----- ------------  ---------------
     5      1.000000  2 O  py         

 Vector    6  Occ=0.000000D+00  E= 5.899401D-01
              MO Center=  7.3D-15, -4.1D-19,  3.8D-01, r^2= 1.1D+00
   Bfn.  Coefficient  Atom+Function         Bfn.  Coefficient  Atom+Function  
  ----- ------------  ---------------      ----- ------------  ---------------
     3      0.874577  2 O  s                  1     -0.793258  1 H  s          
     7     -0.793258  3 H  s                  6      0.724694  2 O  pz         

 Vector    7  Occ=0.000000D+00  E= 7.399956D-01
              MO Center= -7.1D-15, -6.6D-36,  2.3D-01, r^2= 1.0D+00
   Bfn.  Coefficient  Atom+Function         Bfn.  Coefficient  Atom+Function  
  ----- ------------  ---------------      ----- ------------  ---------------
     4      0.993707  2 O  px                 1     -0.827832  1 H  s          
     7      0.827832  3 H  s          


 center of mass
 --------------
 x =   0.00000000 y =   0.00000000 z =  -0.09506603

 moments of inertia (a.u.)
 ------------------
           2.085045547333           0.000000000000           0.000000000000
           0.000000000000           6.468031635326           0.000000000000
           0.000000000000           0.000000000000           4.382986087993

  Mulliken analysis of the total density
  --------------------------------------

    Atom       Charge   Shell Charges
 -----------   ------   -------------------------------------------------------
    1 H    1     0.82   0.82
    2 O    8     8.36   2.00  1.82  4.54
    3 H    1     0.82   0.82

       Multipole analysis of the density wrt the origin
       ------------------------------------------------

     L   x y z        total         open         nuclear
     -   - - -        -----         ----         -------
     0   0 0 0     -0.000000      0.000000     10.000000

     1   1 0 0      0.000000      0.000000      0.000000
     1   0 1 0     -0.000000      0.000000      0.000000
     1   0 0 1      0.666093      0.000000      0.000000

     2   2 0 0     -3.162719      0.000000      4.348956
     2   1 1 0      0.000000      0.000000      0.000000
     2   1 0 1      0.000000      0.000000      0.000000
     2   0 2 0     -4.535291      0.000000      0.000000
     2   0 1 1     -0.000000      0.000000      0.000000
     2   0 0 2     -4.042077      0.000000      1.863656

                   NWChem Extensible Many-Electron Theory Module
                   ---------------------------------------------

              ======================================================
                   This portion of the program was automatically
                  generated by a Tensor Contraction Engine (TCE).
                  The development of this portion of the program
                 and TCE was supported by US Department of Energy,
                Office of Science, Office of Basic Energy Science.
                      TCE is a product of Battelle and PNNL.
              Please cite: S.Hirata, J.Phys.Chem.A 107, 9887 (2003).
              ======================================================

            General Information
            -------------------
      Number of processors :     4
         Wavefunction type : Restricted Hartree-Fock
          No. of electrons :    10
           Alpha electrons :     5
            Beta electrons :     5
           No. of orbitals :    14
            Alpha orbitals :     7
             Beta orbitals :     7
        Alpha frozen cores :     1
         Beta frozen cores :     1
     Alpha frozen virtuals :     0
      Beta frozen virtuals :     0
         Spin multiplicity : singlet 
    Number of AO functions :     7
       Number of AO shells :     5
        Use of symmetry is : off
      Symmetry adaption is : off
         Schwarz screening : 0.00D+00

          Correlation Information
          -----------------------
          Calculation type : Coupled-cluster singles & doubles                           
   Perturbative correction : none                                                        
            Max iterations :      100
        Residual threshold : 0.10D-11
     T(0) DIIS level shift : 0.00D+00
     L(0) DIIS level shift : 0.00D+00
     T(1) DIIS level shift : 0.00D+00
     L(1) DIIS level shift : 0.00D+00
     T(R) DIIS level shift : 0.00D+00
     T(I) DIIS level shift : 0.00D+00
   CC-T/L Amplitude update :  5-th order DIIS
     No. of excited states :     1
               Target root :     1
           Target symmetry : none
      Symmetry restriction : off
   Dipole & oscillator str : on 
                I/O scheme : Global Array Library
        L-threshold :  0.10D-11
        EOM-threshold :  0.10D-11
 no EOMCCSD initial starts read in
 TCE RESTART OPTIONS
 READ_INT:   F
 WRITE_INT:  F
 READ_TA:    F
 WRITE_TA:   F
 READ_XA:    F
 WRITE_XA:   F
 READ_IN3:   F
 WRITE_IN3:  F
 SLICE:      F
 D4D5:       F

            Memory Information
            ------------------
          Available GA space size is     689977295 doubles
          Available MA space size is     172493612 doubles

 Maximum block size        32 doubles

 tile_dim =      4

 Block   Spin    Irrep     Size     Offset   Alpha
 -------------------------------------------------
   1    alpha     a      4 doubles       0       1
   2    beta      a      4 doubles       4       1
   3    alpha     a      2 doubles       8       3
   4    beta      a      2 doubles      10       3

 Global array virtual files algorithm will be used

 Parallel file system coherency ......... OK

 SCF dipole moments / hartree & Debye
 ------------------------------------
   X         0.0000000      0.0000000
   Y         0.0000000      0.0000000
   Z        -0.6660932     -1.6930528
 Total       0.6660932      1.6930528
 ------------------------------------

 Cpu & wall time / sec            0.0            0.0

 X   axis ( a   symmetry)
 dipole file size   =               36
 dipole file name   = ./tce_h2o_eomcc.d1x

 Y   axis ( a   symmetry)
 dipole file size   =               36
 dipole file name   = ./tce_h2o_eomcc.d1y

 Z   axis ( a   symmetry)
 dipole file size   =               36
 dipole file name   = ./tce_h2o_eomcc.d1z

 Fock matrix recomputed
 1-e file size   =               36
 1-e file name   = ./tce_h2o_eomcc.f1
 Cpu & wall time / sec            0.0            0.0

 tce_ao2e: fast2e=1
 half-transformed integrals in memory

 2-e (intermediate) file size =            4508
 2-e (intermediate) file name = ./tce_h2o_eomcc.v2i
 Cpu & wall time / sec            0.0            0.0

 tce_mo2e: fast2e=1
 2-e integrals stored in memory

 2-e file size   =             2080
 2-e file name   = ./tce_h2o_eomcc.v2
 Cpu & wall time / sec            0.0            0.0
 T1-number-of-tasks                    1

 t1 file size   =                8
 t1 file name   = ./tce_h2o_eomcc.t1
 t1 file handle =       -998
 T2-number-of-boxes                    2

 t2 file size   =              128
 t2 file name   = ./tce_h2o_eomcc.t2
 t2 file handle =       -992

 CCSD iterations
 -----------------------------------------------------------------
 Iter          Residuum       Correlation     Cpu    Wall    V2*C2
 -----------------------------------------------------------------
    1   0.0896017185928  -0.0357602502573     0.0     0.0     0.0
    2   0.0312828808790  -0.0454262467220     0.0     0.0     0.0
    3   0.0122030116750  -0.0483612964852     0.0     0.0     0.0
    4   0.0050680646762  -0.0493854982423     0.0     0.0     0.0
    5   0.0022128012738  -0.0497749890209     0.0     0.0     0.0
 MICROCYCLE DIIS UPDATE:                    5                    5
    6   0.0000455716084  -0.0500493621845     0.0     0.0     0.0
    7   0.0000198537238  -0.0500496118301     0.0     0.0     0.0
    8   0.0000094375380  -0.0500497736295     0.0     0.0     0.0
    9   0.0000046008377  -0.0500498540704     0.0     0.0     0.0
   10   0.0000022776216  -0.0500498956784     0.0     0.0     0.0
 MICROCYCLE DIIS UPDATE:                   10                    5
   11   0.0000000685620  -0.0500499439745     0.0     0.0     0.0
   12   0.0000000215709  -0.0500499486684     0.0     0.0     0.0
   13   0.0000000099411  -0.0500499498128     0.0     0.0     0.0
   14   0.0000000048814  -0.0500499502721     0.0     0.0     0.0
   15   0.0000000024493  -0.0500499504854     0.0     0.0     0.0
 MICROCYCLE DIIS UPDATE:                   15                    5
   16   0.0000000000837  -0.0500499506911     0.0     0.0     0.0
   17   0.0000000000350  -0.0500499506901     0.0     0.0     0.0
   18   0.0000000000162  -0.0500499506903     0.0     0.0     0.0
   19   0.0000000000078  -0.0500499506904     0.0     0.0     0.0
   20   0.0000000000038  -0.0500499506905     0.0     0.0     0.0
 MICROCYCLE DIIS UPDATE:                   20                    5
   21   0.0000000000001  -0.0500499506906     0.0     0.0     0.0
 -----------------------------------------------------------------
 Iterations converged
 CCSD correlation energy / hartree =        -0.050049950690621
 CCSD total energy / hartree       =       -75.012713012613958

 Singles contributions

 Doubles contributions

 CCSD Lambda iterations
 ---------------------------------------------
 Iter          Residuum            Cpu    Wall
 ---------------------------------------------
    1          0.1040037154585     0.0     0.0
    2          0.0072780341935     0.0     0.0
    3          0.0009634259035     0.0     0.0
    4          0.0001616551619     0.0     0.0
    5          0.0000299192958     0.0     0.0
 MICROCYCLE DIIS UPDATE:                    5                    5
    6          0.0000000282132     0.0     0.0
    7          0.0000000042851     0.0     0.0
    8          0.0000000008688     0.0     0.0
    9          0.0000000001992     0.0     0.0
   10          0.0000000000486     0.0     0.0
 MICROCYCLE DIIS UPDATE:                   10                    5
   11          0.0000000000000     0.0     0.0
 ---------------------------------------------
 Iterations converged
1-PDM CCSD : h-h block

 1PDM h-h block largest contributions


1-PDM CCSD : p-p block

 1PDM p-p block largest contributions


1-PDM CCSD : h-p block

 1PDM h-p block largest contributions


1-PDM CCSD : p-h block

 1PDM p-h block largest contributions


1-PDM CCSD : all done


Lambda-CCSD leading excitations:

 Singles contributions

 Doubles contributions

 CCSD dipole moments / hartree & Debye
 ------------------------------------
   X         0.0000000      0.0000000
   Y        -0.0000000     -0.0000000
   Z        -0.6223689     -1.5819158
 Total       0.6223689      1.5819158
 ------------------------------------

 Ground-state symmetry is a   

 =========================================
 Excited-state calculation ( a   symmetry)
 =========================================
 Dim. of EOMCC iter. space      500

 x1 file size   =                8

 x2 file size   =              128

 EOMCCSD SOLVER TYPE  1

 No. of initial right vectors    1

 EOM-CCSD right-hand side iterations
 --------------------------------------------------------------
      Residuum       Omega / hartree  Omega / eV    Cpu    Wall
 --------------------------------------------------------------

 Iteration   1 using    1 trial vectors
   0.3441834723251   0.4960382793183   13.49789     0.0     0.0

 Iteration   2 using    2 trial vectors
   0.0569282647092   0.4422999231476   12.03560     0.0     0.0

 Iteration   3 using    3 trial vectors
   0.0097995551541   0.4407319040535   11.99293     0.0     0.0

 Iteration   4 using    4 trial vectors
   0.0019045964962   0.4406584247473   11.99093     0.0     0.0

 Iteration   5 using    5 trial vectors
   0.0004988184955   0.4406563205202   11.99087     0.0     0.0

 Iteration   6 using    6 trial vectors
   0.0000114045018   0.4406554471955   11.99085     0.0     0.0

 Iteration   7 using    7 trial vectors
   0.0000000000000   0.4406555022089   11.99085     0.0     0.0
 --------------------------------------------------------------
 Iterations converged
 ------------------

 Excited state root  1
 Excitation energy / hartree =        0.440655502208886
                   / eV      =       11.990851414250418
 largest EOMCCSD amplitudes: R1 and R2

 Singles contributions
     6a   (alpha) ---     5a   (alpha)        0.9481694324

 Doubles contributions
     6a   (alpha)     7a   (beta ) ---     3a   (alpha)     5a   (beta )        0.1062858495
     6a   (alpha)     7a   (beta ) ---     5a   (alpha)     3a   (beta )        0.1323331866
     7a   (alpha)     6a   (beta ) ---     3a   (alpha)     5a   (beta )        0.1323331866
     7a   (alpha)     6a   (beta ) ---     5a   (alpha)     3a   (beta )        0.1062858495

 No. of initial left vectors    1

 EOM-CCSD left-hand side iterations
 --------------------------------------------------------------
      Residuum       Omega / hartree  Omega / eV    Cpu    Wall
 --------------------------------------------------------------

 Iteration   1 using    1 trial vectors
   0.3565391650620   0.4960382793183   13.49789     0.0     0.0

 Iteration   2 using    2 trial vectors
   0.0565907280952   0.4434021510668   12.06559     0.0     0.0

 Iteration   3 using    3 trial vectors
   0.0102635918267   0.4408328613726   11.99568     0.0     0.0

 Iteration   4 using    4 trial vectors
   0.0018484727152   0.4406558563773   11.99086     0.0     0.0

 Iteration   5 using    5 trial vectors
   0.0005054326049   0.4406526253093   11.99077     0.0     0.0

 Iteration   6 using    6 trial vectors
   0.0000128184531   0.4406555468920   11.99085     0.0     0.0

 Iteration   7 using    7 trial vectors
   0.0000000000000   0.4406555022089   11.99085     0.0     0.0
 --------------------------------------------------------------
 Iterations converged

 Excited state root  1
 Excitation energy / hartree =        0.440655502208886
                   / eV      =       11.990851414250418

 EOM-CCSD transition moments / hartree
 --------------------------------------------
 X    0.0000000 Y    0.1063852 Z    0.0000000
 Oscillator Strength                0.0033248
 --------------------------------------------

 EOM-CCSD dipole moments / hartree & Debye
 ------------------------------------
   X         0.0000000      0.0000000
   Y        -0.0000000     -0.0000000
   Z        -0.0028046     -0.0071286
 Total       0.0028046      0.0071286
 ------------------------------------

 Singles contributions
     6a   (alpha) ---     5a   (alpha)        0.9481694324

 Doubles contributions
     6a   (alpha)     7a   (beta ) ---     3a   (alpha)     5a   (beta )        0.1062858495
     6a   (alpha)     7a   (beta ) ---     5a   (alpha)     3a   (beta )        0.1323331866
     7a   (alpha)     6a   (beta ) ---     3a   (alpha)     5a   (beta )        0.1323331866
     7a   (alpha)     6a   (beta ) ---     5a   (alpha)     3a   (beta )        0.1062858495

 Task  times  cpu:        0.6s     wall:        0.7s


                                NWChem Input Module
                                -------------------


                                 NWChem SCF Module
                                 -----------------



  ao basis        = "ao basis"
  functions       =     7
  atoms           =     3
  closed shells   =     5
  open shells     =     0
  charge          =   0.00
  wavefunction    = RHF 
  input vectors   = ./tce_h2o_eomcc.movecs
  output vectors  = ./tce_h2o_eomcc.movecs
  use symmetry    = F
  symmetry adapt  = F


 Summary of "ao basis" -> "ao basis" (cartesian)
 ------------------------------------------------------------------------------
       Tag                 Description            Shells   Functions and Types
 ---------------- ------------------------------  ------  ---------------------
 H                           sto-3g                  1        1   1s
 O                           sto-3g                  3        5   2s1p



  The SCF is already converged 

         Total SCF energy =    -74.962663061923

                   NWChem Extensible Many-Electron Theory Module
                   ---------------------------------------------

              ======================================================
                   This portion of the program was automatically
                  generated by a Tensor Contraction Engine (TCE).
                  The development of this portion of the program
                 and TCE was supported by US Department of Energy,
                Office of Science, Office of Basic Energy Science.
                      TCE is a product of Battelle and PNNL.
              Please cite: S.Hirata, J.Phys.Chem.A 107, 9887 (2003).
              ======================================================

            General Information
            -------------------
      Number of processors :     4
         Wavefunction type : Restricted Hartree-Fock
          No. of electrons :    10
           Alpha electrons :     5
            Beta electrons :     5
           No. of orbitals :    14
            Alpha orbitals :     7
             Beta orbitals :     7
        Alpha frozen cores :     1
         Beta frozen cores :     1
     Alpha frozen virtuals :     0
      Beta frozen virtuals :     0
         Spin multiplicity : singlet 
    Number of AO functions :     7
       Number of AO shells :     5
        Use of symmetry is : off
      Symmetry adaption is : off
         Schwarz screening : 0.00D+00

          Correlation Information
          -----------------------
          Calculation type : Coupled-cluster singles, doubles, & triples                 
   Perturbative correction : none                                                        
            Max iterations :      100
        Residual threshold : 0.10D-11
     T(0) DIIS level shift : 0.00D+00
     L(0) DIIS level shift : 0.00D+00
     T(1) DIIS level shift : 0.00D+00
     L(1) DIIS level shift : 0.00D+00
     T(R) DIIS level shift : 0.00D+00
     T(I) DIIS level shift : 0.00D+00
   CC-T/L Amplitude update :  5-th order DIIS
     No. of excited states :     1
               Target root :     1
           Target symmetry : none
      Symmetry restriction : off
   Dipole & oscillator str : on 
                I/O scheme : Global Array Library
        L-threshold :  0.10D-11
        EOM-threshold :  0.10D-11
 no EOMCCSD initial starts read in
 TCE RESTART OPTIONS
 READ_INT:   F
 WRITE_INT:  F
 READ_TA:    F
 WRITE_TA:   F
 READ_XA:    F
 WRITE_XA:   F
 READ_IN3:   F
 WRITE_IN3:  F
 SLICE:      F
 D4D5:       F

            Memory Information
            ------------------
          Available GA space size is     689977295 doubles
          Available MA space size is     172493612 doubles

 Maximum block size        20 doubles

 tile_dim =      4

 Block   Spin    Irrep     Size     Offset   Alpha
 -------------------------------------------------
   1    alpha     a      4 doubles       0       1
   2    beta      a      4 doubles       4       1
   3    alpha     a      2 doubles       8       3
   4    beta      a      2 doubles      10       3

 Global array virtual files algorithm will be used

 Parallel file system coherency ......... OK

 SCF dipole moments / hartree & Debye
 ------------------------------------
   X         0.0000000      0.0000000
   Y         0.0000000      0.0000000
   Z        -0.6660932     -1.6930528
 Total       0.6660932      1.6930528
 ------------------------------------

 Cpu & wall time / sec            0.0            0.0

 X   axis ( a   symmetry)
 dipole file size   =               36
 dipole file name   = ./tce_h2o_eomcc.d1x

 Y   axis ( a   symmetry)
 dipole file size   =               36
 dipole file name   = ./tce_h2o_eomcc.d1y

 Z   axis ( a   symmetry)
 dipole file size   =               36
 dipole file name   = ./tce_h2o_eomcc.d1z

 Fock matrix recomputed
 1-e file size   =               36
 1-e file name   = ./tce_h2o_eomcc.f1
 Cpu & wall time / sec            0.0            0.0

 tce_ao2e: fast2e=1
 half-transformed integrals in memory

 2-e (intermediate) file size =            4508
 2-e (intermediate) file name = ./tce_h2o_eomcc.v2i
 Cpu & wall time / sec            0.0            0.0

 tce_mo2e: fast2e=1
 2-e integrals stored in memory

 2-e file size   =             2080
 2-e file name   = ./tce_h2o_eomcc.v2
 Cpu & wall time / sec            0.0            0.0
 T1-number-of-tasks                    1

 t1 file size   =                8
 t1 file name   = ./tce_h2o_eomcc.t1
 t1 file handle =       -998
 T2-number-of-boxes                    2

 t2 file size   =              128
 t2 file name   = ./tce_h2o_eomcc.t2
 t2 file handle =       -992

 t3 file size   =             1536
 t3 file name   = ./tce_h2o_eomcc.t3

 CCSDT iterations
 --------------------------------------------------------
 Iter          Residuum       Correlation     Cpu    Wall
 --------------------------------------------------------
    1   0.0889407309200  -0.0357688187470     0.0     0.0
    2   0.0317313531654  -0.0453269251678     0.0     0.0
    3   0.0125661245789  -0.0483604817126     0.0     0.0
    4   0.0052980581009  -0.0494406196519     0.0     0.0
    5   0.0023475122758  -0.0498563539361     0.0     0.0
 MICROCYCLE DIIS UPDATE:                    5                    5
    6   0.0000549228307  -0.0501538271286     0.0     0.0
    7   0.0000213675912  -0.0501553455003     0.0     0.0
    8   0.0000100948043  -0.0501551809748     0.0     0.0
    9   0.0000050171959  -0.0501551099174     0.0     0.0
   10   0.0000025607657  -0.0501550916262     0.0     0.0
 MICROCYCLE DIIS UPDATE:                   10                    5
   11   0.0000001970883  -0.0501550999210     0.0     0.0
   12   0.0000000748568  -0.0501550980938     0.0     0.0
   13   0.0000000377541  -0.0501550989718     0.0     0.0
   14   0.0000000203782  -0.0501550994903     0.0     0.0
   15   0.0000000112130  -0.0501550997338     0.0     0.0
 MICROCYCLE DIIS UPDATE:                   15                    5
   16   0.0000000002725  -0.0501550999517     0.0     0.0
   17   0.0000000000934  -0.0501550999538     0.0     0.0
   18   0.0000000000421  -0.0501550999533     0.0     0.0
   19   0.0000000000201  -0.0501550999527     0.0     0.0
   20   0.0000000000099  -0.0501550999523     0.0     0.0
 MICROCYCLE DIIS UPDATE:                   20                    5
   21   0.0000000000010  -0.0501550999519     0.0     0.0
   22   0.0000000000004  -0.0501550999519     0.0     0.0
 --------------------------------------------------------
 Iterations converged
 CCSDT correlation energy / hartree =        -0.050155099951916
 CCSDT total energy / hartree       =       -75.012818161875259

 Singles contributions

 Doubles contributions

 CCSDT Lambda iterations
 ---------------------------------------------
 Iter          Residuum            Cpu    Wall
 ---------------------------------------------
    1          0.1040037154585     0.0     0.0
    2          0.0072767266853     0.0     0.0
    3          0.0009675944793     0.0     0.0
    4          0.0001622993520     0.0     0.0
    5          0.0000301764588     0.0     0.0
 MICROCYCLE DIIS UPDATE:                    5                    5
    6          0.0000003709234     0.0     0.0
    7          0.0000000346059     0.0     0.0
    8          0.0000000065516     0.0     0.0
    9          0.0000000014811     0.0     0.0
   10          0.0000000003650     0.0     0.0
 MICROCYCLE DIIS UPDATE:                   10                    5
   11          0.0000000000004     0.0     0.0
 ---------------------------------------------
 Iterations converged

 CCSDT dipole moments / hartree & Debye
 ------------------------------------
   X         0.0000000      0.0000000
   Y         0.0000000      0.0000000
   Z        -0.6233020     -1.5842875
 Total       0.6233020      1.5842875
 ------------------------------------

 Ground-state symmetry is a   

 =========================================
 Excited-state calculation ( a   symmetry)
 =========================================
 Dim. of EOMCC iter. space      500

 x1 file size   =                8

 x2 file size   =              128

 x3 file size   =             1536

 No. of initial right vectors    1

 EOM-CCSDT right-hand side iterations
 --------------------------------------------------------------
      Residuum       Omega / hartree  Omega / eV    Cpu    Wall
 --------------------------------------------------------------

 Iteration   1 using    1 trial vectors
   0.3461770845410   0.4960076643415   13.49706     0.0     0.0

 Iteration   2 using    2 trial vectors
   0.1334485244440   0.4428753954031   12.05126     0.0     0.0

 Iteration   3 using    3 trial vectors
   0.0225188526750   0.4422391652132   12.03395     0.0     0.0

 Iteration   4 using    4 trial vectors
   0.0066047174371   0.4417450578048   12.02050     0.0     0.0

 Iteration   5 using    5 trial vectors
   0.0017720282806   0.4416197173748   12.01709     0.0     0.0

 Iteration   6 using    6 trial vectors
   0.0005046983510   0.4416563095315   12.01808     0.0     0.0

 Iteration   7 using    7 trial vectors
   0.0000621070760   0.4416633636222   12.01828     0.0     0.0

 Iteration   8 using    8 trial vectors
   0.0000055123261   0.4416639041063   12.01829     0.0     0.0

 Iteration   9 using    9 trial vectors
   0.0000006325718   0.4416639046007   12.01829     0.0     0.0

 Iteration  10 using   10 trial vectors
   0.0000001139694   0.4416639137685   12.01829     0.0     0.0

 Iteration  11 using   11 trial vectors
   0.0000000105573   0.4416639131069   12.01829     0.0     0.1

 Iteration  12 using   12 trial vectors
   0.0000000010417   0.4416639131033   12.01829     0.0     0.0

 Iteration  13 using   13 trial vectors
   0.0000000001120   0.4416639130945   12.01829     0.0     0.0

 Iteration  14 using   14 trial vectors
   0.0000000000072   0.4416639130936   12.01829     0.0     0.0

 Iteration  15 using   15 trial vectors
   0.0000000000004   0.4416639130936   12.01829     0.0     0.0
 --------------------------------------------------------------
 Iterations converged
 largest EOMCCSDT amplitudes: R1 and R2

 Singles contributions
     6a   (alpha) ---     5a   (alpha)        0.9467112356

 Doubles contributions
     6a   (alpha)     7a   (beta ) ---     3a   (alpha)     5a   (beta )        0.1065361727
     6a   (alpha)     7a   (beta ) ---     5a   (alpha)     3a   (beta )        0.1332297366
     7a   (alpha)     6a   (beta ) ---     3a   (alpha)     5a   (beta )        0.1332297366
     7a   (alpha)     6a   (beta ) ---     5a   (alpha)     3a   (beta )        0.1065361727

 No. of initial left vectors    1

 EOM-CCSDT left-hand side iterations
 --------------------------------------------------------------
      Residuum       Omega / hartree  Omega / eV    Cpu    Wall
 --------------------------------------------------------------

 Iteration   1 using    1 trial vectors
   0.7275463977350   0.4960076643415   13.49706     0.1     0.1

 Iteration   2 using    2 trial vectors
   0.1670849518588   0.4530513627134   12.32816     0.1     0.1

 Iteration   3 using    3 trial vectors
   0.0274556060235   0.4425919141931   12.04354     0.0     0.1

 Iteration   4 using    4 trial vectors
   0.0061770106311   0.4416648387644   12.01832     0.1     0.1

 Iteration   5 using    5 trial vectors
   0.0022608123607   0.4416272848191   12.01729     0.1     0.1

 Iteration   6 using    6 trial vectors
   0.0006809775878   0.4416535201437   12.01801     0.1     0.1

 Iteration   7 using    7 trial vectors
   0.0000784111541   0.4416682316886   12.01841     0.1     0.1

 Iteration   8 using    8 trial vectors
   0.0000096743988   0.4416644033245   12.01831     0.1     0.1

 Iteration   9 using    9 trial vectors
   0.0000019435613   0.4416639675793   12.01829     0.1     0.1

 Iteration  10 using   10 trial vectors
   0.0000001205143   0.4416639146751   12.01829     0.1     0.1

 Iteration  11 using   11 trial vectors
   0.0000000116307   0.4416639132367   12.01829     0.1     0.1

 Iteration  12 using   12 trial vectors
   0.0000000007324   0.4416639131016   12.01829     0.1     0.1

 Iteration  13 using   13 trial vectors
   0.0000000000549   0.4416639130953   12.01829     0.1     0.1

 Iteration  14 using   14 trial vectors
   0.0000000000051   0.4416639130937   12.01829     0.1     0.1

 Iteration  15 using   15 trial vectors
   0.0000000000001   0.4416639130936   12.01829     0.1     0.1
 --------------------------------------------------------------
 Iterations converged

 Excited state root  1
 Excitation energy / hartree =        0.441663913093613
                   / eV      =       12.018291682266289

 EOM-CCSDT transition moments / hartree
 --------------------------------------------
 X    0.0000000 Y    0.1061400 Z    0.0000000
 Oscillator Strength                0.0033171
 --------------------------------------------

 EOM-CCSDT dipole moments / hartree & Debye
 ------------------------------------
   X         0.0000000      0.0000000
   Y        -0.0000000     -0.0000000
   Z         0.0239176      0.0607928
 Total       0.0239176      0.0607928
 ------------------------------------

 Singles contributions
     6a   (alpha) ---     5a   (alpha)        0.9467112356

 Doubles contributions
     6a   (alpha)     7a   (beta ) ---     3a   (alpha)     5a   (beta )        0.1065361727
     6a   (alpha)     7a   (beta ) ---     5a   (alpha)     3a   (beta )        0.1332297366
     7a   (alpha)     6a   (beta ) ---     3a   (alpha)     5a   (beta )        0.1332297366
     7a   (alpha)     6a   (beta ) ---     5a   (alpha)     3a   (beta )        0.1065361727

 Task  times  cpu:        2.5s     wall:        2.6s


                                NWChem Input Module
                                -------------------


 Summary of allocated global arrays
-----------------------------------
  No active global arrays



                         GA Statistics for process    0
                         ------------------------------

       create   destroy   get      put      acc     scatter   gather  read&inc
calls: 4.11e+04 4.11e+04 9.01e+04 3.37e+04 4.22e+04    0        0     8.90e+04 
number of processes/call 2.49e+00 1.07e+00 2.26e+00 0.00e+00 0.00e+00
bytes total:             1.48e+08 2.89e+06 9.43e+07 0.00e+00 0.00e+00 7.12e+05
bytes remote:            9.84e+07 1.83e+06 4.73e+07 0.00e+00 0.00e+00 0.00e+00
Max memory consumed for GA by this process: 200736 bytes

MA_summarize_allocated_blocks: starting scan ...
MA_summarize_allocated_blocks: scan completed: 0 heap blocks, 0 stack blocks
MA usage statistics:

	allocation statistics:
					      heap	     stack
					      ----	     -----
	current number of blocks	         0	         0
	maximum number of blocks	        16	        48
	current total bytes		         0	         0
	maximum total bytes		     80136	  22509224
	maximum total K-bytes		        81	     22510
	maximum total M-bytes		         1	        23


                                     CITATION
                                     --------
                Please cite the following reference when publishing
                           results obtained with NWChem:

                 M. Valiev, E.J. Bylaska, N. Govind, K. Kowalski,
              T.P. Straatsma, H.J.J. van Dam, D. Wang, J. Nieplocha,
                        E. Apra, T.L. Windus, W.A. de Jong
                 "NWChem: a comprehensive and scalable open-source
                  solution for large scale molecular simulations"
                      Comput. Phys. Commun. 181, 1477 (2010)
                           doi:10.1016/j.cpc.2010.04.018

                                      AUTHORS
                                      -------
          E. Apra, E. J. Bylaska, W. A. de Jong, N. Govind, K. Kowalski,
       T. P. Straatsma, M. Valiev, H. J. J. van Dam, D. Wang, T. L. Windus,
        J. Hammond, J. Autschbach, K. Bhaskaran-Nair, J. Brabec, K. Lopata,
    S. A. Fischer, S. Krishnamoorthy, M. Jacquelin, W. Ma, M. Klemm, O. Villa,
      Y. Chen, V. Anisimov, F. Aquino, S. Hirata, M. T. Hackler, V. Konjkov,
            D. Mejia-Rodriguez, T. Risthaus, M. Malagoli, A. Marenich,
   A. Otero-de-la-Roza, J. Mullin, P. Nichols, R. Peverati, J. Pittner, Y. Zhao,
        P.-D. Fan, A. Fonari, M. J. Williamson, R. J. Harrison, J. R. Rehr,
      M. Dupuis, D. Silverstein, D. M. A. Smith, J. Nieplocha, V. Tipparaju,
    M. Krishnan, B. E. Van Kuiken, A. Vazquez-Mayagoitia, L. Jensen, M. Swart,
      Q. Wu, T. Van Voorhis, A. A. Auer, M. Nooijen, L. D. Crosby, E. Brown,
      G. Cisneros, G. I. Fann, H. Fruchtl, J. Garza, K. Hirao, R. A. Kendall,
      J. A. Nichols, K. Tsemekhman, K. Wolinski, J. Anchell, D. E. Bernholdt,
      P. Borowski, T. Clark, D. Clerc, H. Dachsel, M. J. O. Deegan, K. Dyall,
    D. Elwood, E. Glendening, M. Gutowski, A. C. Hess, J. Jaffe, B. G. Johnson,
     J. Ju, R. Kobayashi, R. Kutteh, Z. Lin, R. Littlefield, X. Long, B. Meng,
      T. Nakajima, S. Niu, L. Pollack, M. Rosing, K. Glaesemann, G. Sandrone,
      M. Stave, H. Taylor, G. Thomas, J. H. van Lenthe, A. T. Wong, Z. Zhang.

 Total times  cpu:        3.2s     wall:        3.3s
