 argument  1 = /home/list1234/source/nwchem-6.8.1-release/QA/tests/tce_uhf_uccsd/tce_uhf_uccsd.nw



============================== echo of input deck ==============================
#
# Water UHF-UCCSD/STO-3G
#
# UHF-UCCSD   -0.0391885
#
start tce_uhf_uccsd

echo

charge 1

geometry units angstrom
zmat
H
O H 0.96
H O 0.96 H 104.0
end
end

basis
* library sto-3g
end

scf
thresh 1e-10
tol2e 1e-10
doublet
uhf
end

tce
ccsd
end

task tce energy
================================================================================


                                         
                                         


              Northwest Computational Chemistry Package (NWChem) 6.8
              ------------------------------------------------------


                    Environmental Molecular Sciences Laboratory
                       Pacific Northwest National Laboratory
                                Richland, WA 99352

                              Copyright (c) 1994-2018
                       Pacific Northwest National Laboratory
                            Battelle Memorial Institute

             NWChem is an open-source computational chemistry package
                        distributed under the terms of the
                      Educational Community License (ECL) 2.0
             A copy of the license is included with this distribution
                              in the LICENSE.TXT file

                                  ACKNOWLEDGMENT
                                  --------------

            This software and its documentation were developed at the
            EMSL at Pacific Northwest National Laboratory, a multiprogram
            national laboratory, operated for the U.S. Department of Energy
            by Battelle under Contract Number DE-AC05-76RL01830. Support
            for this work was provided by the Department of Energy Office
            of Biological and Environmental Research, Office of Basic
            Energy Sciences, and the Office of Advanced Scientific Computing.


           Job information
           ---------------

    hostname        = list1234-B360M-H
    program         = /home/list1234/source/nwchem-6.8.1-release/bin/LINUX64/nwchem
    date            = Sun Jun 30 06:10:16 2019

    compiled        = Sun_Jun_30_05:21:11_2019
    source          = /home/list1234/source/nwchem-6.8.1-release
    nwchem branch   = Development
    nwchem revision = N/A
    ga revision     = 5.6.5
    use scalapack   = T
    input           = /home/list1234/source/nwchem-6.8.1-release/QA/tests/tce_uhf_uccsd/tce_uhf_uccsd.nw
    prefix          = tce_uhf_uccsd.
    data base       = ./tce_uhf_uccsd.db
    status          = startup
    nproc           =        4
    time left       =     -1s



           Memory information
           ------------------

    heap     =   86247164 doubles =    658.0 Mbytes
    stack    =   86247169 doubles =    658.0 Mbytes
    global   =  172494336 doubles =   1316.0 Mbytes (distinct from heap & stack)
    total    =  344988669 doubles =   2632.1 Mbytes
    verify   = yes
    hardfail = no 


           Directory information
           ---------------------

  0 permanent = .
  0 scratch   = .




                                NWChem Input Module
                                -------------------



 Scaling coordinates for geometry "geometry" by  1.889725989
 (inverse scale =  0.529177249)

 C2V symmetry detected


                             Geometry "geometry" -> ""
                             -------------------------

 Output coordinates in angstroms (scale by  1.889725989 to convert to a.u.)

  No.       Tag          Charge          X              Y              Z
 ---- ---------------- ---------- -------------- -------------- --------------
    1 H                    1.0000     0.75649032     0.00000000     0.47282801
    2 O                    8.0000     0.00000000     0.00000000    -0.11820700
    3 H                    1.0000    -0.75649032     0.00000000     0.47282801

      Atomic Mass 
      ----------- 

      H                  1.007825
      O                 15.994910


 Effective nuclear repulsion energy (a.u.)       9.1693789250

            Nuclear Dipole moment (a.u.) 
            ----------------------------
        X                 Y               Z
 ---------------- ---------------- ----------------
     0.0000000000     0.0000000000     0.0000000000

      Symmetry information
      --------------------

 Group name             C2v       
 Group number             16
 Group order               4
 No. of unique centers     2

      Symmetry unique atoms

     1    2



                                Z-matrix (user)
                                -------- 

 Units are Angstrom for bonds and degrees for angles

      Type          Name      I     J     K     L     M      Value
      ----------- --------  ----- ----- ----- ----- ----- ----------
    1 Stretch                  2     1                       0.96000
    2 Stretch                  3     2                       0.96000
    3 Bend                     3     2     1               104.00000


            XYZ format geometry
            -------------------
     3
 geometry
 H                     0.75649032     0.00000000     0.47282801
 O                     0.00000000     0.00000000    -0.11820700
 H                    -0.75649032     0.00000000     0.47282801

 ==============================================================================
                                internuclear distances
 ------------------------------------------------------------------------------
       center one      |      center two      | atomic units |  angstroms
 ------------------------------------------------------------------------------
    2 O                |   1 H                |     1.81414  |     0.96000
    3 H                |   2 O                |     1.81414  |     0.96000
 ------------------------------------------------------------------------------
                         number of included internuclear distances:          2
 ==============================================================================



 ==============================================================================
                                 internuclear angles
 ------------------------------------------------------------------------------
        center 1       |       center 2       |       center 3       |  degrees
 ------------------------------------------------------------------------------
    1 H                |   2 O                |   3 H                |   104.00
 ------------------------------------------------------------------------------
                            number of included internuclear angles:          1
 ==============================================================================





 Summary of "ao basis" -> "" (cartesian)
 ------------------------------------------------------------------------------
       Tag                 Description            Shells   Functions and Types
 ---------------- ------------------------------  ------  ---------------------
 *                           sto-3g                   on all atoms 


                      Basis "ao basis" -> "ao basis" (cartesian)
                      -----
  H (Hydrogen)
  ------------
            Exponent  Coefficients 
       -------------- ---------------------------------------------------------
  1 S  3.42525091E+00  0.154329
  1 S  6.23913730E-01  0.535328
  1 S  1.68855400E-01  0.444635

  O (Oxygen)
  ----------
            Exponent  Coefficients 
       -------------- ---------------------------------------------------------
  1 S  1.30709320E+02  0.154329
  1 S  2.38088610E+01  0.535328
  1 S  6.44360830E+00  0.444635

  2 S  5.03315130E+00 -0.099967
  2 S  1.16959610E+00  0.399513
  2 S  3.80389000E-01  0.700115

  3 P  5.03315130E+00  0.155916
  3 P  1.16959610E+00  0.607684
  3 P  3.80389000E-01  0.391957



 Summary of "ao basis" -> "ao basis" (cartesian)
 ------------------------------------------------------------------------------
       Tag                 Description            Shells   Functions and Types
 ---------------- ------------------------------  ------  ---------------------
 H                           sto-3g                  1        1   1s
 O                           sto-3g                  3        5   2s1p


                                 NWChem SCF Module
                                 -----------------



  ao basis        = "ao basis"
  functions       =     7
  atoms           =     3
  alpha electrons =     5
  beta  electrons =     4
  charge          =   1.00
  wavefunction    = UHF 
  input vectors   = atomic
  output vectors  = ./tce_uhf_uccsd.movecs
  use symmetry    = T
  symmetry adapt  = T


 Summary of "ao basis" -> "ao basis" (cartesian)
 ------------------------------------------------------------------------------
       Tag                 Description            Shells   Functions and Types
 ---------------- ------------------------------  ------  ---------------------
 H                           sto-3g                  1        1   1s
 O                           sto-3g                  3        5   2s1p


      Symmetry analysis of basis
      --------------------------

        a1          4
        a2          0
        b1          2
        b2          1


 Forming initial guess at       0.0s


      Superposition of Atomic Density Guess
      -------------------------------------

 Sum of atomic energies:         -74.71095592

 Renormalizing density from      10.00 to      9

      Non-variational initial energy
      ------------------------------

 Total energy =     -69.703127
 1-e energy   =    -109.566527
 2-e energy   =      30.694021
 HOMO         =      -0.977577
 LUMO         =      -0.045178


   Symmetry analysis of molecular orbitals - initial alpha
   -------------------------------------------------------

  Numbering of irreducible representations: 

     1 a1          2 a2          3 b1          4 b2      

  Orbital symmetries:

     1 a1          2 a1          3 b1          4 a1          5 b2      
     6 a1          7 b1      


   Symmetry analysis of molecular orbitals - initial beta
   ------------------------------------------------------

  Numbering of irreducible representations: 

     1 a1          2 a2          3 b1          4 b2      

  Orbital symmetries:

     1 a1          2 a1          3 b1          4 a1          5 b2      
     6 a1          7 b1      


 Starting SCF solution at       0.0s



 ----------------------------------------------
         Quadratically convergent UHF

 Convergence threshold     :          1.000E-10
 Maximum no. of iterations :           30
 Integral*density screening:          1.000E-10
 ----------------------------------------------


              iter       energy          gnorm     gmax       time
             ----- ------------------- --------- --------- --------
                 1      -74.6111008566  5.01D-01  3.10D-01      0.1
                 2      -74.6557545858  5.38D-02  4.67D-02      0.1
                 3      -74.6564707294  5.81D-04  4.98D-04      0.1
                 4      -74.6564708405  7.49D-08  5.50D-08      0.2
                 5      -74.6564708405  2.64D-12  1.78D-12      0.2


       Final UHF  results 
       ------------------ 

         Total SCF energy =    -74.656470840494
      One electron energy =   -116.386494108007
      Two electron energy =     32.560644342527
 Nuclear repulsion energy =      9.169378924986

                       Sz =      0.5000
                 Sz(Sz+1) =      0.7500
                      S^2 =      0.7553

        Time for solution =      0.1s



       Symmetry analysis of molecular orbitals - alpha
       -----------------------------------------------

  Numbering of irreducible representations: 

     1 a1          2 a2          3 b1          4 b2      

  Orbital symmetries:

     1 a1          2 a1          3 b1          4 b2          5 a1      
     6 a1          7 b1      


       Symmetry analysis of molecular orbitals - beta
       ----------------------------------------------

  Numbering of irreducible representations: 

     1 a1          2 a2          3 b1          4 b2      

  Orbital symmetries:

     1 a1          2 a1          3 b1          4 a1          5 b2      
     6 a1          7 b1      

          Final alpha eigenvalues
          -----------------------

              1      
    1  -21.0334
    2   -1.9271
    3   -1.1981
    4   -1.1145
    5   -1.0682
    6    0.0841
    7    0.1959

          Final beta eigenvalues
          ----------------------

              1      
    1  -21.0025
    2   -1.7568
    3   -1.1557
    4   -1.0087
    5   -0.2263
    6    0.1164
    7    0.2161

                    UHF Final Alpha Molecular Orbital Analysis
                    ------------------------------------------

 Vector    2  Occ=1.000000D+00  E=-1.927070D+00  Symmetry=a1
              MO Center= -5.1D-17,  4.2D-17,  4.9D-02, r^2= 4.7D-01
   Bfn.  Coefficient  Atom+Function         Bfn.  Coefficient  Atom+Function  
  ----- ------------  ---------------      ----- ------------  ---------------
     3      0.915779  2 O  s                  2     -0.245351  2 O  s          
     6      0.172695  2 O  pz         

 Vector    3  Occ=1.000000D+00  E=-1.198124D+00  Symmetry=b1
              MO Center=  6.7D-17, -2.4D-32,  4.9D-02, r^2= 6.9D-01
   Bfn.  Coefficient  Atom+Function         Bfn.  Coefficient  Atom+Function  
  ----- ------------  ---------------      ----- ------------  ---------------
     4      0.741982  2 O  px                 1      0.321359  1 H  s          
     7     -0.321359  3 H  s          

 Vector    4  Occ=1.000000D+00  E=-1.114530D+00  Symmetry=b2
              MO Center= -3.3D-32,  2.1D-16, -1.2D-01, r^2= 4.2D-01
   Bfn.  Coefficient  Atom+Function         Bfn.  Coefficient  Atom+Function  
  ----- ------------  ---------------      ----- ------------  ---------------
     5      1.000000  2 O  py         

 Vector    5  Occ=1.000000D+00  E=-1.068246D+00  Symmetry=a1
              MO Center= -5.5D-17, -2.5D-16, -2.0D-01, r^2= 5.2D-01
   Bfn.  Coefficient  Atom+Function         Bfn.  Coefficient  Atom+Function  
  ----- ------------  ---------------      ----- ------------  ---------------
     6      0.857045  2 O  pz                 3     -0.421580  2 O  s          
     1      0.187765  1 H  s                  7      0.187765  3 H  s          

 Vector    6  Occ=0.000000D+00  E= 8.407048D-02  Symmetry=a1
              MO Center= -7.4D-17,  3.1D-18,  4.6D-01, r^2= 1.2D+00
   Bfn.  Coefficient  Atom+Function         Bfn.  Coefficient  Atom+Function  
  ----- ------------  ---------------      ----- ------------  ---------------
     3     -0.860725  2 O  s                  1      0.831783  1 H  s          
     7      0.831783  3 H  s                  6     -0.638113  2 O  pz         

 Vector    7  Occ=0.000000D+00  E= 1.958945D-01  Symmetry=b1
              MO Center=  1.7D-16, -2.8D-32,  3.3D-01, r^2= 1.1D+00
   Bfn.  Coefficient  Atom+Function         Bfn.  Coefficient  Atom+Function  
  ----- ------------  ---------------      ----- ------------  ---------------
     1      0.891607  1 H  s                  4     -0.890580  2 O  px         
     7     -0.891607  3 H  s          


                     UHF Final Beta Molecular Orbital Analysis
                     -----------------------------------------

 Vector    2  Occ=1.000000D+00  E=-1.756844D+00  Symmetry=a1
              MO Center=  2.1D-17, -2.9D-17,  9.0D-02, r^2= 5.1D-01
   Bfn.  Coefficient  Atom+Function         Bfn.  Coefficient  Atom+Function  
  ----- ------------  ---------------      ----- ------------  ---------------
     3      0.848240  2 O  s                  2     -0.232457  2 O  s          
     6      0.180225  2 O  pz         

 Vector    3  Occ=1.000000D+00  E=-1.155729D+00  Symmetry=b1
              MO Center= -3.9D-17,  5.0D-35,  8.0D-02, r^2= 7.4D-01
   Bfn.  Coefficient  Atom+Function         Bfn.  Coefficient  Atom+Function  
  ----- ------------  ---------------      ----- ------------  ---------------
     4      0.698050  2 O  px                 1      0.364097  1 H  s          
     7     -0.364097  3 H  s          

 Vector    4  Occ=1.000000D+00  E=-1.008677D+00  Symmetry=a1
              MO Center=  2.6D-18,  9.7D-20, -2.3D-01, r^2= 5.2D-01
   Bfn.  Coefficient  Atom+Function         Bfn.  Coefficient  Atom+Function  
  ----- ------------  ---------------      ----- ------------  ---------------
     6      0.838701  2 O  pz                 3     -0.477727  2 O  s          
     1      0.194751  1 H  s                  7      0.194751  3 H  s          

 Vector    5  Occ=0.000000D+00  E=-2.263078D-01  Symmetry=b2
              MO Center=  9.1D-33,  2.3D-17, -1.2D-01, r^2= 4.2D-01
   Bfn.  Coefficient  Atom+Function         Bfn.  Coefficient  Atom+Function  
  ----- ------------  ---------------      ----- ------------  ---------------
     5      1.000000  2 O  py         

 Vector    6  Occ=0.000000D+00  E= 1.163539D-01  Symmetry=a1
              MO Center=  8.0D-17,  6.2D-18,  4.4D-01, r^2= 1.1D+00
   Bfn.  Coefficient  Atom+Function         Bfn.  Coefficient  Atom+Function  
  ----- ------------  ---------------      ----- ------------  ---------------
     3     -0.899793  2 O  s                  1      0.823079  1 H  s          
     7      0.823079  3 H  s                  6     -0.660032  2 O  pz         

 Vector    7  Occ=0.000000D+00  E= 2.161383D-01  Symmetry=b1
              MO Center= -1.1D-16, -1.5D-33,  3.0D-01, r^2= 1.1D+00
   Bfn.  Coefficient  Atom+Function         Bfn.  Coefficient  Atom+Function  
  ----- ------------  ---------------      ----- ------------  ---------------
     4     -0.925417  2 O  px                 1      0.875025  1 H  s          
     7     -0.875025  3 H  s          


 center of mass
 --------------
 x =   0.00000000 y =   0.00000000 z =  -0.09838174

 moments of inertia (a.u.)
 ------------------
           2.233026115219           0.000000000000           0.000000000000
           0.000000000000           6.352289379063           0.000000000000
           0.000000000000           0.000000000000           4.119263263844

  Mulliken analysis of the total density
  --------------------------------------

    Atom       Charge   Shell Charges
 -----------   ------   -------------------------------------------------------
    1 H    1     0.55   0.55
    2 O    8     7.90   2.00  1.88  4.02
    3 H    1     0.55   0.55

  Mulliken analysis of the alpha density
  --------------------------------------

    Atom       Charge   Shell Charges
 -----------   ------   -------------------------------------------------------
    1 H    1     0.25   0.25
    2 O    8     4.51   1.00  0.96  2.55
    3 H    1     0.25   0.25

   Mulliken analysis of the beta density
   -------------------------------------

    Atom       Charge   Shell Charges
 -----------   ------   -------------------------------------------------------
    1 H    1     0.31   0.31
    2 O    8     3.39   1.00  0.92  1.47
    3 H    1     0.31   0.31

   Mulliken analysis of the spin density
   -------------------------------------

    Atom       Charge   Shell Charges
 -----------   ------   -------------------------------------------------------
    1 H    1    -0.06  -0.06
    2 O    8     1.12   0.00  0.04  1.08
    3 H    1    -0.06  -0.06

       Multipole analysis of the density wrt the origin
       ------------------------------------------------

     L   x y z        total         alpha         beta         nuclear
     -   - - -        -----         -----         ----         -------
     0   0 0 0      1.000000     -5.000000     -4.000000     10.000000

     1   1 0 0      0.000000      0.000000     -0.000000      0.000000
     1   0 1 0      0.000000      0.000000      0.000000      0.000000
     1   0 0 1      0.973562      0.641303      0.332259      0.000000

     2   2 0 0     -1.801445     -2.980812     -2.907913      4.087280
     2   1 1 0      0.000000      0.000000      0.000000      0.000000
     2   1 0 1      0.000000      0.000000      0.000000      0.000000
     2   0 2 0     -3.478350     -2.168672     -1.309678      0.000000
     2   0 1 1     -0.000000     -0.000000     -0.000000      0.000000
     2   0 0 2     -3.135412     -2.684261     -2.447075      1.995924

                   NWChem Extensible Many-Electron Theory Module
                   ---------------------------------------------

              ======================================================
                   This portion of the program was automatically
                  generated by a Tensor Contraction Engine (TCE).
                  The development of this portion of the program
                 and TCE was supported by US Department of Energy,
                Office of Science, Office of Basic Energy Science.
                      TCE is a product of Battelle and PNNL.
              Please cite: S.Hirata, J.Phys.Chem.A 107, 9887 (2003).
              ======================================================

            General Information
            -------------------
      Number of processors :     4
         Wavefunction type : Unrestricted Hartree-Fock
          No. of electrons :     9
           Alpha electrons :     5
            Beta electrons :     4
           No. of orbitals :    14
            Alpha orbitals :     7
             Beta orbitals :     7
        Alpha frozen cores :     0
         Beta frozen cores :     0
     Alpha frozen virtuals :     0
      Beta frozen virtuals :     0
         Spin multiplicity : doublet 
    Number of AO functions :     7
       Number of AO shells :     5
        Use of symmetry is : on 
      Symmetry adaption is : on 
         Schwarz screening : 0.10D-09

          Correlation Information
          -----------------------
          Calculation type : Coupled-cluster singles & doubles                           
   Perturbative correction : none                                                        
            Max iterations :      100
        Residual threshold : 0.10D-06
     T(0) DIIS level shift : 0.00D+00
     L(0) DIIS level shift : 0.00D+00
     T(1) DIIS level shift : 0.00D+00
     L(1) DIIS level shift : 0.00D+00
     T(R) DIIS level shift : 0.00D+00
     T(I) DIIS level shift : 0.00D+00
   CC-T/L Amplitude update :  5-th order DIIS
                I/O scheme : Global Array Library
        L-threshold :  0.10D-06
        EOM-threshold :  0.10D-06
 no EOMCCSD initial starts read in
 TCE RESTART OPTIONS
 READ_INT:   F
 WRITE_INT:  F
 READ_TA:    F
 WRITE_TA:   F
 READ_XA:    F
 WRITE_XA:   F
 READ_IN3:   F
 WRITE_IN3:  F
 SLICE:      F
 D4D5:       F

            Memory Information
            ------------------
          Available GA space size is     689977246 doubles
          Available MA space size is     172493516 doubles

 Maximum block size        32 doubles

 tile_dim =      3

 Block   Spin    Irrep     Size     Offset   Alpha
 -------------------------------------------------
   1    alpha     a1     3 doubles       0       1
   2    alpha     b1     1 doubles       3       2
   3    alpha     b2     1 doubles       4       3
   4    beta      a1     3 doubles       5       4
   5    beta      b1     1 doubles       8       5
   6    alpha     a1     1 doubles       9       6
   7    alpha     b1     1 doubles      10       7
   8    beta      a1     1 doubles      11       8
   9    beta      b1     1 doubles      12       9
  10    beta      b2     1 doubles      13      10

 Global array virtual files algorithm will be used

 Parallel file system coherency ......... OK

 Fock matrix recomputed
 1-e file size   =               42
 1-e file name   = ./tce_uhf_uccsd.f1
 Cpu & wall time / sec            0.0            0.0

 tce_ao2e: fast2e=1
 half-transformed integrals in memory

 2-e (intermediate) file size =            5439
 2-e (intermediate) file name = ./tce_uhf_uccsd.v2i
 Cpu & wall time / sec            0.0            0.0

 tce_mo2e: fast2e=1
 2-e integrals stored in memory

 2-e file size   =             1523
 2-e file name   = ./tce_uhf_uccsd.v2
 Cpu & wall time / sec            0.0            0.0
 T1-number-of-tasks                    4

 t1 file size   =                8
 t1 file name   = ./tce_uhf_uccsd.t1
 t1 file handle =       -998
 T2-number-of-boxes                   24

 t2 file size   =               94
 t2 file name   = ./tce_uhf_uccsd.t2
 t2 file handle =       -995

 CCSD iterations
 -----------------------------------------------------------------
 Iter          Residuum       Correlation     Cpu    Wall    V2*C2
 -----------------------------------------------------------------
    1   0.0813384350571  -0.0278255482349     0.0     0.0     0.0
    2   0.0304483881578  -0.0352649380167     0.0     0.0     0.0
    3   0.0149655407766  -0.0375243966722     0.0     0.0     0.0
    4   0.0085686196917  -0.0383898865873     0.0     0.0     0.0
    5   0.0053348947161  -0.0387676630596     0.0     0.0     0.0
 MICROCYCLE DIIS UPDATE:                    5                    5
    6   0.0004598644582  -0.0391841459324     0.0     0.0     0.0
    7   0.0002353838319  -0.0391862689516     0.0     0.0     0.0
    8   0.0001436616608  -0.0391871563951     0.0     0.0     0.0
    9   0.0000915039670  -0.0391875144583     0.0     0.0     0.0
   10   0.0000596263463  -0.0391877016419     0.0     0.0     0.0
 MICROCYCLE DIIS UPDATE:                   10                    5
   11   0.0000055786270  -0.0391879932443     0.0     0.0     0.0
   12   0.0000029123012  -0.0391882977628     0.0     0.0     0.0
   13   0.0000018012071  -0.0391884208502     0.0     0.0     0.0
   14   0.0000011560851  -0.0391884781868     0.0     0.0     0.0
   15   0.0000007530327  -0.0391885082188     0.0     0.0     0.0
 MICROCYCLE DIIS UPDATE:                   15                    5
   16   0.0000000538847  -0.0391885526545     0.0     0.0     0.0
 -----------------------------------------------------------------
 Iterations converged
 CCSD correlation energy / hartree =        -0.039188552654468
 CCSD total energy / hartree       =       -74.695659393148915

 Singles contributions

 Doubles contributions

 Task  times  cpu:        0.4s     wall:        0.4s


                                NWChem Input Module
                                -------------------


 Summary of allocated global arrays
-----------------------------------
  No active global arrays



                         GA Statistics for process    0
                         ------------------------------

       create   destroy   get      put      acc     scatter   gather  read&inc
calls: 2758     2758     1.98e+04 3086     1.04e+04  137        0     1.25e+04 
number of processes/call 1.13e+00 1.11e+00 1.15e+00 0.00e+00 0.00e+00
bytes total:             1.23e+06 2.76e+05 7.04e+05 0.00e+00 0.00e+00 1.00e+05
bytes remote:            5.19e+05 5.22e+04 3.49e+05 -9.60e+01 0.00e+00 0.00e+00
Max memory consumed for GA by this process: 14808 bytes

MA_summarize_allocated_blocks: starting scan ...
MA_summarize_allocated_blocks: scan completed: 0 heap blocks, 0 stack blocks
MA usage statistics:

	allocation statistics:
					      heap	     stack
					      ----	     -----
	current number of blocks	         0	         0
	maximum number of blocks	        17	        30
	current total bytes		         0	         0
	maximum total bytes		     80136	  22509416
	maximum total K-bytes		        81	     22510
	maximum total M-bytes		         1	        23


                                     CITATION
                                     --------
                Please cite the following reference when publishing
                           results obtained with NWChem:

                 M. Valiev, E.J. Bylaska, N. Govind, K. Kowalski,
              T.P. Straatsma, H.J.J. van Dam, D. Wang, J. Nieplocha,
                        E. Apra, T.L. Windus, W.A. de Jong
                 "NWChem: a comprehensive and scalable open-source
                  solution for large scale molecular simulations"
                      Comput. Phys. Commun. 181, 1477 (2010)
                           doi:10.1016/j.cpc.2010.04.018

                                      AUTHORS
                                      -------
          E. Apra, E. J. Bylaska, W. A. de Jong, N. Govind, K. Kowalski,
       T. P. Straatsma, M. Valiev, H. J. J. van Dam, D. Wang, T. L. Windus,
        J. Hammond, J. Autschbach, K. Bhaskaran-Nair, J. Brabec, K. Lopata,
    S. A. Fischer, S. Krishnamoorthy, M. Jacquelin, W. Ma, M. Klemm, O. Villa,
      Y. Chen, V. Anisimov, F. Aquino, S. Hirata, M. T. Hackler, V. Konjkov,
            D. Mejia-Rodriguez, T. Risthaus, M. Malagoli, A. Marenich,
   A. Otero-de-la-Roza, J. Mullin, P. Nichols, R. Peverati, J. Pittner, Y. Zhao,
        P.-D. Fan, A. Fonari, M. J. Williamson, R. J. Harrison, J. R. Rehr,
      M. Dupuis, D. Silverstein, D. M. A. Smith, J. Nieplocha, V. Tipparaju,
    M. Krishnan, B. E. Van Kuiken, A. Vazquez-Mayagoitia, L. Jensen, M. Swart,
      Q. Wu, T. Van Voorhis, A. A. Auer, M. Nooijen, L. D. Crosby, E. Brown,
      G. Cisneros, G. I. Fann, H. Fruchtl, J. Garza, K. Hirao, R. A. Kendall,
      J. A. Nichols, K. Tsemekhman, K. Wolinski, J. Anchell, D. E. Bernholdt,
      P. Borowski, T. Clark, D. Clerc, H. Dachsel, M. J. O. Deegan, K. Dyall,
    D. Elwood, E. Glendening, M. Gutowski, A. C. Hess, J. Jaffe, B. G. Johnson,
     J. Ju, R. Kobayashi, R. Kutteh, Z. Lin, R. Littlefield, X. Long, B. Meng,
      T. Nakajima, S. Niu, L. Pollack, M. Rosing, K. Glaesemann, G. Sandrone,
      M. Stave, H. Taylor, G. Thomas, J. H. van Lenthe, A. T. Wong, Z. Zhang.

 Total times  cpu:        0.4s     wall:        0.4s
