 argument  1 = /home/list1234/source/nwchem-6.8.1-release/QA/tests/tddft_ac_co/tddft_ac_co.nw



============================== echo of input deck ==============================
#
# Test for Casida-Salahub asymptotic correction
# Casida, Salahub JCP 113, 8918 (2000).
# CO AC-LDA -HOMO = 13.78 eV (different geometry, different basis set)
# CO Delta SCF IP = 14.10 eV versus -HOMO = 9.10 eV (shift = 5.00 eV)
# Tozer, Handy, JCP 109, 10180 (1998).
# Experimental vertical excitation energies of CO
# Singlet: 8.51, 9.88, 10.23, 10.78, 11.40, 11.53, 12.4 eV
# Triplet: 6.32, 8.51, 9.36, 9.88, 10.4, 11.3, 11.55 eV
#
# turned off autsym since c4v is non-abelian
# imposed c2v abelian group
#
start tddft_ac_co

echo

charge 0

geometry
O 0.0 0.0  0.0000
C 0.0 0.0  1.1283
symmetry c2v
end

basis spherical
C library aug-cc-pVDZ
O library aug-cc-pVDZ
end

dft
xc slater vwn_5
cs00 0.1837
end

tddft
nroots 12
end

task tddft energy
================================================================================


                                         
                                         


              Northwest Computational Chemistry Package (NWChem) 6.8
              ------------------------------------------------------


                    Environmental Molecular Sciences Laboratory
                       Pacific Northwest National Laboratory
                                Richland, WA 99352

                              Copyright (c) 1994-2018
                       Pacific Northwest National Laboratory
                            Battelle Memorial Institute

             NWChem is an open-source computational chemistry package
                        distributed under the terms of the
                      Educational Community License (ECL) 2.0
             A copy of the license is included with this distribution
                              in the LICENSE.TXT file

                                  ACKNOWLEDGMENT
                                  --------------

            This software and its documentation were developed at the
            EMSL at Pacific Northwest National Laboratory, a multiprogram
            national laboratory, operated for the U.S. Department of Energy
            by Battelle under Contract Number DE-AC05-76RL01830. Support
            for this work was provided by the Department of Energy Office
            of Biological and Environmental Research, Office of Basic
            Energy Sciences, and the Office of Advanced Scientific Computing.


           Job information
           ---------------

    hostname        = list1234-B360M-H
    program         = /home/list1234/source/nwchem-6.8.1-release/bin/LINUX64/nwchem
    date            = Sun Jun 30 06:07:42 2019

    compiled        = Sun_Jun_30_05:21:11_2019
    source          = /home/list1234/source/nwchem-6.8.1-release
    nwchem branch   = Development
    nwchem revision = N/A
    ga revision     = 5.6.5
    use scalapack   = T
    input           = /home/list1234/source/nwchem-6.8.1-release/QA/tests/tddft_ac_co/tddft_ac_co.nw
    prefix          = tddft_ac_co.
    data base       = ./tddft_ac_co.db
    status          = startup
    nproc           =        4
    time left       =     -1s



           Memory information
           ------------------

    heap     =   86247164 doubles =    658.0 Mbytes
    stack    =   86247169 doubles =    658.0 Mbytes
    global   =  172494336 doubles =   1316.0 Mbytes (distinct from heap & stack)
    total    =  344988669 doubles =   2632.1 Mbytes
    verify   = yes
    hardfail = no 


           Directory information
           ---------------------

  0 permanent = .
  0 scratch   = .




                                NWChem Input Module
                                -------------------



 Scaling coordinates for geometry "geometry" by  1.889725989
 (inverse scale =  0.529177249)

 Turning off AUTOSYM since
 SYMMETRY directive was detected!


          ------
          auto-z
          ------
  no constraints, skipping    0.0000000000000000     
  no constraints, skipping    0.0000000000000000     


                             Geometry "geometry" -> ""
                             -------------------------

 Output coordinates in angstroms (scale by  1.889725989 to convert to a.u.)

  No.       Tag          Charge          X              Y              Z
 ---- ---------------- ---------- -------------- -------------- --------------
    1 O                    8.0000     0.00000000     0.00000000    -0.48355714
    2 C                    6.0000     0.00000000     0.00000000     0.64474286

      Atomic Mass 
      ----------- 

      O                 15.994910
      C                 12.000000


 Effective nuclear repulsion energy (a.u.)      22.5121935230

            Nuclear Dipole moment (a.u.) 
            ----------------------------
        X                 Y               Z
 ---------------- ---------------- ----------------
     0.0000000000     0.0000000000     0.0000000000

      Symmetry information
      --------------------

 Group name             C2v       
 Group number             16
 Group order               4
 No. of unique centers     2

      Symmetry unique atoms

     1    2



                                Z-matrix (autoz)
                                -------- 

 Units are Angstrom for bonds and degrees for angles

      Type          Name      I     J     K     L     M      Value
      ----------- --------  ----- ----- ----- ----- ----- ----------
    1 Stretch                  1     2                       1.12830


            XYZ format geometry
            -------------------
     2
 geometry
 O                     0.00000000     0.00000000    -0.48355714
 C                     0.00000000     0.00000000     0.64474286

 ==============================================================================
                                internuclear distances
 ------------------------------------------------------------------------------
       center one      |      center two      | atomic units |  angstroms
 ------------------------------------------------------------------------------
    2 C                |   1 O                |     2.13218  |     1.12830
 ------------------------------------------------------------------------------
                         number of included internuclear distances:          1
 ==============================================================================



                      Basis "ao basis" -> "" (spherical)
                      -----
  C (Carbon)
  ----------
            Exponent  Coefficients 
       -------------- ---------------------------------------------------------
  1 S  6.66500000E+03  0.000692
  1 S  1.00000000E+03  0.005329
  1 S  2.28000000E+02  0.027077
  1 S  6.47100000E+01  0.101718
  1 S  2.10600000E+01  0.274740
  1 S  7.49500000E+00  0.448564
  1 S  2.79700000E+00  0.285074
  1 S  5.21500000E-01  0.015204

  2 S  6.66500000E+03 -0.000146
  2 S  1.00000000E+03 -0.001154
  2 S  2.28000000E+02 -0.005725
  2 S  6.47100000E+01 -0.023312
  2 S  2.10600000E+01 -0.063955
  2 S  7.49500000E+00 -0.149981
  2 S  2.79700000E+00 -0.127262
  2 S  5.21500000E-01  0.544529

  3 S  1.59600000E-01  1.000000

  4 S  4.69000000E-02  1.000000

  5 P  9.43900000E+00  0.038109
  5 P  2.00200000E+00  0.209480
  5 P  5.45600000E-01  0.508557

  6 P  1.51700000E-01  1.000000

  7 P  4.04100000E-02  1.000000

  8 D  5.50000000E-01  1.000000

  9 D  1.51000000E-01  1.000000

  O (Oxygen)
  ----------
            Exponent  Coefficients 
       -------------- ---------------------------------------------------------
  1 S  1.17200000E+04  0.000710
  1 S  1.75900000E+03  0.005470
  1 S  4.00800000E+02  0.027837
  1 S  1.13700000E+02  0.104800
  1 S  3.70300000E+01  0.283062
  1 S  1.32700000E+01  0.448719
  1 S  5.02500000E+00  0.270952
  1 S  1.01300000E+00  0.015458

  2 S  1.17200000E+04 -0.000160
  2 S  1.75900000E+03 -0.001263
  2 S  4.00800000E+02 -0.006267
  2 S  1.13700000E+02 -0.025716
  2 S  3.70300000E+01 -0.070924
  2 S  1.32700000E+01 -0.165411
  2 S  5.02500000E+00 -0.116955
  2 S  1.01300000E+00  0.557368

  3 S  3.02300000E-01  1.000000

  4 S  7.89600000E-02  1.000000

  5 P  1.77000000E+01  0.043018
  5 P  3.85400000E+00  0.228913
  5 P  1.04600000E+00  0.508728

  6 P  2.75300000E-01  1.000000

  7 P  6.85600000E-02  1.000000

  8 D  1.18500000E+00  1.000000

  9 D  3.32000000E-01  1.000000



 Summary of "ao basis" -> "" (spherical)
 ------------------------------------------------------------------------------
       Tag                 Description            Shells   Functions and Types
 ---------------- ------------------------------  ------  ---------------------
 C                        aug-cc-pVDZ                9       23   4s3p2d
 O                        aug-cc-pVDZ                9       23   4s3p2d



                                 NWChem DFT Module
                                 -----------------




 Summary of "ao basis" -> "ao basis" (spherical)
 ------------------------------------------------------------------------------
       Tag                 Description            Shells   Functions and Types
 ---------------- ------------------------------  ------  ---------------------
 C                        aug-cc-pVDZ                9       23   4s3p2d
 O                        aug-cc-pVDZ                9       23   4s3p2d


      Symmetry analysis of basis
      --------------------------

        a1         22
        a2          4
        b1         10
        b2         10

  Caching 1-el integrals 

            General Information
            -------------------
          SCF calculation type: DFT
          Wavefunction type:  closed shell.
          No. of atoms     :     2
          No. of electrons :    14
           Alpha electrons :     7
            Beta electrons :     7
          Charge           :     0
          Spin multiplicity:     1
          Use of symmetry is: off; symmetry adaption is: on 
          Maximum number of iterations:  30
          AO basis - number of functions:    46
                     number of shells:    18
          Convergence on energy requested:  1.00D-06
          Convergence on density requested:  1.00D-05
          Convergence on gradient requested:  5.00D-04

              XC Information
              --------------
                        Slater Exchange Functional  1.000 local    
                      VWN V Correlation Functional  1.000 local    

            Casida-Salahub correction with a shift       0.183700 au

             Grid Information
             ----------------
          Grid used for XC integration:  medium    
          Radial quadrature: Mura-Knowles        
          Angular quadrature: Lebedev. 
          Tag              B.-S. Rad. Rad. Pts. Rad. Cut. Ang. Pts.
          ---              ---------- --------- --------- ---------
          O                   0.60       49           9.0       434
          C                   0.70       49           8.0       434
          Grid pruning is: on 
          Number of quadrature shells:    98
          Spatial weights used:  Erf1

          Convergence Information
          -----------------------
          Convergence aids based upon iterative change in 
          total energy or number of iterations. 
          Levelshifting, if invoked, occurs when the 
          HOMO/LUMO gap drops below (HL_TOL):  1.00D-02
          DIIS, if invoked, will attempt to extrapolate 
          using up to (NFOCK): 10 stored Fock matrices.

                    Damping( 0%)  Levelshifting(0.5)       DIIS
                  --------------- ------------------- ---------------
          dE  on:    start            ASAP                start   
          dE off:    2 iters         30 iters            30 iters 


      Screening Tolerance Information
      -------------------------------
          Density screening/tol_rho:  1.00D-10
          AO Gaussian exp screening on grid/accAOfunc:  14
          CD Gaussian exp screening on grid/accCDfunc:  20
          XC Gaussian exp screening on grid/accXCfunc:  20
          Schwarz screening/accCoul:  1.00D-08


      Superposition of Atomic Density Guess
      -------------------------------------

 Sum of atomic energies:        -112.43383664

      Non-variational initial energy
      ------------------------------

 Total energy =    -112.864338
 1-e energy   =    -197.551791
 2-e energy   =      62.175259
 HOMO         =      -0.391857
 LUMO         =       0.019273


      Symmetry analysis of molecular orbitals - initial
      -------------------------------------------------


 !! scf_movecs_sym_adapt:   28 vectors were symmetry contaminated

  Symmetry fudging

 !! scf_movecs_sym_adapt:   28 vectors were symmetry contaminated

  Numbering of irreducible representations: 

     1 a1          2 a2          3 b1          4 b2      

  Orbital symmetries:

     1 a1          2 a1          3 a1          4 a1          5 b1      
     6 b2          7 a1          8 b1          9 b2         10 a1      
    11 a1         12 b1         13 b2         14 a1         15 b1      
    16 b2         17 a1      

   Time after variat. SCF:      0.1
   Time prior to 1st pass:      0.1

 Grid_pts file          = ./tddft_ac_co.gridpts.0
 Record size in doubles =  12289        No. of grid_pts per rec  =   3070
 Max. records in memory =      5        Max. recs in file   = 253312716


           Memory utilization after 1st SCF pass: 
           Heap Space remaining (MW):       51.75            51747500
          Stack Space remaining (MW):       86.25            86246804

   convergence    iter        energy       DeltaE   RMS-Dens  Diis-err    time
 ---------------- ----- ----------------- --------- --------- ---------  ------
 d= 0,ls=0.0,diis     1   -112.3719555369 -1.35D+02  2.73D-02  5.58D-01     0.2
 d= 0,ls=0.0,diis     2   -112.0024140703  3.70D-01  1.79D-02  4.64D+00     0.3
 d= 0,ls=0.0,diis     3   -112.4292512297 -4.27D-01  1.57D-03  2.86D-02     0.4
 d= 0,ls=0.0,diis     4   -112.4302312876 -9.80D-04  6.76D-04  2.52D-03     0.4
 d= 0,ls=0.0,diis     5   -112.4314910464 -1.26D-03  1.06D-04  1.96D-05     0.5
  Resetting Diis
 d= 0,ls=0.0,diis     6   -112.4314324139  5.86D-05  1.43D-05  1.20D-06     0.6
 d= 0,ls=0.0,diis     7   -112.4314286124  3.80D-06  8.06D-06  5.59D-08     0.7
 d= 0,ls=0.0,diis     8   -112.4314220057  6.61D-06  5.90D-06  5.91D-07     0.8
 d= 0,ls=0.0,diis     9   -112.4314265424 -4.54D-06  3.34D-07  6.38D-10     0.8
 d= 0,ls=0.0,diis    10   -112.4314268917 -3.49D-07  5.10D-08  1.57D-11     0.9


         Total DFT energy =     -112.431426891667
      One electron energy =     -197.978592225909
           Coulomb energy =       75.984182836696
    Exchange-Corr. energy =      -12.949211025440
 Nuclear repulsion energy =       22.512193522986

 Numeric. integr. density =       14.000000555258

     Total iterative time =      0.8s



                  Occupations of the irreducible representations
                  ----------------------------------------------

                     irrep           alpha         beta
                     --------     --------     --------
                     a1                5.0          5.0
                     a2                0.0          0.0
                     b1                1.0          1.0
                     b2                1.0          1.0


                       DFT Final Molecular Orbital Analysis
                       ------------------------------------

 Vector    1  Occ=2.000000D+00  E=-1.892045D+01  Symmetry=a1
              MO Center= -1.4D-14,  9.1D-17, -4.8D-01, r^2= 1.5D-02
   Bfn.  Coefficient  Atom+Function         Bfn.  Coefficient  Atom+Function  
  ----- ------------  ---------------      ----- ------------  ---------------
     1      1.007153  1 O  s                  3     -0.028678  1 O  s          

 Vector    2  Occ=2.000000D+00  E=-1.011789D+01  Symmetry=a1
              MO Center= -3.2D-14, -8.7D-17,  6.4D-01, r^2= 2.8D-02
   Bfn.  Coefficient  Atom+Function         Bfn.  Coefficient  Atom+Function  
  ----- ------------  ---------------      ----- ------------  ---------------
    24      1.010412  2 C  s                 25      0.026009  2 C  s          

 Vector    3  Occ=2.000000D+00  E=-1.247122D+00  Symmetry=a1
              MO Center=  6.5D-11, -1.2D-14, -1.6D-01, r^2= 4.3D-01
   Bfn.  Coefficient  Atom+Function         Bfn.  Coefficient  Atom+Function  
  ----- ------------  ---------------      ----- ------------  ---------------
     2      0.413711  1 O  s                  3      0.333524  1 O  s          
    30     -0.230554  2 C  pz                25      0.228009  2 C  s          
     7      0.179279  1 O  pz                26      0.143784  2 C  s          
     4     -0.068891  1 O  s                 39      0.038839  2 C  d  0       
    13     -0.027234  1 O  pz                27      0.025058  2 C  s          

 Vector    4  Occ=2.000000D+00  E=-6.951882D-01  Symmetry=a1
              MO Center= -5.4D-25, -3.6D-28, -4.9D-01, r^2= 7.8D-01
   Bfn.  Coefficient  Atom+Function         Bfn.  Coefficient  Atom+Function  
  ----- ------------  ---------------      ----- ------------  ---------------
     7      0.488650  1 O  pz                 3     -0.434416  1 O  s          
    26      0.308250  2 C  s                 25      0.287323  2 C  s          
     2     -0.239630  1 O  s                 10      0.192721  1 O  pz         
     4     -0.187450  1 O  s                 30     -0.131640  2 C  pz         
    27      0.061638  2 C  s                 33     -0.027074  2 C  pz         

 Vector    5  Occ=2.000000D+00  E=-6.213805D-01  Symmetry=b2
              MO Center= -1.1D-26, -7.9D-15, -1.8D-01, r^2= 8.0D-01
   Bfn.  Coefficient  Atom+Function         Bfn.  Coefficient  Atom+Function  
  ----- ------------  ---------------      ----- ------------  ---------------
     6      0.558734  1 O  py                29      0.329145  2 C  py         
     9      0.317420  1 O  py                32      0.119712  2 C  py         
    38     -0.048346  2 C  d -1              12      0.035571  1 O  py         

 Vector    6  Occ=2.000000D+00  E=-6.213805D-01  Symmetry=b1
              MO Center= -8.2D-11,  3.1D-28, -1.8D-01, r^2= 8.0D-01
   Bfn.  Coefficient  Atom+Function         Bfn.  Coefficient  Atom+Function  
  ----- ------------  ---------------      ----- ------------  ---------------
     5      0.558734  1 O  px                28      0.329145  2 C  px         
     8      0.317420  1 O  px                31      0.119712  2 C  px         
    40      0.048346  2 C  d  1              11      0.035571  1 O  px         

 Vector    7  Occ=2.000000D+00  E=-5.067600D-01  Symmetry=a1
              MO Center=  6.3D-10, -7.9D-13,  8.7D-01, r^2= 1.1D+00
   Bfn.  Coefficient  Atom+Function         Bfn.  Coefficient  Atom+Function  
  ----- ------------  ---------------      ----- ------------  ---------------
    30      0.458267  2 C  pz                26      0.420955  2 C  s          
     7     -0.276637  1 O  pz                25      0.252808  2 C  s          
    33      0.198493  2 C  pz                 4      0.164792  1 O  s          
    10     -0.068125  1 O  pz                 2     -0.049677  1 O  s          
    39     -0.041817  2 C  d  0               3      0.039296  1 O  s          

 Vector    8  Occ=0.000000D+00  E=-2.550514D-01  Symmetry=b2
              MO Center=  2.7D-26,  4.5D-13,  4.5D-01, r^2= 1.5D+00
   Bfn.  Coefficient  Atom+Function         Bfn.  Coefficient  Atom+Function  
  ----- ------------  ---------------      ----- ------------  ---------------
    29      0.575543  2 C  py                32      0.551020  2 C  py         
     6     -0.411477  1 O  py                 9     -0.357847  1 O  py         
    12     -0.196183  1 O  py                35      0.185230  2 C  py         

 Vector    9  Occ=0.000000D+00  E=-2.550514D-01  Symmetry=b1
              MO Center= -3.4D-10, -7.8D-28,  4.5D-01, r^2= 1.5D+00
   Bfn.  Coefficient  Atom+Function         Bfn.  Coefficient  Atom+Function  
  ----- ------------  ---------------      ----- ------------  ---------------
    28      0.575543  2 C  px                31      0.551020  2 C  px         
     5     -0.411477  1 O  px                 8     -0.357847  1 O  px         
    11     -0.196183  1 O  px                34      0.185230  2 C  px         

 Vector   10  Occ=0.000000D+00  E=-1.224548D-01  Symmetry=a1
              MO Center=  9.7D-23,  1.3D-25, -6.0D-01, r^2= 6.6D+00
   Bfn.  Coefficient  Atom+Function         Bfn.  Coefficient  Atom+Function  
  ----- ------------  ---------------      ----- ------------  ---------------
    27      1.875582  2 C  s                  4     -1.025749  1 O  s          
    36     -0.584791  2 C  pz                 3     -0.466128  1 O  s          
    33     -0.418035  2 C  pz                13     -0.355858  1 O  pz         
    30     -0.144654  2 C  pz                 2     -0.119078  1 O  s          
    25     -0.104496  2 C  s                  7      0.072831  1 O  pz         

 Vector   11  Occ=0.000000D+00  E=-8.128780D-02  Symmetry=a1
              MO Center= -1.5D-22,  1.1D-25,  1.9D+00, r^2= 6.8D+00
   Bfn.  Coefficient  Atom+Function         Bfn.  Coefficient  Atom+Function  
  ----- ------------  ---------------      ----- ------------  ---------------
    27      0.915033  2 C  s                 36      0.858462  2 C  pz         
    26     -0.366290  2 C  s                  4     -0.326662  1 O  s          
    25     -0.147490  2 C  s                 33     -0.137430  2 C  pz         
     3      0.107396  1 O  s                 30     -0.098650  2 C  pz         
     2      0.083637  1 O  s                 13     -0.066662  1 O  pz         

 Vector   12  Occ=0.000000D+00  E=-7.613261D-02  Symmetry=b2
              MO Center= -4.1D-24,  1.1D-12,  3.0D-01, r^2= 8.7D+00
   Bfn.  Coefficient  Atom+Function         Bfn.  Coefficient  Atom+Function  
  ----- ------------  ---------------      ----- ------------  ---------------
    35      0.877612  2 C  py                12      0.276211  1 O  py         
    29     -0.272637  2 C  py                32     -0.255958  2 C  py         
     6     -0.055858  1 O  py         

 Vector   13  Occ=0.000000D+00  E=-7.613235D-02  Symmetry=b1
              MO Center= -8.8D-10, -4.6D-27,  3.0D-01, r^2= 8.7D+00
   Bfn.  Coefficient  Atom+Function         Bfn.  Coefficient  Atom+Function  
  ----- ------------  ---------------      ----- ------------  ---------------
    34      0.877609  2 C  px                11      0.276214  1 O  px         
    28     -0.272637  2 C  px                31     -0.255958  2 C  px         
     5     -0.055859  1 O  px         

 Vector   14  Occ=0.000000D+00  E=-1.012222D-02  Symmetry=a1
              MO Center= -5.3D-22,  4.0D-25, -6.4D-01, r^2= 7.2D+00
   Bfn.  Coefficient  Atom+Function         Bfn.  Coefficient  Atom+Function  
  ----- ------------  ---------------      ----- ------------  ---------------
    13      1.881312  1 O  pz                26     -0.941692  2 C  s          
    36     -0.768669  2 C  pz                 4      0.587076  1 O  s          
    27     -0.362575  2 C  s                 33     -0.242564  2 C  pz         
     7     -0.136267  1 O  pz                25     -0.064644  2 C  s          
     3     -0.062328  1 O  s                 10     -0.059490  1 O  pz         

 Vector   15  Occ=0.000000D+00  E= 2.098089D-02  Symmetry=b2
              MO Center=  9.8D-25, -1.3D-13,  1.8D-01, r^2= 9.7D+00
   Bfn.  Coefficient  Atom+Function         Bfn.  Coefficient  Atom+Function  
  ----- ------------  ---------------      ----- ------------  ---------------
    12      2.018085  1 O  py                35     -1.568339  2 C  py         
     6     -0.237044  1 O  py                32     -0.216584  2 C  py         
     9     -0.175777  1 O  py                43      0.101267  2 C  d -1       
    29      0.087504  2 C  py                20      0.048310  1 O  d -1       

 Vector   16  Occ=0.000000D+00  E= 2.098099D-02  Symmetry=b1
              MO Center=  1.4D-10,  5.7D-27,  1.8D-01, r^2= 9.7D+00
   Bfn.  Coefficient  Atom+Function         Bfn.  Coefficient  Atom+Function  
  ----- ------------  ---------------      ----- ------------  ---------------
    11      2.018085  1 O  px                34     -1.568340  2 C  px         
     5     -0.237044  1 O  px                31     -0.216584  2 C  px         
     8     -0.175777  1 O  px                45     -0.101266  2 C  d  1       
    28      0.087505  2 C  px                22     -0.048310  1 O  d  1       

 Vector   17  Occ=0.000000D+00  E= 8.721868D-02  Symmetry=a1
              MO Center=  5.8D-22, -7.0D-25, -3.5D-01, r^2= 1.0D+01
   Bfn.  Coefficient  Atom+Function         Bfn.  Coefficient  Atom+Function  
  ----- ------------  ---------------      ----- ------------  ---------------
     4      6.030039  1 O  s                 27     -3.893769  2 C  s          
    36      1.945837  2 C  pz                26     -1.559753  2 C  s          
    33      0.715937  2 C  pz                44     -0.504493  2 C  d  0       
    13      0.457991  1 O  pz                10      0.397667  1 O  pz         
     2     -0.222698  1 O  s                  3     -0.101148  1 O  s          

 Vector   18  Occ=0.000000D+00  E= 1.109573D-01  Symmetry=a1
              MO Center= -4.9D-09, -1.7D-12,  5.9D-01, r^2= 3.2D+00
   Bfn.  Coefficient  Atom+Function         Bfn.  Coefficient  Atom+Function  
  ----- ------------  ---------------      ----- ------------  ---------------
    46      0.953999  2 C  d  2              23      0.062036  1 O  d  2       

 Vector   19  Occ=0.000000D+00  E= 1.109583D-01  Symmetry=a2
              MO Center= -1.8D-09, -5.6D-13,  5.9D-01, r^2= 3.2D+00
   Bfn.  Coefficient  Atom+Function         Bfn.  Coefficient  Atom+Function  
  ----- ------------  ---------------      ----- ------------  ---------------
    42      0.954000  2 C  d -2              19      0.062035  1 O  d -2       

 Vector   20  Occ=0.000000D+00  E= 2.003092D-01  Symmetry=a1
              MO Center= -2.1D-21,  3.0D-24,  7.9D-01, r^2= 5.3D+00
   Bfn.  Coefficient  Atom+Function         Bfn.  Coefficient  Atom+Function  
  ----- ------------  ---------------      ----- ------------  ---------------
     4      4.383268  1 O  s                 26     -2.637813  2 C  s          
    27     -2.326019  2 C  s                 13      1.711456  1 O  pz         
    33      1.461306  2 C  pz                10      0.751043  1 O  pz         
    44      0.700225  2 C  d  0               7      0.304917  1 O  pz         
    25     -0.204402  2 C  s                 36     -0.144484  2 C  pz         

 Vector   21  Occ=0.000000D+00  E= 2.667489D-01  Symmetry=b2
              MO Center=  3.1D-10, -1.1D-09,  1.2D+00, r^2= 4.1D+00
   Bfn.  Coefficient  Atom+Function         Bfn.  Coefficient  Atom+Function  
  ----- ------------  ---------------      ----- ------------  ---------------
    43      1.441264  2 C  d -1              12      1.038974  1 O  py         
    35     -0.909032  2 C  py                 9      0.619717  1 O  py         
    29     -0.341356  2 C  py                 6      0.161350  1 O  py         
    32     -0.145554  2 C  py                20     -0.030424  1 O  d -1       

 Vector   22  Occ=0.000000D+00  E= 2.667489D-01  Symmetry=b1
              MO Center=  1.5D-09,  2.9D-14,  1.2D+00, r^2= 4.1D+00
   Bfn.  Coefficient  Atom+Function         Bfn.  Coefficient  Atom+Function  
  ----- ------------  ---------------      ----- ------------  ---------------
    45      1.441265  2 C  d  1              11     -1.038975  1 O  px         
    34      0.909032  2 C  px                 8     -0.619718  1 O  px         
    28      0.341356  2 C  px                 5     -0.161350  1 O  px         
    31      0.145555  2 C  px                22     -0.030424  1 O  d  1       

 Vector   23  Occ=0.000000D+00  E= 3.590784D-01  Symmetry=b2
              MO Center=  1.2D-09, -3.8D-09,  7.0D-02, r^2= 3.9D+00
   Bfn.  Coefficient  Atom+Function         Bfn.  Coefficient  Atom+Function  
  ----- ------------  ---------------      ----- ------------  ---------------
    32      2.119276  2 C  py                12     -1.097890  1 O  py         
    43     -0.929793  2 C  d -1              29     -0.772524  2 C  py         
     9     -0.683575  1 O  py                20     -0.365784  1 O  d -1       
    38     -0.083525  2 C  d -1               6     -0.074306  1 O  py         

 Vector   24  Occ=0.000000D+00  E= 3.590784D-01  Symmetry=b1
              MO Center=  3.7D-09,  5.4D-13,  7.0D-02, r^2= 3.9D+00
   Bfn.  Coefficient  Atom+Function         Bfn.  Coefficient  Atom+Function  
  ----- ------------  ---------------      ----- ------------  ---------------
    31      2.119276  2 C  px                11     -1.097890  1 O  px         
    45      0.929792  2 C  d  1              28     -0.772524  2 C  px         
     8     -0.683575  1 O  px                22      0.365784  1 O  d  1       
    40      0.083525  2 C  d  1               5     -0.074306  1 O  px         

 Vector   25  Occ=0.000000D+00  E= 3.672944D-01  Symmetry=a1
              MO Center=  2.2D-21,  4.9D-09,  7.4D-01, r^2= 4.5D+00
   Bfn.  Coefficient  Atom+Function         Bfn.  Coefficient  Atom+Function  
  ----- ------------  ---------------      ----- ------------  ---------------
     4      3.624341  1 O  s                 33      3.599610  2 C  pz         
     3      3.018871  1 O  s                 26     -2.615482  2 C  s          
    27     -2.417836  2 C  s                 44     -1.654312  2 C  d  0       
    10      0.571613  1 O  pz                36      0.380877  2 C  pz         
    30     -0.373742  2 C  pz                25     -0.229530  2 C  s          

 Vector   26  Occ=0.000000D+00  E= 4.838530D-01  Symmetry=a1
              MO Center=  1.4D-21,  1.3D-10,  7.6D-02, r^2= 2.9D+00
   Bfn.  Coefficient  Atom+Function         Bfn.  Coefficient  Atom+Function  
  ----- ------------  ---------------      ----- ------------  ---------------
     3      1.282115  1 O  s                 44     -1.085806  2 C  d  0       
    13     -1.042130  1 O  pz                30      0.735321  2 C  pz         
    33      0.711413  2 C  pz                36      0.664311  2 C  pz         
    21     -0.564518  1 O  d  0              27     -0.415220  2 C  s          
    10      0.387805  1 O  pz                 4      0.345758  1 O  s          

 Vector   27  Occ=0.000000D+00  E= 6.313495D-01  Symmetry=a1
              MO Center= -1.0D-09,  3.9D-12, -2.8D-01, r^2= 2.2D+00
   Bfn.  Coefficient  Atom+Function         Bfn.  Coefficient  Atom+Function  
  ----- ------------  ---------------      ----- ------------  ---------------
    23      1.126131  1 O  d  2              46     -0.633497  2 C  d  2       
    41      0.049211  2 C  d  2       

 Vector   28  Occ=0.000000D+00  E= 6.313509D-01  Symmetry=a2
              MO Center= -2.7D-10,  6.9D-12, -2.8D-01, r^2= 2.2D+00
   Bfn.  Coefficient  Atom+Function         Bfn.  Coefficient  Atom+Function  
  ----- ------------  ---------------      ----- ------------  ---------------
    19      1.126132  1 O  d -2              42     -0.633493  2 C  d -2       
    37      0.049205  2 C  d -2       

 Vector   29  Occ=0.000000D+00  E= 6.333146D-01  Symmetry=a1
              MO Center= -5.0D-22, -3.1D-11,  3.7D-02, r^2= 3.5D+00
   Bfn.  Coefficient  Atom+Function         Bfn.  Coefficient  Atom+Function  
  ----- ------------  ---------------      ----- ------------  ---------------
    26      3.891059  2 C  s                  4     -3.310457  1 O  s          
    13     -1.237611  1 O  pz                27      1.160229  2 C  s          
    25     -0.894698  2 C  s                  3     -0.846108  1 O  s          
    33     -0.719096  2 C  pz                21     -0.665157  1 O  d  0       
    30     -0.609848  2 C  pz                44      0.500534  2 C  d  0       

 Vector   30  Occ=0.000000D+00  E= 7.384382D-01  Symmetry=b2
              MO Center=  3.7D-10, -8.1D-11, -7.2D-01, r^2= 2.3D+00
   Bfn.  Coefficient  Atom+Function         Bfn.  Coefficient  Atom+Function  
  ----- ------------  ---------------      ----- ------------  ---------------
    12      1.044569  1 O  py                20      0.966711  1 O  d -1       
    35     -0.547319  2 C  py                 9     -0.536520  1 O  py         
     6      0.472721  1 O  py                29     -0.461524  2 C  py         
    43      0.315859  2 C  d -1              32     -0.256258  2 C  py         
    38     -0.143833  2 C  d -1       

 Vector   31  Occ=0.000000D+00  E= 7.384382D-01  Symmetry=b1
              MO Center=  9.4D-10, -5.1D-12, -7.2D-01, r^2= 2.3D+00
   Bfn.  Coefficient  Atom+Function         Bfn.  Coefficient  Atom+Function  
  ----- ------------  ---------------      ----- ------------  ---------------
    11      1.044570  1 O  px                22     -0.966711  1 O  d  1       
    34     -0.547320  2 C  px                 8     -0.536520  1 O  px         
     5      0.472721  1 O  px                28     -0.461524  2 C  px         
    45     -0.315859  2 C  d  1              31     -0.256259  2 C  px         
    40      0.143833  2 C  d  1       

 Vector   32  Occ=0.000000D+00  E= 9.584938D-01  Symmetry=a1
              MO Center= -4.2D-22,  5.0D-11, -6.3D-01, r^2= 3.3D+00
   Bfn.  Coefficient  Atom+Function         Bfn.  Coefficient  Atom+Function  
  ----- ------------  ---------------      ----- ------------  ---------------
     4      6.661441  1 O  s                 26     -6.502614  2 C  s          
    33      3.090557  2 C  pz                27     -2.862558  2 C  s          
    10      2.782682  1 O  pz                 3      2.324202  1 O  s          
    13      1.009071  1 O  pz                36      0.801088  2 C  pz         
    25      0.751845  2 C  s                  7     -0.703150  1 O  pz         

 Vector   33  Occ=0.000000D+00  E= 1.113826D+00  Symmetry=b2
              MO Center=  3.1D-11, -1.9D-12,  1.1D-01, r^2= 1.8D+00
   Bfn.  Coefficient  Atom+Function         Bfn.  Coefficient  Atom+Function  
  ----- ------------  ---------------      ----- ------------  ---------------
     9      2.135636  1 O  py                32     -1.333051  2 C  py         
    43      1.216049  2 C  d -1              20      0.872031  1 O  d -1       
     6     -0.857939  1 O  py                29     -0.413870  2 C  py         
    12      0.377964  1 O  py                38     -0.199730  2 C  d -1       
    35     -0.110421  2 C  py                15      0.030180  1 O  d -1       

 Vector   34  Occ=0.000000D+00  E= 1.113826D+00  Symmetry=b1
              MO Center=  7.3D-11, -6.9D-13,  1.1D-01, r^2= 1.8D+00
   Bfn.  Coefficient  Atom+Function         Bfn.  Coefficient  Atom+Function  
  ----- ------------  ---------------      ----- ------------  ---------------
     8      2.135636  1 O  px                31     -1.333051  2 C  px         
    45     -1.216049  2 C  d  1              22     -0.872031  1 O  d  1       
     5     -0.857939  1 O  px                28     -0.413870  2 C  px         
    11      0.377964  1 O  px                40      0.199730  2 C  d  1       
    34     -0.110421  2 C  px                17     -0.030180  1 O  d  1       

 Vector   35  Occ=0.000000D+00  E= 1.170860D+00  Symmetry=a1
              MO Center= -2.1D-10,  1.7D-13,  5.8D-01, r^2= 1.4D+00
   Bfn.  Coefficient  Atom+Function         Bfn.  Coefficient  Atom+Function  
  ----- ------------  ---------------      ----- ------------  ---------------
    41      1.166918  2 C  d  2              46     -0.496900  2 C  d  2       
    23     -0.234864  1 O  d  2              18      0.036046  1 O  d  2       

 Vector   36  Occ=0.000000D+00  E= 1.170866D+00  Symmetry=a2
              MO Center= -1.9D-11, -2.7D-13,  5.8D-01, r^2= 1.4D+00
   Bfn.  Coefficient  Atom+Function         Bfn.  Coefficient  Atom+Function  
  ----- ------------  ---------------      ----- ------------  ---------------
    37      1.166918  2 C  d -2              42     -0.496902  2 C  d -2       
    19     -0.234858  1 O  d -2              14      0.036046  1 O  d -2       

 Vector   37  Occ=0.000000D+00  E= 1.468157D+00  Symmetry=b2
              MO Center=  1.6D-10, -2.1D-11,  4.6D-01, r^2= 1.9D+00
   Bfn.  Coefficient  Atom+Function         Bfn.  Coefficient  Atom+Function  
  ----- ------------  ---------------      ----- ------------  ---------------
     9      1.521631  1 O  py                38      1.469554  2 C  d -1       
    20      1.361210  1 O  d -1              32     -1.253952  2 C  py         
    29     -0.545002  2 C  py                35      0.171426  2 C  py         
    43      0.155464  2 C  d -1              12      0.118232  1 O  py         
    15     -0.066939  1 O  d -1               6     -0.028796  1 O  py         

 Vector   38  Occ=0.000000D+00  E= 1.468157D+00  Symmetry=b1
              MO Center=  3.5D-10, -9.3D-13,  4.6D-01, r^2= 1.9D+00
   Bfn.  Coefficient  Atom+Function         Bfn.  Coefficient  Atom+Function  
  ----- ------------  ---------------      ----- ------------  ---------------
     8      1.521631  1 O  px                40     -1.469554  2 C  d  1       
    22     -1.361210  1 O  d  1              31     -1.253952  2 C  px         
    28     -0.545002  2 C  px                34      0.171426  2 C  px         
    45     -0.155464  2 C  d  1              11      0.118232  1 O  px         
    17      0.066939  1 O  d  1               5     -0.028796  1 O  px         

 Vector   39  Occ=0.000000D+00  E= 1.638228D+00  Symmetry=a1
              MO Center=  6.3D-22,  1.9D-11,  2.3D-01, r^2= 2.2D+00
   Bfn.  Coefficient  Atom+Function         Bfn.  Coefficient  Atom+Function  
  ----- ------------  ---------------      ----- ------------  ---------------
     3      5.141768  1 O  s                 26     -5.117421  2 C  s          
    33      3.615784  2 C  pz                 4      2.117416  1 O  s          
    25      1.546676  2 C  s                 39     -1.089129  2 C  d  0       
    44     -1.047201  2 C  d  0              27     -0.950172  2 C  s          
     2     -0.907597  1 O  s                 24      0.860065  2 C  s          

 Vector   40  Occ=0.000000D+00  E= 1.671825D+00  Symmetry=a1
              MO Center= -1.9D-11, -1.2D-12,  2.6D-01, r^2= 1.9D+00
   Bfn.  Coefficient  Atom+Function         Bfn.  Coefficient  Atom+Function  
  ----- ------------  ---------------      ----- ------------  ---------------
    25      2.252291  2 C  s                 10     -1.780191  1 O  pz         
    21     -1.491143  1 O  d  0              24      1.178904  2 C  s          
    30     -1.149198  2 C  pz                44     -1.009529  2 C  d  0       
     4     -0.951278  1 O  s                 39      0.887537  2 C  d  0       
    13     -0.665961  1 O  pz                33      0.562544  2 C  pz         

 Vector   41  Occ=0.000000D+00  E= 2.400130D+00  Symmetry=a1
              MO Center=  3.4D-23,  7.2D-12, -1.2D-01, r^2= 1.5D+00
   Bfn.  Coefficient  Atom+Function         Bfn.  Coefficient  Atom+Function  
  ----- ------------  ---------------      ----- ------------  ---------------
     3      5.372980  1 O  s                 26     -4.081840  2 C  s          
    10      2.978203  1 O  pz                 4      2.848393  1 O  s          
    33      2.279775  2 C  pz                 2     -2.175415  1 O  s          
    25     -1.562163  2 C  s                 21      1.370066  1 O  d  0       
    27     -1.232325  2 C  s                  1     -1.080761  1 O  s          

 Vector   42  Occ=0.000000D+00  E= 2.888571D+00  Symmetry=a2
              MO Center= -1.9D-12, -5.1D-14, -4.7D-01, r^2= 7.1D-01
   Bfn.  Coefficient  Atom+Function         Bfn.  Coefficient  Atom+Function  
  ----- ------------  ---------------      ----- ------------  ---------------
    14      1.185287  1 O  d -2              19     -0.703395  1 O  d -2       
    42      0.224510  2 C  d -2              37     -0.069784  2 C  d -2       

 Vector   43  Occ=0.000000D+00  E= 2.888572D+00  Symmetry=a1
              MO Center= -1.3D-11, -1.0D-12, -4.7D-01, r^2= 7.1D-01
   Bfn.  Coefficient  Atom+Function         Bfn.  Coefficient  Atom+Function  
  ----- ------------  ---------------      ----- ------------  ---------------
    18      1.185287  1 O  d  2              23     -0.703395  1 O  d  2       
    46      0.224510  2 C  d  2              41     -0.069784  2 C  d  2       

 Vector   44  Occ=0.000000D+00  E= 3.013279D+00  Symmetry=b2
              MO Center=  6.9D-12,  2.7D-13, -4.6D-01, r^2= 8.8D-01
   Bfn.  Coefficient  Atom+Function         Bfn.  Coefficient  Atom+Function  
  ----- ------------  ---------------      ----- ------------  ---------------
    15      1.235192  1 O  d -1              20     -0.764515  1 O  d -1       
    32      0.562656  2 C  py                12     -0.491642  1 O  py         
    43     -0.433367  2 C  d -1              38      0.332570  2 C  d -1       
     9     -0.295502  1 O  py                35      0.195528  2 C  py         
     6      0.104799  1 O  py                29     -0.032204  2 C  py         

 Vector   45  Occ=0.000000D+00  E= 3.013279D+00  Symmetry=b1
              MO Center= -1.1D-09,  5.7D-14, -4.6D-01, r^2= 8.8D-01
   Bfn.  Coefficient  Atom+Function         Bfn.  Coefficient  Atom+Function  
  ----- ------------  ---------------      ----- ------------  ---------------
    17      1.235192  1 O  d  1              22     -0.764515  1 O  d  1       
    31     -0.562656  2 C  px                11      0.491642  1 O  px         
    45     -0.433367  2 C  d  1              40      0.332570  2 C  d  1       
     8      0.295502  1 O  px                34     -0.195528  2 C  px         
     5     -0.104799  1 O  px                28      0.032204  2 C  px         

 Vector   46  Occ=0.000000D+00  E= 3.348545D+00  Symmetry=a1
              MO Center=  1.1D-09,  2.0D-12, -4.5D-01, r^2= 9.1D-01
   Bfn.  Coefficient  Atom+Function         Bfn.  Coefficient  Atom+Function  
  ----- ------------  ---------------      ----- ------------  ---------------
     3      3.811793  1 O  s                 26     -2.923806  2 C  s          
    33      1.978321  2 C  pz                 4      1.753294  1 O  s          
    10      1.754988  1 O  pz                16      1.280165  1 O  d  0       
    30      1.129562  2 C  pz                27     -0.814403  2 C  s          
    25     -0.753971  2 C  s                  2     -0.706515  1 O  s          


 center of mass
 --------------
 x =   0.00000000 y =   0.00000000 z =   0.00016614

 moments of inertia (a.u.)
 ------------------
          31.169570572997           0.000000000000           0.000000000000
           0.000000000000          31.169570572997           0.000000000000
           0.000000000000           0.000000000000           0.000000000000

     Multipole analysis of the density
     ---------------------------------

     L   x y z        total         alpha         beta         nuclear
     -   - - -        -----         -----         ----         -------
     0   0 0 0     -0.000000     -7.000000     -7.000000     14.000000

     1   1 0 0     -0.000000     -0.000000     -0.000000      0.000000
     1   0 1 0      0.000000      0.000000      0.000000      0.000000
     1   0 0 1     -0.043023     -0.021512     -0.021512      0.000000

     2   2 0 0     -7.767377     -3.883689     -3.883689      0.000000
     2   1 1 0      0.000000      0.000000      0.000000      0.000000
     2   1 0 1     -0.000000     -0.000000     -0.000000      0.000000
     2   0 2 0     -7.767377     -3.883689     -3.883689      0.000000
     2   0 1 1      0.000000      0.000000      0.000000      0.000000
     2   0 0 2     -9.317852    -12.452381    -12.452381     15.586911

                                NWChem TDDFT Module
                                -------------------


            General Information
            -------------------
           No. of orbitals :      92
            Alpha orbitals :      46
             Beta orbitals :      46
        Alpha frozen cores :       0
         Beta frozen cores :       0
     Alpha frozen virtuals :       0
      Beta frozen virtuals :       0
         Spin multiplicity :       1
    Number of AO functions :      46
        Use of symmetry is : off
      Symmetry adaption is : on 
         Schwarz screening :  0.10D-07

              XC Information
              --------------
                 Slater Exchange Functional   1.00 local    
               VWN V Correlation Functional   1.00 local    

     Casida-Salahub correction with a shift       0.183700 au

             TDDFT Information
             -----------------
          Calculation type : TDDFT             
         Wavefunction type : Restricted singlets & triplets
          No. of electrons :      14
           Alpha electrons :       7
            Beta electrons :       7
              No. of roots :      12
          Max subspacesize :    6400
            Max iterations :     100
               Target root :       1
           Target symmetry : none
      Symmetry restriction : off
                 Algorithm : Optimal
        Davidson threshold :  0.10D-03

            Memory Information
            ------------------
          Available GA space size is         689975228 doubles
          Available MA space size is         138055956 doubles
          Length of a trial vector is          273
          Algorithm : Incore multiple tensor contraction
          Estimated peak GA usage is           7206952 doubles
          Estimated peak MA usage is            102000 doubles

   12 smallest eigenvalue differences (eV) 
--------------------------------------------------------
  No. Spin  Occ  Vir  Irrep   E(Occ)    E(Vir)   E(Diff)
--------------------------------------------------------
    1    1    7    8 b2       -0.507    -0.255     6.849
    2    1    7    9 b1       -0.507    -0.255     6.849
    3    1    6    8 a2       -0.621    -0.255     9.968
    4    1    5    8 a1       -0.621    -0.255     9.968
    5    1    6    9 a1       -0.621    -0.255     9.968
    6    1    5    9 a2       -0.621    -0.255     9.968
    7    1    7   10 a1       -0.507    -0.122    10.457
    8    1    7   11 a1       -0.507    -0.081    11.578
    9    1    7   12 b2       -0.507    -0.076    11.718
   10    1    7   13 b1       -0.507    -0.076    11.718
   11    1    4    8 b2       -0.695    -0.255    11.977
   12    1    4    9 b1       -0.695    -0.255    11.977
--------------------------------------------------------

  Entering Davidson iterations
  Restricted singlet excited states

  Iter   NTrls   NConv    DeltaV     DeltaE      Time   
  ----  ------  ------  ---------  ---------  --------- 
    1     12       1     0.69E+00   0.10+100        0.6
    2     23       1     0.23E+00   0.10E+00        0.5
    3     45       1     0.37E-01   0.57E-01        0.9
    4     67       1     0.94E-01   0.30E-02        0.9
    5     89       2     0.29E-01   0.55E-02        0.9
    6    109       5     0.48E-02   0.25E-03        0.9
    7    123      10     0.11E-02   0.57E-05        0.6
    8    127      11     0.30E-03   0.17E-06        0.3
    9    129      12     0.94E-04   0.96E-08        0.2
  ----  ------  ------  ---------  ---------  --------- 
  Convergence criterion met

  Ground state a1       -112.431426891667 a.u.

  ----------------------------------------------------------------------------
  Root   1 singlet b2             0.301391641 a.u.                8.2013 eV 
  ----------------------------------------------------------------------------
     Transition Moments    X  0.00000   Y  0.62375   Z -0.00000
     Transition Moments   XX -0.00000  XY  0.00000  XZ  0.00000
     Transition Moments   YY -0.00000  YZ  1.82742  ZZ -0.00000
     Dipole Oscillator Strength                    0.0781736614
     Electric Quadrupole                           0.0000004869
     Magnetic Dipole                               0.0000056556
     Total Oscillator Strength                     0.0781798039

     Occ.    4  a1  ---  Virt.    8  b2   0.13796 X
     Occ.    7  a1  ---  Virt.    8  b2  -0.98975 X
     Occ.    7  a1  ---  Virt.    8  b2   0.08891 Y
     Occ.    7  a1  ---  Virt.   12  b2  -0.06775 X
  ----------------------------------------------------------------------------
  Root   2 singlet b1             0.301391648 a.u.                8.2013 eV 
  ----------------------------------------------------------------------------
     Transition Moments    X -0.62375   Y  0.00000   Z -0.00000
     Transition Moments   XX -0.00000  XY  0.00000  XZ -1.82742
     Transition Moments   YY -0.00000  YZ  0.00000  ZZ -0.00000
     Dipole Oscillator Strength                    0.0781736562
     Electric Quadrupole                           0.0000004869
     Magnetic Dipole                               0.0000056556
     Total Oscillator Strength                     0.0781797987

     Occ.    4  a1  ---  Virt.    9  b1  -0.13796 X
     Occ.    7  a1  ---  Virt.    9  b1   0.98975 X
     Occ.    7  a1  ---  Virt.    9  b1  -0.08891 Y
     Occ.    7  a1  ---  Virt.   13  b1   0.06775 X
  ----------------------------------------------------------------------------
  Root   3 singlet a2             0.366329021 a.u.                9.9683 eV 
  ----------------------------------------------------------------------------
     Transition Moments    X  0.00000   Y  0.00000   Z  0.00000
     Transition Moments   XX  0.00000  XY  0.00000  XZ  0.00000
     Transition Moments   YY -0.00000  YZ  0.00000  ZZ  0.00000
     Dipole Oscillator Strength                    0.0000000000
     Electric Quadrupole                           0.0000000000
     Magnetic Dipole                               0.0000000000
     Total Oscillator Strength                     0.0000000000

     Occ.    5  b2  ---  Virt.    9  b1   0.70711 X
     Occ.    6  b1  ---  Virt.    8  b2  -0.70711 X
  ----------------------------------------------------------------------------
  Root   4 singlet a1             0.383697816 a.u.               10.4410 eV 
  ----------------------------------------------------------------------------
     Transition Moments    X  0.00000   Y -0.00000   Z -0.00000
     Transition Moments   XX  0.28453  XY  0.00000  XZ  0.00000
     Transition Moments   YY -0.28453  YZ  0.00000  ZZ -0.00000
     Dipole Oscillator Strength                    0.0000000000
     Electric Quadrupole                           0.0000000244
     Magnetic Dipole                               0.0000000000
     Total Oscillator Strength                     0.0000000244

     Occ.    5  b2  ---  Virt.    8  b2   0.70695 X
     Occ.    6  b1  ---  Virt.    9  b1  -0.70695 X
  ----------------------------------------------------------------------------
  Root   5 singlet a2             0.383697821 a.u.               10.4410 eV 
  ----------------------------------------------------------------------------
     Transition Moments    X  0.00000   Y -0.00000   Z -0.00000
     Transition Moments   XX -0.00000  XY  0.28453  XZ -0.00000
     Transition Moments   YY  0.00000  YZ -0.00000  ZZ  0.00000
     Dipole Oscillator Strength                    0.0000000000
     Electric Quadrupole                           0.0000000244
     Magnetic Dipole                               0.0000000000
     Total Oscillator Strength                     0.0000000244

     Occ.    5  b2  ---  Virt.    9  b1  -0.70695 X
     Occ.    6  b1  ---  Virt.    8  b2  -0.70695 X
  ----------------------------------------------------------------------------
  Root   6 singlet a1             0.393832814 a.u.               10.7167 eV 
  ----------------------------------------------------------------------------
     Transition Moments    X  0.00000   Y -0.00000   Z -0.26596
     Transition Moments   XX  1.00783  XY -0.00000  XZ -0.00000
     Transition Moments   YY  1.00783  YZ -0.00000  ZZ -0.47172
     Dipole Oscillator Strength                    0.0185710867
     Electric Quadrupole                           0.0000002374
     Magnetic Dipole                               0.0000000000
     Total Oscillator Strength                     0.0185713240

     Occ.    5  b2  ---  Virt.    8  b2  -0.07971 X
     Occ.    6  b1  ---  Virt.    9  b1  -0.07971 X
     Occ.    7  a1  ---  Virt.   10  a1  -0.97375 X
     Occ.    7  a1  ---  Virt.   11  a1   0.18119 X
  ----------------------------------------------------------------------------
  Root   7 singlet b2             0.429000637 a.u.               11.6737 eV 
  ----------------------------------------------------------------------------
     Transition Moments    X -0.00000   Y  0.49215   Z  0.00000
     Transition Moments   XX  0.00000  XY  0.00000  XZ -0.00000
     Transition Moments   YY -0.00000  YZ  0.45700  ZZ  0.00000
     Dipole Oscillator Strength                    0.0692712643
     Electric Quadrupole                           0.0000000878
     Magnetic Dipole                               0.0000000673
     Total Oscillator Strength                     0.0692714193

     Occ.    4  a1  ---  Virt.    8  b2  -0.08037 X
     Occ.    7  a1  ---  Virt.    8  b2   0.05727 X
     Occ.    7  a1  ---  Virt.   12  b2  -0.99477 X
  ----------------------------------------------------------------------------
  Root   8 singlet b1             0.429000891 a.u.               11.6737 eV 
  ----------------------------------------------------------------------------
     Transition Moments    X  0.49215   Y  0.00000   Z -0.00000
     Transition Moments   XX -0.00000  XY -0.00000  XZ  0.45700
     Transition Moments   YY -0.00000  YZ  0.00000  ZZ -0.00000
     Dipole Oscillator Strength                    0.0692714122
     Electric Quadrupole                           0.0000000878
     Magnetic Dipole                               0.0000000673
     Total Oscillator Strength                     0.0692715673

     Occ.    4  a1  ---  Virt.    9  b1  -0.08038 X
     Occ.    7  a1  ---  Virt.    9  b1   0.05727 X
     Occ.    7  a1  ---  Virt.   13  b1  -0.99477 X
  ----------------------------------------------------------------------------
  Root   9 singlet a1             0.430293160 a.u.               11.7089 eV 
  ----------------------------------------------------------------------------
     Transition Moments    X  0.00000   Y -0.00000   Z  0.87630
     Transition Moments   XX  0.77628  XY -0.00000  XZ  0.00000
     Transition Moments   YY  0.77628  YZ -0.00000  ZZ  2.77895
     Dipole Oscillator Strength                    0.2202822018
     Electric Quadrupole                           0.0000005672
     Magnetic Dipole                               0.0000000000
     Total Oscillator Strength                     0.2202827690

     Occ.    5  b2  ---  Virt.    8  b2  -0.07121 X
     Occ.    5  b2  ---  Virt.   12  b2   0.05658 X
     Occ.    6  b1  ---  Virt.    9  b1  -0.07121 X
     Occ.    6  b1  ---  Virt.   13  b1   0.05658 X
     Occ.    7  a1  ---  Virt.   10  a1  -0.16299 X
     Occ.    7  a1  ---  Virt.   11  a1  -0.97438 X
  ----------------------------------------------------------------------------
  Root  10 singlet b2             0.484381526 a.u.               13.1807 eV 
  ----------------------------------------------------------------------------
     Transition Moments    X  0.00000   Y -0.54623   Z  0.00000
     Transition Moments   XX  0.00000  XY -0.00000  XZ  0.00000
     Transition Moments   YY  0.00000  YZ -0.42923  ZZ -0.00000
     Dipole Oscillator Strength                    0.0963507935
     Electric Quadrupole                           0.0000001115
     Magnetic Dipole                               0.0000005727
     Total Oscillator Strength                     0.0963514776

     Occ.    4  a1  ---  Virt.    8  b2   0.96833 X
     Occ.    4  a1  ---  Virt.   12  b2   0.06521 X
     Occ.    5  b2  ---  Virt.   10  a1   0.07727 X
     Occ.    5  b2  ---  Virt.   11  a1   0.05225 X
     Occ.    5  b2  ---  Virt.   14  a1  -0.05314 X
     Occ.    5  b2  ---  Virt.   18  a1   0.06870 X
     Occ.    6  b1  ---  Virt.   19  a2  -0.06870 X
     Occ.    7  a1  ---  Virt.    8  b2   0.13446 X
     Occ.    7  a1  ---  Virt.   12  b2  -0.07317 X
     Occ.    7  a1  ---  Virt.   15  b2  -0.10990 X
  ----------------------------------------------------------------------------
  Root  11 singlet b1             0.484381532 a.u.               13.1807 eV 
  ----------------------------------------------------------------------------
     Transition Moments    X  0.54623   Y  0.00000   Z  0.00000
     Transition Moments   XX  0.00000  XY -0.00000  XZ  0.42923
     Transition Moments   YY  0.00000  YZ  0.00000  ZZ -0.00000
     Dipole Oscillator Strength                    0.0963503952
     Electric Quadrupole                           0.0000001115
     Magnetic Dipole                               0.0000005727
     Total Oscillator Strength                     0.0963510794

     Occ.    4  a1  ---  Virt.    9  b1  -0.96833 X
     Occ.    4  a1  ---  Virt.   13  b1  -0.06521 X
     Occ.    5  b2  ---  Virt.   19  a2   0.06870 X
     Occ.    6  b1  ---  Virt.   10  a1  -0.07727 X
     Occ.    6  b1  ---  Virt.   11  a1  -0.05225 X
     Occ.    6  b1  ---  Virt.   14  a1   0.05314 X
     Occ.    6  b1  ---  Virt.   18  a1   0.06870 X
     Occ.    7  a1  ---  Virt.    9  b1  -0.13446 X
     Occ.    7  a1  ---  Virt.   13  b1   0.07317 X
     Occ.    7  a1  ---  Virt.   16  b1   0.10990 X
  ----------------------------------------------------------------------------
  Root  12 singlet a1             0.491743202 a.u.               13.3810 eV 
  ----------------------------------------------------------------------------
     Transition Moments    X  0.00000   Y  0.00000   Z  0.42817
     Transition Moments   XX  0.78948  XY  0.00000  XZ -0.00000
     Transition Moments   YY  0.78948  YZ  0.00000  ZZ -2.08809
     Dipole Oscillator Strength                    0.0601017640
     Electric Quadrupole                           0.0000017477
     Magnetic Dipole                               0.0000000000
     Total Oscillator Strength                     0.0601035118

     Occ.    4  a1  ---  Virt.   10  a1  -0.09759 X
     Occ.    5  b2  ---  Virt.    8  b2  -0.29986 X
     Occ.    5  b2  ---  Virt.   12  b2  -0.09393 X
     Occ.    5  b2  ---  Virt.   15  b2   0.06932 X
     Occ.    6  b1  ---  Virt.    9  b1  -0.29986 X
     Occ.    6  b1  ---  Virt.   13  b1  -0.09393 X
     Occ.    6  b1  ---  Virt.   16  b1   0.06932 X
     Occ.    7  a1  ---  Virt.   14  a1  -0.88435 X

              Target root =      1
          Target symmetry = none
      Ground state energy =   -112.431426891667
        Excitation energy =      0.301391640919
     Excited state energy =   -112.130035250748

  stored tddft:energy   -112.13003525074807     

   12 smallest eigenvalue differences (eV) 
--------------------------------------------------------
  No. Spin  Occ  Vir  Irrep   E(Occ)    E(Vir)   E(Diff)
--------------------------------------------------------
    1    1    7    8 b2       -0.507    -0.255     6.849
    2    1    7    9 b1       -0.507    -0.255     6.849
    3    1    6    8 a2       -0.621    -0.255     9.968
    4    1    5    8 a1       -0.621    -0.255     9.968
    5    1    6    9 a1       -0.621    -0.255     9.968
    6    1    5    9 a2       -0.621    -0.255     9.968
    7    1    7   10 a1       -0.507    -0.122    10.457
    8    1    7   11 a1       -0.507    -0.081    11.578
    9    1    7   12 b2       -0.507    -0.076    11.718
   10    1    7   13 b1       -0.507    -0.076    11.718
   11    1    4    8 b2       -0.695    -0.255    11.977
   12    1    4    9 b1       -0.695    -0.255    11.977
--------------------------------------------------------

  Entering Davidson iterations
  Restricted triplet excited states

  Iter   NTrls   NConv    DeltaV     DeltaE      Time   
  ----  ------  ------  ---------  ---------  --------- 
    1     12       1     0.10E+00   0.10+100        0.5
    2     23       1     0.21E-01   0.48E-02        0.5
    3     45       1     0.75E-02   0.21E-03        0.8
    4     67       1     0.22E-02   0.18E-04        0.8
    5     89       3     0.77E-03   0.16E-05        0.8
    6    107       9     0.18E-03   0.15E-06        0.7
    7    113      12     0.78E-04   0.68E-08        0.3
  ----  ------  ------  ---------  ---------  --------- 
  Convergence criterion met

  Ground state a1       -112.431426891667 a.u.

  ----------------------------------------------------------------------------
  Root   1 triplet b2             0.218250395 a.u.                5.9389 eV 
  ----------------------------------------------------------------------------
     Transition Moments                    Spin forbidden
     Oscillator Strength                   Spin forbidden

     Occ.    7  a1  ---  Virt.    8  b2   1.00054 X
     Occ.    7  a1  ---  Virt.    8  b2   0.07123 Y
  ----------------------------------------------------------------------------
  Root   2 triplet b1             0.218250396 a.u.                5.9389 eV 
  ----------------------------------------------------------------------------
     Transition Moments                    Spin forbidden
     Oscillator Strength                   Spin forbidden

     Occ.    7  a1  ---  Virt.    9  b1   1.00054 X
     Occ.    7  a1  ---  Virt.    9  b1   0.07123 Y
  ----------------------------------------------------------------------------
  Root   3 triplet a1             0.312885709 a.u.                8.5141 eV 
  ----------------------------------------------------------------------------
     Transition Moments                    Spin forbidden
     Oscillator Strength                   Spin forbidden

     Occ.    5  b2  ---  Virt.    8  b2  -0.70646 X
     Occ.    5  b2  ---  Virt.    8  b2  -0.05559 Y
     Occ.    6  b1  ---  Virt.    9  b1  -0.70646 X
     Occ.    6  b1  ---  Virt.    9  b1  -0.05559 Y
  ----------------------------------------------------------------------------
  Root   4 triplet a1             0.341350692 a.u.                9.2886 eV 
  ----------------------------------------------------------------------------
     Transition Moments                    Spin forbidden
     Oscillator Strength                   Spin forbidden

     Occ.    5  b2  ---  Virt.    8  b2   0.70691 X
     Occ.    6  b1  ---  Virt.    9  b1  -0.70691 X
  ----------------------------------------------------------------------------
  Root   5 triplet a2             0.341350700 a.u.                9.2886 eV 
  ----------------------------------------------------------------------------
     Transition Moments                    Spin forbidden
     Oscillator Strength                   Spin forbidden

     Occ.    5  b2  ---  Virt.    9  b1   0.70691 X
     Occ.    6  b1  ---  Virt.    8  b2   0.70691 X
  ----------------------------------------------------------------------------
  Root   6 triplet a2             0.366329021 a.u.                9.9683 eV 
  ----------------------------------------------------------------------------
     Transition Moments                    Spin forbidden
     Oscillator Strength                   Spin forbidden

     Occ.    5  b2  ---  Virt.    9  b1   0.70711 X
     Occ.    6  b1  ---  Virt.    8  b2  -0.70711 X
  ----------------------------------------------------------------------------
  Root   7 triplet a1             0.376314926 a.u.               10.2401 eV 
  ----------------------------------------------------------------------------
     Transition Moments                    Spin forbidden
     Oscillator Strength                   Spin forbidden

     Occ.    7  a1  ---  Virt.   10  a1  -0.99372 X
     Occ.    7  a1  ---  Virt.   11  a1  -0.09214 X
  ----------------------------------------------------------------------------
  Root   8 triplet a1             0.416699739 a.u.               11.3390 eV 
  ----------------------------------------------------------------------------
     Transition Moments                    Spin forbidden
     Oscillator Strength                   Spin forbidden

     Occ.    7  a1  ---  Virt.   10  a1  -0.09415 X
     Occ.    7  a1  ---  Virt.   11  a1   0.99389 X
  ----------------------------------------------------------------------------
  Root   9 triplet b2             0.418575827 a.u.               11.3900 eV 
  ----------------------------------------------------------------------------
     Transition Moments                    Spin forbidden
     Oscillator Strength                   Spin forbidden

     Occ.    4  a1  ---  Virt.    8  b2  -0.93589 X
     Occ.    7  a1  ---  Virt.    8  b2   0.05680 X
     Occ.    7  a1  ---  Virt.   12  b2   0.34310 X
  ----------------------------------------------------------------------------
  Root  10 triplet b1             0.418575858 a.u.               11.3900 eV 
  ----------------------------------------------------------------------------
     Transition Moments                    Spin forbidden
     Oscillator Strength                   Spin forbidden

     Occ.    4  a1  ---  Virt.    9  b1  -0.93589 X
     Occ.    7  a1  ---  Virt.    9  b1   0.05680 X
     Occ.    7  a1  ---  Virt.   13  b1   0.34310 X
  ----------------------------------------------------------------------------
  Root  11 triplet b2             0.426893279 a.u.               11.6164 eV 
  ----------------------------------------------------------------------------
     Transition Moments                    Spin forbidden
     Oscillator Strength                   Spin forbidden

     Occ.    4  a1  ---  Virt.    8  b2   0.34546 X
     Occ.    7  a1  ---  Virt.   12  b2   0.93791 X
  ----------------------------------------------------------------------------
  Root  12 triplet b1             0.426893500 a.u.               11.6164 eV 
  ----------------------------------------------------------------------------
     Transition Moments                    Spin forbidden
     Oscillator Strength                   Spin forbidden

     Occ.    4  a1  ---  Virt.    9  b1   0.34546 X
     Occ.    7  a1  ---  Virt.   13  b1   0.93792 X

              Target root =      1
          Target symmetry = none
      Ground state energy =   -112.431426891667
        Excitation energy =      0.218250394972
     Excited state energy =   -112.213176496695

  stored tddft:energy   -112.21317649669523     

 Task  times  cpu:       11.2s     wall:       11.3s


                                NWChem Input Module
                                -------------------


 Summary of allocated global arrays
-----------------------------------
  No active global arrays



                         GA Statistics for process    0
                         ------------------------------

       create   destroy   get      put      acc     scatter   gather  read&inc
calls: 2422     2422     4.45e+05 1.75e+05 9.70e+04 1112        0      684     
number of processes/call 1.05e+00 1.08e+00 1.04e+00 0.00e+00 0.00e+00
bytes total:             3.67e+08 7.30e+07 2.12e+08 4.42e+03 0.00e+00 5.47e+03
bytes remote:            1.33e+08 4.67e+06 1.21e+08 0.00e+00 0.00e+00 0.00e+00
Max memory consumed for GA by this process: 11838928 bytes

MA_summarize_allocated_blocks: starting scan ...
heap block 'gridpts', handle 93, address 0x5624c0ac9c28:
	type of elements:		double precision
	number of elements:		34436231
	address of client space:	0x5624c0ac9c80
	index for client space:		13642147
	total number of bytes:		275489944
MA_summarize_allocated_blocks: scan completed: 1 heap block, 0 stack blocks
MA usage statistics:

	allocation statistics:
					      heap	     stack
					      ----	     -----
	current number of blocks	         1	         0
	maximum number of blocks	        22	        53
	current total bytes		 275489944	         0
	maximum total bytes		 275997200	  22511528
	maximum total K-bytes		    275998	     22512
	maximum total M-bytes		       276	        23


                                     CITATION
                                     --------
                Please cite the following reference when publishing
                           results obtained with NWChem:

                 M. Valiev, E.J. Bylaska, N. Govind, K. Kowalski,
              T.P. Straatsma, H.J.J. van Dam, D. Wang, J. Nieplocha,
                        E. Apra, T.L. Windus, W.A. de Jong
                 "NWChem: a comprehensive and scalable open-source
                  solution for large scale molecular simulations"
                      Comput. Phys. Commun. 181, 1477 (2010)
                           doi:10.1016/j.cpc.2010.04.018

                                      AUTHORS
                                      -------
          E. Apra, E. J. Bylaska, W. A. de Jong, N. Govind, K. Kowalski,
       T. P. Straatsma, M. Valiev, H. J. J. van Dam, D. Wang, T. L. Windus,
        J. Hammond, J. Autschbach, K. Bhaskaran-Nair, J. Brabec, K. Lopata,
    S. A. Fischer, S. Krishnamoorthy, M. Jacquelin, W. Ma, M. Klemm, O. Villa,
      Y. Chen, V. Anisimov, F. Aquino, S. Hirata, M. T. Hackler, V. Konjkov,
            D. Mejia-Rodriguez, T. Risthaus, M. Malagoli, A. Marenich,
   A. Otero-de-la-Roza, J. Mullin, P. Nichols, R. Peverati, J. Pittner, Y. Zhao,
        P.-D. Fan, A. Fonari, M. J. Williamson, R. J. Harrison, J. R. Rehr,
      M. Dupuis, D. Silverstein, D. M. A. Smith, J. Nieplocha, V. Tipparaju,
    M. Krishnan, B. E. Van Kuiken, A. Vazquez-Mayagoitia, L. Jensen, M. Swart,
      Q. Wu, T. Van Voorhis, A. A. Auer, M. Nooijen, L. D. Crosby, E. Brown,
      G. Cisneros, G. I. Fann, H. Fruchtl, J. Garza, K. Hirao, R. A. Kendall,
      J. A. Nichols, K. Tsemekhman, K. Wolinski, J. Anchell, D. E. Bernholdt,
      P. Borowski, T. Clark, D. Clerc, H. Dachsel, M. J. O. Deegan, K. Dyall,
    D. Elwood, E. Glendening, M. Gutowski, A. C. Hess, J. Jaffe, B. G. Johnson,
     J. Ju, R. Kobayashi, R. Kutteh, Z. Lin, R. Littlefield, X. Long, B. Meng,
      T. Nakajima, S. Niu, L. Pollack, M. Rosing, K. Glaesemann, G. Sandrone,
      M. Stave, H. Taylor, G. Thomas, J. H. van Lenthe, A. T. Wong, Z. Zhang.

 Total times  cpu:       11.3s     wall:       11.3s
