 argument  1 = /home/list1234/source/nwchem-6.8.1-release/QA/tests/tddft_n2+/tddft_n2+.nw



============================== echo of input deck ==============================
# This tests CIS, TDHF, TDDFT functionality at once
# by using a hybrid LDA, GGA, HF functional for
# spin unrestricted reference with symmetry on.

start tddft_n2+

echo

title "TDDFT N2+ 1.0977A B3LYP/6-31G** QA TEST"

charge 1

geometry
symmetry d2h
N 0.0 0.0 -0.54885
N 0.0 0.0  0.54885
end

basis
N library 6-31G**
end

dft
xc b3lyp
mult 2
end

tddft
nroots 10
end

task tddft energy
================================================================================


                                         
                                         


              Northwest Computational Chemistry Package (NWChem) 6.8
              ------------------------------------------------------


                    Environmental Molecular Sciences Laboratory
                       Pacific Northwest National Laboratory
                                Richland, WA 99352

                              Copyright (c) 1994-2018
                       Pacific Northwest National Laboratory
                            Battelle Memorial Institute

             NWChem is an open-source computational chemistry package
                        distributed under the terms of the
                      Educational Community License (ECL) 2.0
             A copy of the license is included with this distribution
                              in the LICENSE.TXT file

                                  ACKNOWLEDGMENT
                                  --------------

            This software and its documentation were developed at the
            EMSL at Pacific Northwest National Laboratory, a multiprogram
            national laboratory, operated for the U.S. Department of Energy
            by Battelle under Contract Number DE-AC05-76RL01830. Support
            for this work was provided by the Department of Energy Office
            of Biological and Environmental Research, Office of Basic
            Energy Sciences, and the Office of Advanced Scientific Computing.


           Job information
           ---------------

    hostname        = list1234-B360M-H
    program         = /home/list1234/source/nwchem-6.8.1-release/bin/LINUX64/nwchem
    date            = Sun Jun 30 06:07:37 2019

    compiled        = Sun_Jun_30_05:21:11_2019
    source          = /home/list1234/source/nwchem-6.8.1-release
    nwchem branch   = Development
    nwchem revision = N/A
    ga revision     = 5.6.5
    use scalapack   = T
    input           = /home/list1234/source/nwchem-6.8.1-release/QA/tests/tddft_n2+/tddft_n2+.nw
    prefix          = tddft_n2+.
    data base       = ./tddft_n2+.db
    status          = startup
    nproc           =        4
    time left       =     -1s



           Memory information
           ------------------

    heap     =   86247164 doubles =    658.0 Mbytes
    stack    =   86247169 doubles =    658.0 Mbytes
    global   =  172494336 doubles =   1316.0 Mbytes (distinct from heap & stack)
    total    =  344988669 doubles =   2632.1 Mbytes
    verify   = yes
    hardfail = no 


           Directory information
           ---------------------

  0 permanent = .
  0 scratch   = .




                                NWChem Input Module
                                -------------------


                      TDDFT N2+ 1.0977A B3LYP/6-31G** QA TEST
                      ---------------------------------------

 Scaling coordinates for geometry "geometry" by  1.889725989
 (inverse scale =  0.529177249)

 Turning off AUTOSYM since
 SYMMETRY directive was detected!


          ------
          auto-z
          ------
  no constraints, skipping    0.0000000000000000     
  no constraints, skipping    0.0000000000000000     


                             Geometry "geometry" -> ""
                             -------------------------

 Output coordinates in angstroms (scale by  1.889725989 to convert to a.u.)

  No.       Tag          Charge          X              Y              Z
 ---- ---------------- ---------- -------------- -------------- --------------
    1 N                    7.0000     0.00000000     0.00000000    -0.54885000
    2 N                    7.0000     0.00000000     0.00000000     0.54885000

      Atomic Mass 
      ----------- 

      N                 14.003070


 Effective nuclear repulsion energy (a.u.)      23.6218321955

            Nuclear Dipole moment (a.u.) 
            ----------------------------
        X                 Y               Z
 ---------------- ---------------- ----------------
     0.0000000000     0.0000000000     0.0000000000

      Symmetry information
      --------------------

 Group name             D2h       
 Group number             26
 Group order               8
 No. of unique centers     1

      Symmetry unique atoms

     1



                                Z-matrix (autoz)
                                -------- 

 Units are Angstrom for bonds and degrees for angles

      Type          Name      I     J     K     L     M      Value
      ----------- --------  ----- ----- ----- ----- ----- ----------
    1 Stretch                  1     2                       1.09770


            XYZ format geometry
            -------------------
     2
 geometry
 N                     0.00000000     0.00000000    -0.54885000
 N                     0.00000000     0.00000000     0.54885000

 ==============================================================================
                                internuclear distances
 ------------------------------------------------------------------------------
       center one      |      center two      | atomic units |  angstroms
 ------------------------------------------------------------------------------
    2 N                |   1 N                |     2.07435  |     1.09770
 ------------------------------------------------------------------------------
                         number of included internuclear distances:          1
 ==============================================================================



                      Basis "ao basis" -> "" (cartesian)
                      -----
  N (Nitrogen)
  ------------
            Exponent  Coefficients 
       -------------- ---------------------------------------------------------
  1 S  4.17351100E+03  0.001835
  1 S  6.27457900E+02  0.013995
  1 S  1.42902100E+02  0.068587
  1 S  4.02343300E+01  0.232241
  1 S  1.28202100E+01  0.469070
  1 S  4.39043700E+00  0.360455

  2 S  1.16263580E+01 -0.114961
  2 S  2.71628000E+00 -0.169118
  2 S  7.72218000E-01  1.145852

  3 P  1.16263580E+01  0.067580
  3 P  2.71628000E+00  0.323907
  3 P  7.72218000E-01  0.740895

  4 S  2.12031300E-01  1.000000

  5 P  2.12031300E-01  1.000000

  6 D  8.00000000E-01  1.000000



 Summary of "ao basis" -> "" (cartesian)
 ------------------------------------------------------------------------------
       Tag                 Description            Shells   Functions and Types
 ---------------- ------------------------------  ------  ---------------------
 N                          6-31G**                  6       15   3s2p1d



                                 NWChem DFT Module
                                 -----------------


                      TDDFT N2+ 1.0977A B3LYP/6-31G** QA TEST




 Summary of "ao basis" -> "ao basis" (cartesian)
 ------------------------------------------------------------------------------
       Tag                 Description            Shells   Functions and Types
 ---------------- ------------------------------  ------  ---------------------
 N                          6-31G**                  6       15   3s2p1d


      Symmetry analysis of basis
      --------------------------

        ag          8
        au          1
        b1g         1
        b1u         8
        b2g         3
        b2u         3
        b3g         3
        b3u         3

  Caching 1-el integrals 

            General Information
            -------------------
          SCF calculation type: DFT
          Wavefunction type:  spin polarized.
          No. of atoms     :     2
          No. of electrons :    13
           Alpha electrons :     7
            Beta electrons :     6
          Charge           :     1
          Spin multiplicity:     2
          Use of symmetry is: off; symmetry adaption is: on 
          Maximum number of iterations:  30
          AO basis - number of functions:    30
                     number of shells:    12
          Convergence on energy requested:  1.00D-06
          Convergence on density requested:  1.00D-05
          Convergence on gradient requested:  5.00D-04

              XC Information
              --------------
                         B3LYP Method XC Potential
                     Hartree-Fock (Exact) Exchange  0.200          
                        Slater Exchange Functional  0.800 local    
                    Becke 1988 Exchange Functional  0.720 non-local
              Lee-Yang-Parr Correlation Functional  0.810          
                  VWN I RPA Correlation Functional  0.190 local    

             Grid Information
             ----------------
          Grid used for XC integration:  medium    
          Radial quadrature: Mura-Knowles        
          Angular quadrature: Lebedev. 
          Tag              B.-S. Rad. Rad. Pts. Rad. Cut. Ang. Pts.
          ---              ---------- --------- --------- ---------
          N                   0.65       49           5.0       434
          Grid pruning is: on 
          Number of quadrature shells:    98
          Spatial weights used:  Erf1

          Convergence Information
          -----------------------
          Convergence aids based upon iterative change in 
          total energy or number of iterations. 
          Levelshifting, if invoked, occurs when the 
          HOMO/LUMO gap drops below (HL_TOL):  1.00D-02
          DIIS, if invoked, will attempt to extrapolate 
          using up to (NFOCK): 10 stored Fock matrices.

                    Damping( 0%)  Levelshifting(0.5)       DIIS
                  --------------- ------------------- ---------------
          dE  on:    start            ASAP                start   
          dE off:    2 iters         30 iters            30 iters 


      Screening Tolerance Information
      -------------------------------
          Density screening/tol_rho:  1.00D-10
          AO Gaussian exp screening on grid/accAOfunc:  14
          CD Gaussian exp screening on grid/accCDfunc:  20
          XC Gaussian exp screening on grid/accXCfunc:  20
          Schwarz screening/accCoul:  1.00D-08


      Superposition of Atomic Density Guess
      -------------------------------------

 Sum of atomic energies:        -108.58747649

 Renormalizing density from      14.00 to     13

      Non-variational initial energy
      ------------------------------

 Total energy =    -103.672717
 1-e energy   =    -180.042836
 2-e energy   =      52.748287
 HOMO         =      -0.962138
 LUMO         =      -0.507383


   Symmetry analysis of molecular orbitals - initial alpha
   -------------------------------------------------------


 !! scf_movecs_sym_adapt:   16 vectors were symmetry contaminated

  Symmetry fudging

 !! scf_movecs_sym_adapt:   14 vectors were symmetry contaminated

  Numbering of irreducible representations: 

     1 ag          2 au          3 b1g         4 b1u         5 b2g     
     6 b2u         7 b3g         8 b3u     

  Orbital symmetries:

     1 ag          2 b1u         3 ag          4 b1u         5 b2u     
     6 b3u         7 ag          8 b3g         9 b2g        10 b1u     
    11 ag         12 b2u        13 b3u        14 ag         15 b1u     
    16 b2g        17 b3g     


   Symmetry analysis of molecular orbitals - initial beta
   ------------------------------------------------------


 !! scf_movecs_sym_adapt:   16 vectors were symmetry contaminated

  Symmetry fudging

 !! scf_movecs_sym_adapt:   14 vectors were symmetry contaminated

  Numbering of irreducible representations: 

     1 ag          2 au          3 b1g         4 b1u         5 b2g     
     6 b2u         7 b3g         8 b3u     

  Orbital symmetries:

     1 ag          2 b1u         3 ag          4 b1u         5 b2u     
     6 b3u         7 ag          8 b3g         9 b2g        10 b1u     
    11 ag         12 b2u        13 b3u        14 ag         15 b1u     
    16 b2g        17 b3g     

   Time after variat. SCF:      0.1
   Time prior to 1st pass:      0.1

 Grid_pts file          = ./tddft_n2+.gridpts.0
 Record size in doubles =  12289        No. of grid_pts per rec  =   3070
 Max. records in memory =      5        Max. recs in file   = 253312716


 !! scf_movecs_sym_adapt:   12 vectors were symmetry contaminated

  Symmetry fudging

 !! scf_movecs_sym_adapt:   12 vectors were symmetry contaminated


 !! scf_movecs_sym_adapt:   12 vectors were symmetry contaminated

  Symmetry fudging

 !! scf_movecs_sym_adapt:   12 vectors were symmetry contaminated


           Memory utilization after 1st SCF pass: 
           Heap Space remaining (MW):       51.75            51748100
          Stack Space remaining (MW):       86.25            86246804

   convergence    iter        energy       DeltaE   RMS-Dens  Diis-err    time
 ---------------- ----- ----------------- --------- --------- ---------  ------
 d= 0,ls=0.0,diis     1   -108.9310875727 -1.33D+02  5.38D-03  9.28D-02     0.1
                                                     4.26D-03  8.00D-02

 !! scf_movecs_sym_adapt:   12 vectors were symmetry contaminated

  Symmetry fudging

 !! scf_movecs_sym_adapt:   12 vectors were symmetry contaminated


 !! scf_movecs_sym_adapt:   12 vectors were symmetry contaminated

  Symmetry fudging

 !! scf_movecs_sym_adapt:   12 vectors were symmetry contaminated

 d= 0,ls=0.0,diis     2   -108.9447423761 -1.37D-02  8.61D-04  9.70D-04     0.1
                                                     1.48D-03  1.53D-03

 !! scf_movecs_sym_adapt:   12 vectors were symmetry contaminated

  Symmetry fudging

 !! scf_movecs_sym_adapt:   12 vectors were symmetry contaminated


 !! scf_movecs_sym_adapt:   12 vectors were symmetry contaminated

  Symmetry fudging

 !! scf_movecs_sym_adapt:   12 vectors were symmetry contaminated

 d= 0,ls=0.0,diis     3   -108.9452905628 -5.48D-04  3.28D-04  2.74D-04     0.2
                                                     3.02D-04  2.02D-04

 !! scf_movecs_sym_adapt:   12 vectors were symmetry contaminated

  Symmetry fudging

 !! scf_movecs_sym_adapt:   12 vectors were symmetry contaminated


 !! scf_movecs_sym_adapt:   12 vectors were symmetry contaminated

  Symmetry fudging

 !! scf_movecs_sym_adapt:   12 vectors were symmetry contaminated

 d= 0,ls=0.0,diis     4   -108.9453922475 -1.02D-04  5.41D-05  2.04D-06     0.2
                                                     4.17D-05  1.06D-06

 !! scf_movecs_sym_adapt:   12 vectors were symmetry contaminated

  Symmetry fudging

 !! scf_movecs_sym_adapt:   12 vectors were symmetry contaminated


 !! scf_movecs_sym_adapt:   12 vectors were symmetry contaminated

  Symmetry fudging

 !! scf_movecs_sym_adapt:   12 vectors were symmetry contaminated

 d= 0,ls=0.0,diis     5   -108.9453934043 -1.16D-06  4.26D-06  4.56D-08     0.3
                                                     8.40D-06  8.69D-08

 !! scf_movecs_sym_adapt:   12 vectors were symmetry contaminated

  Symmetry fudging

 !! scf_movecs_sym_adapt:   12 vectors were symmetry contaminated


 !! scf_movecs_sym_adapt:   12 vectors were symmetry contaminated

  Symmetry fudging

 !! scf_movecs_sym_adapt:   12 vectors were symmetry contaminated

 d= 0,ls=0.0,diis     6   -108.9453934360 -3.18D-08  5.44D-07  2.81D-10     0.3
                                                     2.36D-07  1.04D-10


         Total DFT energy =     -108.945393436045
      One electron energy =     -188.113755318306
           Coulomb energy =       68.792681779636
    Exchange-Corr. energy =      -13.246152092860
 Nuclear repulsion energy =       23.621832195486

 Numeric. integr. density =       13.000000316419

     Total iterative time =      0.2s



                  Occupations of the irreducible representations
                  ----------------------------------------------

                     irrep           alpha         beta
                     --------     --------     --------
                     ag                3.0          2.0
                     au                0.0          0.0
                     b1g               0.0          0.0
                     b1u               2.0          2.0
                     b2g               0.0          0.0
                     b2u               1.0          1.0
                     b3g               0.0          0.0
                     b3u               1.0          1.0


                    DFT Final Alpha Molecular Orbital Analysis
                    ------------------------------------------

 Vector    1  Occ=1.000000D+00  E=-1.494917D+01  Symmetry=ag
              MO Center=  7.4D-14,  7.4D-14,  4.1D-09, r^2= 3.2D-01
   Bfn.  Coefficient  Atom+Function         Bfn.  Coefficient  Atom+Function  
  ----- ------------  ---------------      ----- ------------  ---------------
     1      0.701891  1 N  s                 16      0.701891  2 N  s          

 Vector    2  Occ=1.000000D+00  E=-1.494736D+01  Symmetry=b1u
              MO Center=  4.3D-14,  4.3D-14, -4.1D-09, r^2= 3.2D-01
   Bfn.  Coefficient  Atom+Function         Bfn.  Coefficient  Atom+Function  
  ----- ------------  ---------------      ----- ------------  ---------------
     1      0.702044  1 N  s                 16     -0.702044  2 N  s          

 Vector    3  Occ=1.000000D+00  E=-1.583893D+00  Symmetry=ag
              MO Center= -3.2D-24,  3.2D-24, -1.5D-13, r^2= 4.1D-01
   Bfn.  Coefficient  Atom+Function         Bfn.  Coefficient  Atom+Function  
  ----- ------------  ---------------      ----- ------------  ---------------
     2      0.360291  1 N  s                 17      0.360291  2 N  s          
     5      0.239391  1 N  pz                20     -0.239391  2 N  pz         
     6      0.165233  1 N  s                 21      0.165233  2 N  s          
     1     -0.160522  1 N  s                 16     -0.160522  2 N  s          
     9      0.026828  1 N  pz                24     -0.026828  2 N  pz         

 Vector    4  Occ=1.000000D+00  E=-1.018210D+00  Symmetry=b1u
              MO Center=  3.9D-24, -3.9D-24, -1.1D-13, r^2= 1.2D+00
   Bfn.  Coefficient  Atom+Function         Bfn.  Coefficient  Atom+Function  
  ----- ------------  ---------------      ----- ------------  ---------------
     6      0.518055  1 N  s                 21     -0.518055  2 N  s          
     2      0.375635  1 N  s                 17     -0.375635  2 N  s          
     5     -0.247285  1 N  pz                20     -0.247285  2 N  pz         
     1     -0.152678  1 N  s                 16      0.152678  2 N  s          

 Vector    5  Occ=1.000000D+00  E=-9.090879D-01  Symmetry=ag
              MO Center= -1.5D-10, -1.5D-10,  1.1D-13, r^2= 1.2D+00
   Bfn.  Coefficient  Atom+Function         Bfn.  Coefficient  Atom+Function  
  ----- ------------  ---------------      ----- ------------  ---------------
     5      0.489879  1 N  pz                20     -0.489879  2 N  pz         
     6     -0.277536  1 N  s                 21     -0.277536  2 N  s          
     2     -0.156600  1 N  s                 17     -0.156600  2 N  s          
     9      0.145534  1 N  pz                24     -0.145534  2 N  pz         
     1      0.064770  1 N  s                 16      0.064770  2 N  s          

 Vector    6  Occ=1.000000D+00  E=-8.933356D-01  Symmetry=b2u
              MO Center=  4.8D-30,  1.5D-10, -1.3D-17, r^2= 8.1D-01
   Bfn.  Coefficient  Atom+Function         Bfn.  Coefficient  Atom+Function  
  ----- ------------  ---------------      ----- ------------  ---------------
     4      0.492665  1 N  py                19      0.492665  2 N  py         
     8      0.195063  1 N  py                23      0.195063  2 N  py         
    14      0.065324  1 N  dyz               29     -0.065324  2 N  dyz        

 Vector    7  Occ=1.000000D+00  E=-8.933356D-01  Symmetry=b3u
              MO Center=  1.5D-10,  2.7D-29, -1.7D-17, r^2= 8.1D-01
   Bfn.  Coefficient  Atom+Function         Bfn.  Coefficient  Atom+Function  
  ----- ------------  ---------------      ----- ------------  ---------------
     3      0.492665  1 N  px                18      0.492665  2 N  px         
     7      0.195063  1 N  px                22      0.195063  2 N  px         
    12      0.065324  1 N  dxz               27     -0.065324  2 N  dxz        

 Vector    8  Occ=0.000000D+00  E=-4.490958D-01  Symmetry=b3g
              MO Center= -3.4D-31,  7.0D-14, -7.4D-17, r^2= 1.1D+00
   Bfn.  Coefficient  Atom+Function         Bfn.  Coefficient  Atom+Function  
  ----- ------------  ---------------      ----- ------------  ---------------
     4      0.559369  1 N  py                19     -0.559369  2 N  py         
     8      0.453277  1 N  py                23     -0.453277  2 N  py         
    14     -0.048274  1 N  dyz               29     -0.048274  2 N  dyz        

 Vector    9  Occ=0.000000D+00  E=-4.490958D-01  Symmetry=b2g
              MO Center=  7.0D-14, -1.7D-31,  7.2D-17, r^2= 1.1D+00
   Bfn.  Coefficient  Atom+Function         Bfn.  Coefficient  Atom+Function  
  ----- ------------  ---------------      ----- ------------  ---------------
     3      0.559369  1 N  px                18     -0.559369  2 N  px         
     7      0.453277  1 N  px                22     -0.453277  2 N  px         
    12     -0.048274  1 N  dxz               27     -0.048274  2 N  dxz        

 Vector   10  Occ=0.000000D+00  E= 7.250483D-02  Symmetry=b1u
              MO Center=  3.6D-12,  3.6D-12,  9.2D-14, r^2= 2.7D+00
   Bfn.  Coefficient  Atom+Function         Bfn.  Coefficient  Atom+Function  
  ----- ------------  ---------------      ----- ------------  ---------------
     6      3.627472  1 N  s                 21     -3.627472  2 N  s          
     9      2.389091  1 N  pz                24      2.389091  2 N  pz         
     2      0.282565  1 N  s                 17     -0.282565  2 N  s          
     5      0.221823  1 N  pz                20      0.221823  2 N  pz         
     1     -0.104997  1 N  s                 16      0.104997  2 N  s          

 Vector   11  Occ=0.000000D+00  E= 2.342948D-01  Symmetry=ag
              MO Center=  4.6D-25, -4.7D-25, -6.0D-14, r^2= 1.9D+00
   Bfn.  Coefficient  Atom+Function         Bfn.  Coefficient  Atom+Function  
  ----- ------------  ---------------      ----- ------------  ---------------
     9      0.857454  1 N  pz                24     -0.857454  2 N  pz         
     2     -0.490243  1 N  s                 17     -0.490243  2 N  s          
     6      0.361341  1 N  s                 21      0.361341  2 N  s          
     5     -0.316781  1 N  pz                20      0.316781  2 N  pz         
    15     -0.177845  1 N  dzz               30     -0.177845  2 N  dzz        

 Vector   12  Occ=0.000000D+00  E= 2.471108D-01  Symmetry=b3u
              MO Center=  2.8D-13, -1.2D-29, -8.9D-17, r^2= 1.9D+00
   Bfn.  Coefficient  Atom+Function         Bfn.  Coefficient  Atom+Function  
  ----- ------------  ---------------      ----- ------------  ---------------
     7     -0.640026  1 N  px                22     -0.640026  2 N  px         
     3      0.603774  1 N  px                18      0.603774  2 N  px         
    12      0.137203  1 N  dxz               27     -0.137203  2 N  dxz        

 Vector   13  Occ=0.000000D+00  E= 2.471108D-01  Symmetry=b2u
              MO Center=  1.1D-29,  2.8D-13,  2.0D-17, r^2= 1.9D+00
   Bfn.  Coefficient  Atom+Function         Bfn.  Coefficient  Atom+Function  
  ----- ------------  ---------------      ----- ------------  ---------------
     8     -0.640026  1 N  py                23     -0.640026  2 N  py         
     4      0.603774  1 N  py                19      0.603774  2 N  py         
    14      0.137203  1 N  dyz               29     -0.137203  2 N  dyz        

 Vector   14  Occ=0.000000D+00  E= 2.703074D-01  Symmetry=ag
              MO Center=  6.0D-13,  6.0D-13,  2.1D-13, r^2= 2.5D+00
   Bfn.  Coefficient  Atom+Function         Bfn.  Coefficient  Atom+Function  
  ----- ------------  ---------------      ----- ------------  ---------------
     6      1.018323  1 N  s                 21      1.018323  2 N  s          
     2     -0.702654  1 N  s                 17     -0.702654  2 N  s          
     9     -0.459766  1 N  pz                24      0.459766  2 N  pz         
     5      0.370177  1 N  pz                20     -0.370177  2 N  pz         
    15     -0.155177  1 N  dzz               30     -0.155177  2 N  dzz        

 Vector   15  Occ=0.000000D+00  E= 3.480406D-01  Symmetry=b1u
              MO Center=  4.3D-10,  4.3D-10, -2.2D-14, r^2= 1.6D+00
   Bfn.  Coefficient  Atom+Function         Bfn.  Coefficient  Atom+Function  
  ----- ------------  ---------------      ----- ------------  ---------------
     5      0.723143  1 N  pz                20      0.723143  2 N  pz         
     9     -0.491270  1 N  pz                24     -0.491270  2 N  pz         
     6      0.427835  1 N  s                 21     -0.427835  2 N  s          
    15     -0.288678  1 N  dzz               30      0.288678  2 N  dzz        
     2     -0.194968  1 N  s                 17      0.194968  2 N  s          

 Vector   16  Occ=0.000000D+00  E= 3.952258D-01  Symmetry=b2g
              MO Center= -4.3D-10,  4.5D-29,  8.6D-17, r^2= 2.3D+00
   Bfn.  Coefficient  Atom+Function         Bfn.  Coefficient  Atom+Function  
  ----- ------------  ---------------      ----- ------------  ---------------
     7      1.260543  1 N  px                22     -1.260543  2 N  px         
     3     -0.643223  1 N  px                18      0.643223  2 N  px         
    12      0.059279  1 N  dxz               27      0.059279  2 N  dxz        

 Vector   17  Occ=0.000000D+00  E= 3.952258D-01  Symmetry=b3g
              MO Center= -4.0D-29, -4.3D-10, -2.8D-18, r^2= 2.3D+00
   Bfn.  Coefficient  Atom+Function         Bfn.  Coefficient  Atom+Function  
  ----- ------------  ---------------      ----- ------------  ---------------
     8      1.260543  1 N  py                23     -1.260543  2 N  py         
     4     -0.643223  1 N  py                19      0.643223  2 N  py         
    14      0.059279  1 N  dyz               29      0.059279  2 N  dyz        

 Vector   18  Occ=0.000000D+00  E= 8.915454D-01  Symmetry=b1u
              MO Center=  1.3D-11,  1.3D-11, -2.8D-13, r^2= 2.2D+00
   Bfn.  Coefficient  Atom+Function         Bfn.  Coefficient  Atom+Function  
  ----- ------------  ---------------      ----- ------------  ---------------
     6      7.165454  1 N  s                 21     -7.165454  2 N  s          
     9      3.243566  1 N  pz                24      3.243566  2 N  pz         
     2     -1.283748  1 N  s                 17      1.283748  2 N  s          
     5     -0.251468  1 N  pz                20     -0.251468  2 N  pz         
    10     -0.205430  1 N  dxx               13     -0.205430  1 N  dyy        

 Vector   19  Occ=0.000000D+00  E= 1.034458D+00  Symmetry=ag
              MO Center= -6.0D-16, -6.0D-16, -9.8D-16, r^2= 8.7D-01
   Bfn.  Coefficient  Atom+Function         Bfn.  Coefficient  Atom+Function  
  ----- ------------  ---------------      ----- ------------  ---------------
    10      0.564008  1 N  dxx               13     -0.564008  1 N  dyy        
    25      0.564008  2 N  dxx               28     -0.564008  2 N  dyy        

 Vector   20  Occ=0.000000D+00  E= 1.034458D+00  Symmetry=b1g
              MO Center=  3.6D-16,  3.5D-16, -9.4D-16, r^2= 8.7D-01
   Bfn.  Coefficient  Atom+Function         Bfn.  Coefficient  Atom+Function  
  ----- ------------  ---------------      ----- ------------  ---------------
    11      1.128016  1 N  dxy               26      1.128016  2 N  dxy        

 Vector   21  Occ=0.000000D+00  E= 1.105698D+00  Symmetry=b3u
              MO Center= -2.1D-13, -3.5D-16,  1.8D-17, r^2= 9.1D-01
   Bfn.  Coefficient  Atom+Function         Bfn.  Coefficient  Atom+Function  
  ----- ------------  ---------------      ----- ------------  ---------------
    12      1.038984  1 N  dxz               27     -1.038984  2 N  dxz        
     3     -0.259477  1 N  px                18     -0.259477  2 N  px         
     7      0.057582  1 N  px                22      0.057582  2 N  px         

 Vector   22  Occ=0.000000D+00  E= 1.105698D+00  Symmetry=b2u
              MO Center= -3.6D-16, -2.1D-13,  3.5D-17, r^2= 9.1D-01
   Bfn.  Coefficient  Atom+Function         Bfn.  Coefficient  Atom+Function  
  ----- ------------  ---------------      ----- ------------  ---------------
    14      1.038984  1 N  dyz               29     -1.038984  2 N  dyz        
     4     -0.259477  1 N  py                19     -0.259477  2 N  py         
     8      0.057582  1 N  py                23      0.057582  2 N  py         

 Vector   23  Occ=0.000000D+00  E= 1.527371D+00  Symmetry=b1u
              MO Center= -2.8D-15, -2.8D-15,  9.9D-16, r^2= 9.8D-01
   Bfn.  Coefficient  Atom+Function         Bfn.  Coefficient  Atom+Function  
  ----- ------------  ---------------      ----- ------------  ---------------
    10      0.675781  1 N  dxx               13     -0.675781  1 N  dyy        
    25     -0.675781  2 N  dxx               28      0.675781  2 N  dyy        

 Vector   24  Occ=0.000000D+00  E= 1.527371D+00  Symmetry=au
              MO Center= -8.5D-14, -8.5D-14,  9.9D-16, r^2= 9.8D-01
   Bfn.  Coefficient  Atom+Function         Bfn.  Coefficient  Atom+Function  
  ----- ------------  ---------------      ----- ------------  ---------------
    11      1.351562  1 N  dxy               26     -1.351562  2 N  dxy        

 Vector   25  Occ=0.000000D+00  E= 1.972866D+00  Symmetry=ag
              MO Center=  6.8D-21, -6.8D-21,  6.3D-12, r^2= 1.2D+00
   Bfn.  Coefficient  Atom+Function         Bfn.  Coefficient  Atom+Function  
  ----- ------------  ---------------      ----- ------------  ---------------
    10      0.661008  1 N  dxx               13      0.661008  1 N  dyy        
    25      0.661008  2 N  dxx               28      0.661008  2 N  dyy        
     9     -0.588243  1 N  pz                24      0.588243  2 N  pz         
    15     -0.574114  1 N  dzz               30     -0.574114  2 N  dzz        
     6     -0.539985  1 N  s                 21     -0.539985  2 N  s          

 Vector   26  Occ=0.000000D+00  E= 2.159071D+00  Symmetry=b2g
              MO Center= -1.4D-11,  8.5D-14,  1.2D-16, r^2= 1.2D+00
   Bfn.  Coefficient  Atom+Function         Bfn.  Coefficient  Atom+Function  
  ----- ------------  ---------------      ----- ------------  ---------------
    12      1.934374  1 N  dxz               27      1.934374  2 N  dxz        
     7      0.508470  1 N  px                22     -0.508470  2 N  px         
     3      0.243066  1 N  px                18     -0.243066  2 N  px         

 Vector   27  Occ=0.000000D+00  E= 2.159071D+00  Symmetry=b3g
              MO Center=  8.5D-14, -1.4D-11,  1.3D-17, r^2= 1.2D+00
   Bfn.  Coefficient  Atom+Function         Bfn.  Coefficient  Atom+Function  
  ----- ------------  ---------------      ----- ------------  ---------------
    14      1.934374  1 N  dyz               29      1.934374  2 N  dyz        
     8      0.508470  1 N  py                23     -0.508470  2 N  py         
     4      0.243066  1 N  py                19     -0.243066  2 N  py         

 Vector   28  Occ=0.000000D+00  E= 2.367271D+00  Symmetry=b1u
              MO Center=  2.6D-26, -6.7D-27, -7.8D-12, r^2= 1.3D+00
   Bfn.  Coefficient  Atom+Function         Bfn.  Coefficient  Atom+Function  
  ----- ------------  ---------------      ----- ------------  ---------------
     6      3.311359  1 N  s                 21     -3.311359  2 N  s          
     9      1.787079  1 N  pz                24      1.787079  2 N  pz         
    15      1.381077  1 N  dzz               30     -1.381077  2 N  dzz        
     5      1.109998  1 N  pz                20      1.109998  2 N  pz         
    10     -0.475920  1 N  dxx               13     -0.475920  1 N  dyy        

 Vector   29  Occ=0.000000D+00  E= 2.856102D+00  Symmetry=ag
              MO Center= -6.0D-27,  1.3D-26, -2.2D-14, r^2= 1.2D+00
   Bfn.  Coefficient  Atom+Function         Bfn.  Coefficient  Atom+Function  
  ----- ------------  ---------------      ----- ------------  ---------------
     2      1.263862  1 N  s                 17      1.263862  2 N  s          
    15     -1.096108  1 N  dzz               30     -1.096108  2 N  dzz        
     6      0.840000  1 N  s                 21      0.840000  2 N  s          
    10     -0.805618  1 N  dxx               13     -0.805618  1 N  dyy        
    25     -0.805618  2 N  dxx               28     -0.805618  2 N  dyy        

 Vector   30  Occ=0.000000D+00  E= 3.162702D+00  Symmetry=b1u
              MO Center= -1.3D-26, -1.4D-26,  1.6D-12, r^2= 1.4D+00
   Bfn.  Coefficient  Atom+Function         Bfn.  Coefficient  Atom+Function  
  ----- ------------  ---------------      ----- ------------  ---------------
     6      4.204783  1 N  s                 21     -4.204783  2 N  s          
     9      1.337583  1 N  pz                24      1.337583  2 N  pz         
    15     -1.163843  1 N  dzz               30      1.163843  2 N  dzz        
    10     -1.099023  1 N  dxx               13     -1.099023  1 N  dyy        
    25      1.099023  2 N  dxx               28      1.099023  2 N  dyy        


                     DFT Final Beta Molecular Orbital Analysis
                     -----------------------------------------

 Vector    1  Occ=1.000000D+00  E=-1.493673D+01  Symmetry=ag
              MO Center=  7.5D-14,  7.5D-14,  4.6D-09, r^2= 3.2D-01
   Bfn.  Coefficient  Atom+Function         Bfn.  Coefficient  Atom+Function  
  ----- ------------  ---------------      ----- ------------  ---------------
     1      0.702096  1 N  s                 16      0.702096  2 N  s          

 Vector    2  Occ=1.000000D+00  E=-1.493519D+01  Symmetry=b1u
              MO Center=  4.3D-14,  4.3D-14, -4.6D-09, r^2= 3.2D-01
   Bfn.  Coefficient  Atom+Function         Bfn.  Coefficient  Atom+Function  
  ----- ------------  ---------------      ----- ------------  ---------------
     1      0.702252  1 N  s                 16     -0.702252  2 N  s          

 Vector    3  Occ=1.000000D+00  E=-1.555875D+00  Symmetry=ag
              MO Center= -3.6D-10, -3.6D-10, -1.0D-12, r^2= 4.2D-01
   Bfn.  Coefficient  Atom+Function         Bfn.  Coefficient  Atom+Function  
  ----- ------------  ---------------      ----- ------------  ---------------
     2      0.357310  1 N  s                 17      0.357310  2 N  s          
     5      0.234770  1 N  pz                20     -0.234770  2 N  pz         
     6      0.170197  1 N  s                 21      0.170197  2 N  s          
     1     -0.160251  1 N  s                 16     -0.160251  2 N  s          
     9      0.030500  1 N  pz                24     -0.030500  2 N  pz         

 Vector    4  Occ=1.000000D+00  E=-9.264228D-01  Symmetry=b1u
              MO Center= -1.4D-11, -1.4D-11,  5.8D-13, r^2= 1.2D+00
   Bfn.  Coefficient  Atom+Function         Bfn.  Coefficient  Atom+Function  
  ----- ------------  ---------------      ----- ------------  ---------------
     6      0.578725  1 N  s                 21     -0.578725  2 N  s          
     2      0.369229  1 N  s                 17     -0.369229  2 N  s          
     5     -0.210493  1 N  pz                20     -0.210493  2 N  pz         
     1     -0.156103  1 N  s                 16      0.156103  2 N  s          
    15     -0.034457  1 N  dzz               30      0.034457  2 N  dzz        

 Vector    5  Occ=1.000000D+00  E=-8.796020D-01  Symmetry=b3u
              MO Center=  3.6D-10, -9.2D-30,  2.0D-17, r^2= 8.1D-01
   Bfn.  Coefficient  Atom+Function         Bfn.  Coefficient  Atom+Function  
  ----- ------------  ---------------      ----- ------------  ---------------
     3      0.487680  1 N  px                18      0.487680  2 N  px         
     7      0.197998  1 N  px                22      0.197998  2 N  px         
    12      0.075829  1 N  dxz               27     -0.075829  2 N  dxz        

 Vector    6  Occ=1.000000D+00  E=-8.796020D-01  Symmetry=b2u
              MO Center=  6.8D-29,  3.6D-10,  1.7D-17, r^2= 8.1D-01
   Bfn.  Coefficient  Atom+Function         Bfn.  Coefficient  Atom+Function  
  ----- ------------  ---------------      ----- ------------  ---------------
     4      0.487680  1 N  py                19      0.487680  2 N  py         
     8      0.197998  1 N  py                23      0.197998  2 N  py         
    14      0.075829  1 N  dyz               29     -0.075829  2 N  dyz        

 Vector    7  Occ=0.000000D+00  E=-7.296925D-01  Symmetry=ag
              MO Center= -1.1D-24,  1.2D-24,  6.4D-14, r^2= 1.2D+00
   Bfn.  Coefficient  Atom+Function         Bfn.  Coefficient  Atom+Function  
  ----- ------------  ---------------      ----- ------------  ---------------
     5      0.470602  1 N  pz                20     -0.470602  2 N  pz         
     6     -0.317409  1 N  s                 21     -0.317409  2 N  s          
     9      0.172926  1 N  pz                24     -0.172926  2 N  pz         
     2     -0.125674  1 N  s                 17     -0.125674  2 N  s          
     1      0.061339  1 N  s                 16      0.061339  2 N  s          

 Vector    8  Occ=0.000000D+00  E=-4.251349D-01  Symmetry=b3g
              MO Center= -4.9D-28,  1.3D-11, -2.7D-17, r^2= 1.1D+00
   Bfn.  Coefficient  Atom+Function         Bfn.  Coefficient  Atom+Function  
  ----- ------------  ---------------      ----- ------------  ---------------
     4      0.558681  1 N  py                19     -0.558681  2 N  py         
     8      0.465895  1 N  py                23     -0.465895  2 N  py         
    14     -0.025568  1 N  dyz               29     -0.025568  2 N  dyz        

 Vector    9  Occ=0.000000D+00  E=-4.251349D-01  Symmetry=b2g
              MO Center=  1.3D-11,  4.8D-28,  3.0D-17, r^2= 1.1D+00
   Bfn.  Coefficient  Atom+Function         Bfn.  Coefficient  Atom+Function  
  ----- ------------  ---------------      ----- ------------  ---------------
     3      0.558681  1 N  px                18     -0.558681  2 N  px         
     7      0.465895  1 N  px                22     -0.465895  2 N  px         
    12     -0.025568  1 N  dxz               27     -0.025568  2 N  dxz        

 Vector   10  Occ=0.000000D+00  E= 8.989113D-02  Symmetry=b1u
              MO Center=  4.9D-12,  4.9D-12,  2.0D-13, r^2= 2.8D+00
   Bfn.  Coefficient  Atom+Function         Bfn.  Coefficient  Atom+Function  
  ----- ------------  ---------------      ----- ------------  ---------------
     6      3.625272  1 N  s                 21     -3.625272  2 N  s          
     9      2.417850  1 N  pz                24      2.417850  2 N  pz         
     2      0.278129  1 N  s                 17     -0.278129  2 N  s          
     5      0.207228  1 N  pz                20      0.207228  2 N  pz         
     1     -0.099214  1 N  s                 16      0.099214  2 N  s          

 Vector   11  Occ=0.000000D+00  E= 2.516843D-01  Symmetry=ag
              MO Center=  6.0D-25, -6.2D-25, -3.8D-14, r^2= 1.8D+00
   Bfn.  Coefficient  Atom+Function         Bfn.  Coefficient  Atom+Function  
  ----- ------------  ---------------      ----- ------------  ---------------
     9      0.818151  1 N  pz                24     -0.818151  2 N  pz         
     2     -0.566883  1 N  s                 17     -0.566883  2 N  s          
     6      0.454903  1 N  s                 21      0.454903  2 N  s          
     5     -0.285591  1 N  pz                20      0.285591  2 N  pz         
    15     -0.181444  1 N  dzz               30     -0.181444  2 N  dzz        

 Vector   12  Occ=0.000000D+00  E= 2.535903D-01  Symmetry=b3u
              MO Center=  9.3D-12,  1.9D-29, -2.4D-18, r^2= 1.9D+00
   Bfn.  Coefficient  Atom+Function         Bfn.  Coefficient  Atom+Function  
  ----- ------------  ---------------      ----- ------------  ---------------
     7     -0.639283  1 N  px                22     -0.639283  2 N  px         
     3      0.605441  1 N  px                18      0.605441  2 N  px         
    12      0.137942  1 N  dxz               27     -0.137942  2 N  dxz        

 Vector   13  Occ=0.000000D+00  E= 2.535903D-01  Symmetry=b2u
              MO Center= -1.4D-29,  9.3D-12,  2.6D-17, r^2= 1.9D+00
   Bfn.  Coefficient  Atom+Function         Bfn.  Coefficient  Atom+Function  
  ----- ------------  ---------------      ----- ------------  ---------------
     8     -0.639283  1 N  py                23     -0.639283  2 N  py         
     4      0.605441  1 N  py                19      0.605441  2 N  py         
    14      0.137942  1 N  dyz               29     -0.137942  2 N  dyz        

 Vector   14  Occ=0.000000D+00  E= 3.081730D-01  Symmetry=ag
              MO Center= -5.8D-28, -1.4D-26,  4.8D-14, r^2= 2.6D+00
   Bfn.  Coefficient  Atom+Function         Bfn.  Coefficient  Atom+Function  
  ----- ------------  ---------------      ----- ------------  ---------------
     6      0.976466  1 N  s                 21      0.976466  2 N  s          
     2     -0.659061  1 N  s                 17     -0.659061  2 N  s          
     9     -0.524020  1 N  pz                24      0.524020  2 N  pz         
     5      0.416766  1 N  pz                20     -0.416766  2 N  pz         
    15     -0.135611  1 N  dzz               30     -0.135611  2 N  dzz        

 Vector   15  Occ=0.000000D+00  E= 4.043490D-01  Symmetry=b3g
              MO Center=  6.3D-29, -2.8D-12, -1.4D-16, r^2= 2.3D+00
   Bfn.  Coefficient  Atom+Function         Bfn.  Coefficient  Atom+Function  
  ----- ------------  ---------------      ----- ------------  ---------------
     8      1.256925  1 N  py                23     -1.256925  2 N  py         
     4     -0.646763  1 N  py                19      0.646763  2 N  py         
    14      0.055071  1 N  dyz               29      0.055071  2 N  dyz        

 Vector   16  Occ=0.000000D+00  E= 4.043490D-01  Symmetry=b2g
              MO Center= -2.8D-12, -6.2D-29,  2.0D-16, r^2= 2.3D+00
   Bfn.  Coefficient  Atom+Function         Bfn.  Coefficient  Atom+Function  
  ----- ------------  ---------------      ----- ------------  ---------------
     7      1.256925  1 N  px                22     -1.256925  2 N  px         
     3     -0.646763  1 N  px                18      0.646763  2 N  px         
    12      0.055071  1 N  dxz               27      0.055071  2 N  dxz        

 Vector   17  Occ=0.000000D+00  E= 4.170120D-01  Symmetry=b1u
              MO Center=  5.6D-13,  5.6D-13,  3.7D-13, r^2= 1.5D+00
   Bfn.  Coefficient  Atom+Function         Bfn.  Coefficient  Atom+Function  
  ----- ------------  ---------------      ----- ------------  ---------------
     5      0.737787  1 N  pz                20      0.737787  2 N  pz         
     6      0.589875  1 N  s                 21     -0.589875  2 N  s          
     9     -0.383615  1 N  pz                24     -0.383615  2 N  pz         
    15     -0.295372  1 N  dzz               30      0.295372  2 N  dzz        
     2     -0.208353  1 N  s                 17      0.208353  2 N  s          

 Vector   18  Occ=0.000000D+00  E= 8.982059D-01  Symmetry=b1u
              MO Center= -1.1D-24,  1.1D-24, -6.7D-14, r^2= 2.2D+00
   Bfn.  Coefficient  Atom+Function         Bfn.  Coefficient  Atom+Function  
  ----- ------------  ---------------      ----- ------------  ---------------
     6      7.174665  1 N  s                 21     -7.174665  2 N  s          
     9      3.248670  1 N  pz                24      3.248670  2 N  pz         
     2     -1.279988  1 N  s                 17      1.279988  2 N  s          
     5     -0.253336  1 N  pz                20     -0.253336  2 N  pz         
    10     -0.209909  1 N  dxx               13     -0.209909  1 N  dyy        

 Vector   19  Occ=0.000000D+00  E= 1.043223D+00  Symmetry=ag
              MO Center= -7.0D-16, -7.0D-16, -6.5D-16, r^2= 8.7D-01
   Bfn.  Coefficient  Atom+Function         Bfn.  Coefficient  Atom+Function  
  ----- ------------  ---------------      ----- ------------  ---------------
    10      0.564008  1 N  dxx               13     -0.564008  1 N  dyy        
    25      0.564008  2 N  dxx               28     -0.564008  2 N  dyy        

 Vector   20  Occ=0.000000D+00  E= 1.043223D+00  Symmetry=b1g
              MO Center= -3.2D-16, -3.2D-16, -6.4D-16, r^2= 8.7D-01
   Bfn.  Coefficient  Atom+Function         Bfn.  Coefficient  Atom+Function  
  ----- ------------  ---------------      ----- ------------  ---------------
    11      1.128016  1 N  dxy               26      1.128016  2 N  dxy        

 Vector   21  Occ=0.000000D+00  E= 1.148914D+00  Symmetry=b3u
              MO Center= -7.3D-12,  3.2D-16, -6.9D-17, r^2= 9.1D-01
   Bfn.  Coefficient  Atom+Function         Bfn.  Coefficient  Atom+Function  
  ----- ------------  ---------------      ----- ------------  ---------------
    12      1.038173  1 N  dxz               27     -1.038173  2 N  dxz        
     3     -0.264952  1 N  px                18     -0.264952  2 N  px         
     7      0.055796  1 N  px                22      0.055796  2 N  px         

 Vector   22  Occ=0.000000D+00  E= 1.148914D+00  Symmetry=b2u
              MO Center=  3.2D-16, -7.3D-12, -7.1D-17, r^2= 9.1D-01
   Bfn.  Coefficient  Atom+Function         Bfn.  Coefficient  Atom+Function  
  ----- ------------  ---------------      ----- ------------  ---------------
    14      1.038173  1 N  dyz               29     -1.038173  2 N  dyz        
     4     -0.264952  1 N  py                19     -0.264952  2 N  py         
     8      0.055796  1 N  py                23      0.055796  2 N  py         

 Vector   23  Occ=0.000000D+00  E= 1.540354D+00  Symmetry=au
              MO Center= -4.8D-30,  4.6D-30,  6.4D-16, r^2= 9.8D-01
   Bfn.  Coefficient  Atom+Function         Bfn.  Coefficient  Atom+Function  
  ----- ------------  ---------------      ----- ------------  ---------------
    11      1.351562  1 N  dxy               26     -1.351562  2 N  dxy        

 Vector   24  Occ=0.000000D+00  E= 1.540354D+00  Symmetry=b1u
              MO Center= -6.0D-25, -6.0D-25,  7.3D-16, r^2= 9.8D-01
   Bfn.  Coefficient  Atom+Function         Bfn.  Coefficient  Atom+Function  
  ----- ------------  ---------------      ----- ------------  ---------------
    10      0.675781  1 N  dxx               13     -0.675781  1 N  dyy        
    25     -0.675781  2 N  dxx               28      0.675781  2 N  dyy        

 Vector   25  Occ=0.000000D+00  E= 2.020428D+00  Symmetry=ag
              MO Center=  7.4D-21, -7.4D-21,  5.1D-12, r^2= 1.2D+00
   Bfn.  Coefficient  Atom+Function         Bfn.  Coefficient  Atom+Function  
  ----- ------------  ---------------      ----- ------------  ---------------
    10      0.662645  1 N  dxx               13      0.662645  1 N  dyy        
    25      0.662645  2 N  dxx               28      0.662645  2 N  dyy        
     9     -0.583114  1 N  pz                24      0.583114  2 N  pz         
    15     -0.572768  1 N  dzz               30     -0.572768  2 N  dzz        
     6     -0.531697  1 N  s                 21     -0.531697  2 N  s          

 Vector   26  Occ=0.000000D+00  E= 2.201899D+00  Symmetry=b3g
              MO Center= -9.0D-30, -1.3D-12,  1.4D-16, r^2= 1.2D+00
   Bfn.  Coefficient  Atom+Function         Bfn.  Coefficient  Atom+Function  
  ----- ------------  ---------------      ----- ------------  ---------------
    14      1.934932  1 N  dyz               29      1.934932  2 N  dyz        
     8      0.506015  1 N  py                23     -0.506015  2 N  py         
     4      0.235125  1 N  py                19     -0.235125  2 N  py         

 Vector   27  Occ=0.000000D+00  E= 2.201899D+00  Symmetry=b2g
              MO Center= -1.3D-12, -6.7D-31, -2.9D-17, r^2= 1.2D+00
   Bfn.  Coefficient  Atom+Function         Bfn.  Coefficient  Atom+Function  
  ----- ------------  ---------------      ----- ------------  ---------------
    12      1.934932  1 N  dxz               27      1.934932  2 N  dxz        
     7      0.506015  1 N  px                22     -0.506015  2 N  px         
     3      0.235125  1 N  px                18     -0.235125  2 N  px         

 Vector   28  Occ=0.000000D+00  E= 2.428084D+00  Symmetry=b1u
              MO Center= -7.2D-28, -1.2D-26, -7.2D-12, r^2= 1.3D+00
   Bfn.  Coefficient  Atom+Function         Bfn.  Coefficient  Atom+Function  
  ----- ------------  ---------------      ----- ------------  ---------------
     6      3.362801  1 N  s                 21     -3.362801  2 N  s          
     9      1.793646  1 N  pz                24      1.793646  2 N  pz         
    15      1.355271  1 N  dzz               30     -1.355271  2 N  dzz        
     5      1.099882  1 N  pz                20      1.099882  2 N  pz         
    10     -0.499112  1 N  dxx               13     -0.499112  1 N  dyy        

 Vector   29  Occ=0.000000D+00  E= 2.881094D+00  Symmetry=ag
              MO Center=  7.9D-28,  1.5D-27,  1.7D-11, r^2= 1.1D+00
   Bfn.  Coefficient  Atom+Function         Bfn.  Coefficient  Atom+Function  
  ----- ------------  ---------------      ----- ------------  ---------------
     2      1.266730  1 N  s                 17      1.266730  2 N  s          
    15     -1.098686  1 N  dzz               30     -1.098686  2 N  dzz        
     6      0.834398  1 N  s                 21      0.834398  2 N  s          
    10     -0.802227  1 N  dxx               13     -0.802227  1 N  dyy        
    25     -0.802227  2 N  dxx               28     -0.802227  2 N  dyy        

 Vector   30  Occ=0.000000D+00  E= 3.196787D+00  Symmetry=b1u
              MO Center= -6.2D-26,  3.5D-26, -1.5D-11, r^2= 1.4D+00
   Bfn.  Coefficient  Atom+Function         Bfn.  Coefficient  Atom+Function  
  ----- ------------  ---------------      ----- ------------  ---------------
     6      4.121810  1 N  s                 21     -4.121810  2 N  s          
     9      1.299474  1 N  pz                24      1.299474  2 N  pz         
    15     -1.191910  1 N  dzz               30      1.191910  2 N  dzz        
    10     -1.087880  1 N  dxx               13     -1.087880  1 N  dyy        
    25      1.087880  2 N  dxx               28      1.087880  2 N  dyy        


   alpha - beta orbital overlaps 
   ----------------------------- 


   alpha      1      2      3      4      5      6      7      8      9     10
    beta      1      2      3      4      7      6      5      8      9     10
 overlap   1.000  1.000  1.000  0.999  0.999  1.000  1.000  1.000  1.000  0.999


   alpha     11     12     13     14     15     16     17     18     19     20
    beta     11     12     13     14     17     16     15     18     19     20
 overlap   0.996  1.000  1.000  0.995  0.998  1.000  1.000  1.000  1.000  1.000


   alpha     21     22     23     24     25     26     27     28     29     30
    beta     21     22     24     23     25     27     26     28     29     30
 overlap   1.000  1.000  1.000  1.000  1.000  1.000  1.000  1.000  1.000  1.000


     --------------------------
     Expectation value of S2:  
     --------------------------
      <S2> =      0.7534 (Exact =     0.7500)


 center of mass
 --------------
 x =   0.00000000 y =   0.00000000 z =   0.00000000

 moments of inertia (a.u.)
 ------------------
          30.127164868984           0.000000000000           0.000000000000
           0.000000000000          30.127164868984           0.000000000000
           0.000000000000           0.000000000000           0.000000000000

     Multipole analysis of the density
     ---------------------------------

     L   x y z        total         alpha         beta         nuclear
     -   - - -        -----         -----         ----         -------
     0   0 0 0      1.000000     -7.000000     -6.000000     14.000000

     1   1 0 0      0.000000      0.000000      0.000000      0.000000
     1   0 1 0      0.000000      0.000000      0.000000      0.000000
     1   0 0 1      0.000000     -0.000000      0.000000      0.000000

     2   2 0 0     -6.212747     -3.309271     -2.903476      0.000000
     2   1 1 0      0.000000     -0.000000      0.000000      0.000000
     2   1 0 1      0.000000      0.000000      0.000000      0.000000
     2   0 2 0     -6.212747     -3.309271     -2.903476      0.000000
     2   0 1 1     -0.000000     -0.000000     -0.000000      0.000000
     2   0 0 2     -4.432807    -11.409973     -8.083114     15.060280

                                NWChem TDDFT Module
                                -------------------


                      TDDFT N2+ 1.0977A B3LYP/6-31G** QA TEST


            General Information
            -------------------
           No. of orbitals :      60
            Alpha orbitals :      30
             Beta orbitals :      30
        Alpha frozen cores :       0
         Beta frozen cores :       0
     Alpha frozen virtuals :       0
      Beta frozen virtuals :       0
         Spin multiplicity :       2
    Number of AO functions :      30
        Use of symmetry is : off
      Symmetry adaption is : on 
         Schwarz screening :  0.10D-07

              XC Information
              --------------
                  B3LYP Method XC Potential
              Hartree-Fock (Exact) Exchange   0.20          
                 Slater Exchange Functional   0.80 local    
             Becke 1988 Exchange Functional   0.72 non-local
       Lee-Yang-Parr Correlation Functional   0.81          
           VWN I RPA Correlation Functional   0.19 local    

             TDDFT Information
             -----------------
          Calculation type : TDDFT             
         Wavefunction type : Unrestricted
          No. of electrons :      13
           Alpha electrons :       7
            Beta electrons :       6
              No. of roots :      10
          Max subspacesize :    6000
            Max iterations :     100
               Target root :       1
           Target symmetry : none
      Symmetry restriction : off
                 Algorithm : Optimal
        Davidson threshold :  0.10D-03

            Memory Information
            ------------------
          Available GA space size is         689975544 doubles
          Available MA space size is         138056580 doubles
          Length of a trial vector is          161     144
          Algorithm : Incore multiple tensor contraction
          Estimated peak GA usage is           7621300 doubles
          Estimated peak MA usage is             71000 doubles

   10 smallest eigenvalue differences (eV) 
--------------------------------------------------------
  No. Spin  Occ  Vir  Irrep   E(Occ)    E(Vir)   E(Diff)
--------------------------------------------------------
    1    2    6    7 b2u      -0.880    -0.730     4.079
    2    2    5    7 b3u      -0.880    -0.730     4.079
    3    2    4    7 b1u      -0.926    -0.730     5.353
    4    1    7    8 au       -0.893    -0.449    12.088
    5    1    7    9 b1u      -0.893    -0.449    12.088
    6    1    6    8 b1u      -0.893    -0.449    12.088
    7    1    6    9 au       -0.893    -0.449    12.088
    8    2    6    8 b1u      -0.880    -0.425    12.367
    9    2    6    9 au       -0.880    -0.425    12.367
   10    2    5    8 au       -0.880    -0.425    12.367
--------------------------------------------------------

  Entering Davidson iterations
  Unrestricted

  Iter   NTrls   NConv    DeltaV     DeltaE      Time   
  ----  ------  ------  ---------  ---------  --------- 
    1     10       0     0.72E+00   0.10+100        0.6
    2     30       2     0.69E-01   0.30E+00        1.1
    3     46       3     0.51E-02   0.13E-02        1.0
    4     60       5     0.30E-03   0.65E-05        0.9
    5     68      10     0.85E-04   0.20E-07        0.5
  ----  ------  ------  ---------  ---------  --------- 
  Convergence criterion met

  Ground state ag       -108.945393436045 a.u.
  <S2> =   0.7534

  ----------------------------------------------------------------------------
  Root   1         b2u            0.039837933 a.u.                1.0840 eV 
  <S2> =   0.7471
  ----------------------------------------------------------------------------
     Transition Moments    X -0.00064   Y -0.30898   Z  0.00000
     Transition Moments   XX -0.00000  XY -0.00000  XZ -0.00000
     Transition Moments   YY -0.00000  YZ  0.00000  ZZ -0.00000
     Dipole Oscillator Strength                    0.0025355519
     Electric Quadrupole                           0.0000000000
     Magnetic Dipole                               0.0000000000
     Total Oscillator Strength                     0.0025355519

     Occ.    4 alpha b1u ---  Virt.    8 alpha b3g -0.08870 X
     Occ.    4 alpha b1u ---  Virt.    8 alpha b3g -0.07503 Y
     Occ.    4 beta  b1u ---  Virt.    8 beta  b3g  0.06743 Y
     Occ.    6 beta  b2u ---  Virt.    7 beta  ag  -1.00599 X
     Occ.    6 beta  b2u ---  Virt.    7 beta  ag  -0.10459 Y
  ----------------------------------------------------------------------------
  Root   2         b3u            0.039837933 a.u.                1.0840 eV 
  <S2> =   0.7471
  ----------------------------------------------------------------------------
     Transition Moments    X -0.30898   Y  0.00064   Z -0.00000
     Transition Moments   XX -0.00000  XY -0.00000  XZ -0.00000
     Transition Moments   YY -0.00000  YZ -0.00000  ZZ -0.00000
     Dipole Oscillator Strength                    0.0025355519
     Electric Quadrupole                           0.0000000000
     Magnetic Dipole                               0.0000000000
     Total Oscillator Strength                     0.0025355519

     Occ.    4 alpha b1u ---  Virt.    9 alpha b2g -0.08870 X
     Occ.    4 alpha b1u ---  Virt.    9 alpha b2g -0.07503 Y
     Occ.    4 beta  b1u ---  Virt.    9 beta  b2g  0.06743 Y
     Occ.    5 beta  b3u ---  Virt.    7 beta  ag  -1.00599 X
     Occ.    5 beta  b3u ---  Virt.    7 beta  ag  -0.10459 Y
  ----------------------------------------------------------------------------
  Root   3         b1u            0.116062977 a.u.                3.1582 eV 
  <S2> =   0.8215
  ----------------------------------------------------------------------------
     Transition Moments    X -0.00000   Y  0.00000   Z  0.69778
     Transition Moments   XX -0.00000  XY -0.00000  XZ  0.00000
     Transition Moments   YY -0.00000  YZ -0.00000  ZZ -0.00000
     Dipole Oscillator Strength                    0.0376740530
     Electric Quadrupole                           0.0000000000
     Magnetic Dipole                               0.0000000000
     Total Oscillator Strength                     0.0376740530

     Occ.    6 alpha b2u ---  Virt.    8 alpha b3g -0.23051 X
     Occ.    6 alpha b2u ---  Virt.    8 alpha b3g -0.11902 Y
     Occ.    7 alpha b3u ---  Virt.    9 alpha b2g -0.23051 X
     Occ.    7 alpha b3u ---  Virt.    9 alpha b2g -0.11902 Y
     Occ.    4 beta  b1u ---  Virt.    7 beta  ag  -0.96035 X
  ----------------------------------------------------------------------------
  Root   4         b1u            0.254048147 a.u.                6.9130 eV 
  <S2> =   2.6812
  ----------------------------------------------------------------------------
     Transition Moments    X  0.00000   Y -0.00000   Z -0.07939
     Transition Moments   XX  0.00000  XY  0.00000  XZ  0.00000
     Transition Moments   YY  0.00000  YZ  0.00000  ZZ  0.00000
     Dipole Oscillator Strength                    0.0010674973
     Electric Quadrupole                           0.0000000000
     Magnetic Dipole                               0.0000000000
     Total Oscillator Strength                     0.0010674973

     Occ.    6 alpha b2u ---  Virt.    8 alpha b3g -0.47898 X
     Occ.    6 alpha b2u ---  Virt.    8 alpha b3g -0.08512 Y
     Occ.    7 alpha b3u ---  Virt.    9 alpha b2g -0.47898 X
     Occ.    7 alpha b3u ---  Virt.    9 alpha b2g -0.08512 Y
     Occ.    4 beta  b1u ---  Virt.    7 beta  ag   0.19711 X
     Occ.    4 beta  b1u ---  Virt.    7 beta  ag  -0.06462 Y
     Occ.    5 beta  b3u ---  Virt.    9 beta  b2g  0.51770 X
     Occ.    5 beta  b3u ---  Virt.    9 beta  b2g  0.09875 Y
     Occ.    6 beta  b2u ---  Virt.    8 beta  b3g  0.51770 X
     Occ.    6 beta  b2u ---  Virt.    8 beta  b3g  0.09875 Y
  ----------------------------------------------------------------------------
  Root   5         b1u            0.288942034 a.u.                7.8625 eV 
  <S2> =   2.7472
  ----------------------------------------------------------------------------
     Transition Moments    X -0.00000   Y -0.00000   Z  0.00000
     Transition Moments   XX -0.00000  XY -0.00000  XZ  0.00000
     Transition Moments   YY -0.00000  YZ -0.00000  ZZ -0.00000
     Dipole Oscillator Strength                    0.0000000000
     Electric Quadrupole                           0.0000000000
     Magnetic Dipole                               0.0000000000
     Total Oscillator Strength                     0.0000000000

     Occ.    6 alpha b2u ---  Virt.    8 alpha b3g -0.52952 X
     Occ.    6 alpha b2u ---  Virt.    8 alpha b3g -0.06198 Y
     Occ.    7 alpha b3u ---  Virt.    9 alpha b2g  0.52952 X
     Occ.    7 alpha b3u ---  Virt.    9 alpha b2g  0.06198 Y
     Occ.    5 beta  b3u ---  Virt.    9 beta  b2g -0.47539 X
     Occ.    5 beta  b3u ---  Virt.    9 beta  b2g -0.06193 Y
     Occ.    6 beta  b2u ---  Virt.    8 beta  b3g  0.47539 X
     Occ.    6 beta  b2u ---  Virt.    8 beta  b3g  0.06193 Y
  ----------------------------------------------------------------------------
  Root   6         au             0.288942040 a.u.                7.8625 eV 
  <S2> =   2.7472
  ----------------------------------------------------------------------------
     Transition Moments    X -0.00000   Y  0.00000   Z  0.00000
     Transition Moments   XX -0.00000  XY  0.00000  XZ  0.00000
     Transition Moments   YY -0.00000  YZ  0.00000  ZZ -0.00000
     Dipole Oscillator Strength                    0.0000000000
     Electric Quadrupole                           0.0000000000
     Magnetic Dipole                               0.0000000000
     Total Oscillator Strength                     0.0000000000

     Occ.    6 alpha b2u ---  Virt.    9 alpha b2g -0.52952 X
     Occ.    6 alpha b2u ---  Virt.    9 alpha b2g -0.06198 Y
     Occ.    7 alpha b3u ---  Virt.    8 alpha b3g -0.52952 X
     Occ.    7 alpha b3u ---  Virt.    8 alpha b3g -0.06198 Y
     Occ.    5 beta  b3u ---  Virt.    8 beta  b3g  0.47539 X
     Occ.    5 beta  b3u ---  Virt.    8 beta  b3g  0.06193 Y
     Occ.    6 beta  b2u ---  Virt.    9 beta  b2g  0.47539 X
     Occ.    6 beta  b2u ---  Virt.    9 beta  b2g  0.06193 Y
  ----------------------------------------------------------------------------
  Root   7         au             0.340791278 a.u.                9.2734 eV 
  <S2> =   1.7533
  ----------------------------------------------------------------------------
     Transition Moments    X  0.00000   Y  0.00000   Z -0.00000
     Transition Moments   XX -0.00000  XY  0.00000  XZ  0.00000
     Transition Moments   YY -0.00000  YZ -0.00000  ZZ  0.00000
     Dipole Oscillator Strength                    0.0000000000
     Electric Quadrupole                           0.0000000000
     Magnetic Dipole                               0.0000000000
     Total Oscillator Strength                     0.0000000000

     Occ.    6 alpha b2u ---  Virt.    9 alpha b2g  0.70737 X
     Occ.    7 alpha b3u ---  Virt.    8 alpha b3g -0.70737 X
  ----------------------------------------------------------------------------
  Root   8         au             0.351283436 a.u.                9.5589 eV 
  <S2> =   1.7533
  ----------------------------------------------------------------------------
     Transition Moments    X -0.00000   Y -0.00000   Z -0.00000
     Transition Moments   XX  0.00000  XY -0.00000  XZ -0.00000
     Transition Moments   YY  0.00000  YZ  0.00000  ZZ -0.00000
     Dipole Oscillator Strength                    0.0000000000
     Electric Quadrupole                           0.0000000000
     Magnetic Dipole                               0.0000000000
     Total Oscillator Strength                     0.0000000000

     Occ.    5 beta  b3u ---  Virt.    8 beta  b3g  0.70731 X
     Occ.    6 beta  b2u ---  Virt.    9 beta  b2g -0.70731 X
  ----------------------------------------------------------------------------
  Root   9         b1u            0.363212906 a.u.                9.8835 eV 
  <S2> =   0.7593
  ----------------------------------------------------------------------------
     Transition Moments    X -0.00000   Y -0.00000   Z -0.00000
     Transition Moments   XX -0.00000  XY -0.00000  XZ  0.00000
     Transition Moments   YY -0.00000  YZ -0.00000  ZZ -0.00000
     Dipole Oscillator Strength                    0.0000000000
     Electric Quadrupole                           0.0000000000
     Magnetic Dipole                               0.0000000000
     Total Oscillator Strength                     0.0000000000

     Occ.    6 alpha b2u ---  Virt.    8 alpha b3g  0.47192 X
     Occ.    7 alpha b3u ---  Virt.    9 alpha b2g -0.47192 X
     Occ.    5 beta  b3u ---  Virt.    9 beta  b2g -0.52642 X
     Occ.    6 beta  b2u ---  Virt.    8 beta  b3g  0.52642 X
  ----------------------------------------------------------------------------
  Root  10         au             0.363212907 a.u.                9.8835 eV 
  <S2> =   0.7593
  ----------------------------------------------------------------------------
     Transition Moments    X  0.00000   Y -0.00000   Z -0.00000
     Transition Moments   XX -0.00000  XY  0.00000  XZ -0.00000
     Transition Moments   YY -0.00000  YZ -0.00000  ZZ -0.00000
     Dipole Oscillator Strength                    0.0000000000
     Electric Quadrupole                           0.0000000000
     Magnetic Dipole                               0.0000000000
     Total Oscillator Strength                     0.0000000000

     Occ.    6 alpha b2u ---  Virt.    9 alpha b2g -0.47192 X
     Occ.    7 alpha b3u ---  Virt.    8 alpha b3g -0.47192 X
     Occ.    5 beta  b3u ---  Virt.    8 beta  b3g -0.52642 X
     Occ.    6 beta  b2u ---  Virt.    9 beta  b2g -0.52642 X

              Target root =      1
          Target symmetry = none
      Ground state energy =   -108.945393436045
        Excitation energy =      0.039837933094
     Excited state energy =   -108.905555502951

  stored tddft:energy   -108.90555550295096     

 Task  times  cpu:        4.5s     wall:        4.5s


                                NWChem Input Module
                                -------------------


 Summary of allocated global arrays
-----------------------------------
  No active global arrays



                         GA Statistics for process    0
                         ------------------------------

       create   destroy   get      put      acc     scatter   gather  read&inc
calls: 1869     1869     1.63e+05 7.21e+04 2.71e+04  800        0      564     
number of processes/call 1.16e+00 1.26e+00 1.11e+00 0.00e+00 0.00e+00
bytes total:             1.16e+08 2.59e+07 7.00e+07 1.92e+03 0.00e+00 4.51e+03
bytes remote:            4.74e+07 3.73e+06 3.23e+07 0.00e+00 0.00e+00 0.00e+00
Max memory consumed for GA by this process: 12770720 bytes

MA_summarize_allocated_blocks: starting scan ...
heap block 'gridpts', handle 110, address 0x55bc074a24d8:
	type of elements:		double precision
	number of elements:		34435784
	address of client space:	0x55bc074a2540
	index for client space:		11615419
	total number of bytes:		275486384
MA_summarize_allocated_blocks: scan completed: 1 heap block, 0 stack blocks
MA usage statistics:

	allocation statistics:
					      heap	     stack
					      ----	     -----
	current number of blocks	         1	         0
	maximum number of blocks	        22	        53
	current total bytes		 275486384	         0
	maximum total bytes		 275992120	  22511528
	maximum total K-bytes		    275993	     22512
	maximum total M-bytes		       276	        23


                                     CITATION
                                     --------
                Please cite the following reference when publishing
                           results obtained with NWChem:

                 M. Valiev, E.J. Bylaska, N. Govind, K. Kowalski,
              T.P. Straatsma, H.J.J. van Dam, D. Wang, J. Nieplocha,
                        E. Apra, T.L. Windus, W.A. de Jong
                 "NWChem: a comprehensive and scalable open-source
                  solution for large scale molecular simulations"
                      Comput. Phys. Commun. 181, 1477 (2010)
                           doi:10.1016/j.cpc.2010.04.018

                                      AUTHORS
                                      -------
          E. Apra, E. J. Bylaska, W. A. de Jong, N. Govind, K. Kowalski,
       T. P. Straatsma, M. Valiev, H. J. J. van Dam, D. Wang, T. L. Windus,
        J. Hammond, J. Autschbach, K. Bhaskaran-Nair, J. Brabec, K. Lopata,
    S. A. Fischer, S. Krishnamoorthy, M. Jacquelin, W. Ma, M. Klemm, O. Villa,
      Y. Chen, V. Anisimov, F. Aquino, S. Hirata, M. T. Hackler, V. Konjkov,
            D. Mejia-Rodriguez, T. Risthaus, M. Malagoli, A. Marenich,
   A. Otero-de-la-Roza, J. Mullin, P. Nichols, R. Peverati, J. Pittner, Y. Zhao,
        P.-D. Fan, A. Fonari, M. J. Williamson, R. J. Harrison, J. R. Rehr,
      M. Dupuis, D. Silverstein, D. M. A. Smith, J. Nieplocha, V. Tipparaju,
    M. Krishnan, B. E. Van Kuiken, A. Vazquez-Mayagoitia, L. Jensen, M. Swart,
      Q. Wu, T. Van Voorhis, A. A. Auer, M. Nooijen, L. D. Crosby, E. Brown,
      G. Cisneros, G. I. Fann, H. Fruchtl, J. Garza, K. Hirao, R. A. Kendall,
      J. A. Nichols, K. Tsemekhman, K. Wolinski, J. Anchell, D. E. Bernholdt,
      P. Borowski, T. Clark, D. Clerc, H. Dachsel, M. J. O. Deegan, K. Dyall,
    D. Elwood, E. Glendening, M. Gutowski, A. C. Hess, J. Jaffe, B. G. Johnson,
     J. Ju, R. Kobayashi, R. Kutteh, Z. Lin, R. Littlefield, X. Long, B. Meng,
      T. Nakajima, S. Niu, L. Pollack, M. Rosing, K. Glaesemann, G. Sandrone,
      M. Stave, H. Taylor, G. Thomas, J. H. van Lenthe, A. T. Wong, Z. Zhang.

 Total times  cpu:        4.5s     wall:        4.5s
