 argument  1 = /home/list1234/source/nwchem-6.8.1-release/QA/tests/tpss/tpss.nw



============================== echo of input deck ==============================
echo
title "Test TPSS"

start tpss

geometry
  H     -1.62522691     0.82336660    -0.41716581
  N     -1.18023841    -0.07061179    -0.42251903
  C      0.19940157     0.03911263    -0.37821942
  H      0.77252807    -0.11338046    -1.30706692
  F      0.87977314    -0.05004215     0.77235361
end

basis cartesian
  C library 6-31g*
  N library 6-31g*
  F library 6-31g*
  H library 6-31g
end

dft
 xc xtpss03 ctpss03
 grid xfine
 vectors atomic
end
task dft

dft
  mult 1
  odft
  xc xtpss03 ctpss03
  grid xfine
  vectors atomic
end
task dft

dft
  mult 3
  odft
  xc xtpss03 ctpss03
  grid xfine
  vectors atomic
end
task dft
================================================================================


                                         
                                         


              Northwest Computational Chemistry Package (NWChem) 6.8
              ------------------------------------------------------


                    Environmental Molecular Sciences Laboratory
                       Pacific Northwest National Laboratory
                                Richland, WA 99352

                              Copyright (c) 1994-2018
                       Pacific Northwest National Laboratory
                            Battelle Memorial Institute

             NWChem is an open-source computational chemistry package
                        distributed under the terms of the
                      Educational Community License (ECL) 2.0
             A copy of the license is included with this distribution
                              in the LICENSE.TXT file

                                  ACKNOWLEDGMENT
                                  --------------

            This software and its documentation were developed at the
            EMSL at Pacific Northwest National Laboratory, a multiprogram
            national laboratory, operated for the U.S. Department of Energy
            by Battelle under Contract Number DE-AC05-76RL01830. Support
            for this work was provided by the Department of Energy Office
            of Biological and Environmental Research, Office of Basic
            Energy Sciences, and the Office of Advanced Scientific Computing.


           Job information
           ---------------

    hostname        = list1234-B360M-H
    program         = /home/list1234/source/nwchem-6.8.1-release/bin/LINUX64/nwchem
    date            = Sun Jun 30 08:04:59 2019

    compiled        = Sun_Jun_30_05:21:11_2019
    source          = /home/list1234/source/nwchem-6.8.1-release
    nwchem branch   = Development
    nwchem revision = N/A
    ga revision     = 5.6.5
    use scalapack   = T
    input           = /home/list1234/source/nwchem-6.8.1-release/QA/tests/tpss/tpss.nw
    prefix          = tpss.
    data base       = ./tpss.db
    status          = startup
    nproc           =        4
    time left       =     -1s



           Memory information
           ------------------

    heap     =   86247168 doubles =    658.0 Mbytes
    stack    =   86247165 doubles =    658.0 Mbytes
    global   =  172494336 doubles =   1316.0 Mbytes (distinct from heap & stack)
    total    =  344988669 doubles =   2632.1 Mbytes
    verify   = yes
    hardfail = no 


           Directory information
           ---------------------

  0 permanent = .
  0 scratch   = .




                                NWChem Input Module
                                -------------------


                                     Test TPSS
                                     ---------

 Scaling coordinates for geometry "geometry" by  1.889725989
 (inverse scale =  0.529177249)

 C1  symmetry detected

          ------
          auto-z
          ------
  no constraints, skipping    0.0000000000000000     
  no constraints, skipping    0.0000000000000000     


                             Geometry "geometry" -> ""
                             -------------------------

 Output coordinates in angstroms (scale by  1.889725989 to convert to a.u.)

  No.       Tag          Charge          X              Y              Z
 ---- ---------------- ---------- -------------- -------------- --------------
    1 H                    1.0000    -0.45702107     1.63174773     0.78857687
    2 N                    7.0000    -0.23616506     1.22924561    -0.09824637
    3 C                    6.0000     0.42748187     0.02114609     0.03395304
    4 H                    1.0000     1.51697132    -0.00488043    -0.12981864
    5 F                    9.0000    -0.21907623    -1.15094035    -0.01941687

      Atomic Mass 
      ----------- 

      H                  1.007825
      N                 14.003070
      C                 12.000000
      F                 18.998400


 Effective nuclear repulsion energy (a.u.)      65.4147877949

            Nuclear Dipole moment (a.u.) 
            ----------------------------
        X                 Y               Z
 ---------------- ---------------- ----------------
    -0.0000000000    -0.0000000000     0.0000000000



                                Z-matrix (autoz)
                                -------- 

 Units are Angstrom for bonds and degrees for angles

      Type          Name      I     J     K     L     M      Value
      ----------- --------  ----- ----- ----- ----- ----- ----------
    1 Stretch                  1     2                       0.99862
    2 Stretch                  2     3                       1.38471
    3 Stretch                  3     4                       1.10204
    4 Stretch                  3     5                       1.33965
    5 Bend                     1     2     3               111.89243
    6 Bend                     2     3     4               118.70039
    7 Bend                     2     3     5               121.88504
    8 Bend                     4     3     5               116.77914
    9 Torsion                  1     2     3     4        -102.85465
   10 Torsion                  1     2     3     5          96.14431


            XYZ format geometry
            -------------------
     5
 geometry
 H                    -0.45702107     1.63174773     0.78857687
 N                    -0.23616506     1.22924561    -0.09824637
 C                     0.42748187     0.02114609     0.03395304
 H                     1.51697132    -0.00488043    -0.12981864
 F                    -0.21907623    -1.15094035    -0.01941687

 ==============================================================================
                                internuclear distances
 ------------------------------------------------------------------------------
       center one      |      center two      | atomic units |  angstroms
 ------------------------------------------------------------------------------
    2 N                |   1 H                |     1.88712  |     0.99862
    3 C                |   2 N                |     2.61671  |     1.38471
    4 H                |   3 C                |     2.08255  |     1.10204
    5 F                |   3 C                |     2.53158  |     1.33965
 ------------------------------------------------------------------------------
                         number of included internuclear distances:          4
 ==============================================================================



 ==============================================================================
                                 internuclear angles
 ------------------------------------------------------------------------------
        center 1       |       center 2       |       center 3       |  degrees
 ------------------------------------------------------------------------------
    1 H                |   2 N                |   3 C                |   111.89
    2 N                |   3 C                |   4 H                |   118.70
    2 N                |   3 C                |   5 F                |   121.89
    4 H                |   3 C                |   5 F                |   116.78
 ------------------------------------------------------------------------------
                            number of included internuclear angles:          4
 ==============================================================================



                      Basis "ao basis" -> "" (cartesian)
                      -----
  C (Carbon)
  ----------
            Exponent  Coefficients 
       -------------- ---------------------------------------------------------
  1 S  3.04752490E+03  0.001835
  1 S  4.57369510E+02  0.014037
  1 S  1.03948690E+02  0.068843
  1 S  2.92101550E+01  0.232184
  1 S  9.28666300E+00  0.467941
  1 S  3.16392700E+00  0.362312

  2 S  7.86827240E+00 -0.119332
  2 S  1.88128850E+00 -0.160854
  2 S  5.44249300E-01  1.143456

  3 P  7.86827240E+00  0.068999
  3 P  1.88128850E+00  0.316424
  3 P  5.44249300E-01  0.744308

  4 S  1.68714400E-01  1.000000

  5 P  1.68714400E-01  1.000000

  6 D  8.00000000E-01  1.000000

  N (Nitrogen)
  ------------
            Exponent  Coefficients 
       -------------- ---------------------------------------------------------
  1 S  4.17351100E+03  0.001835
  1 S  6.27457900E+02  0.013995
  1 S  1.42902100E+02  0.068587
  1 S  4.02343300E+01  0.232241
  1 S  1.28202100E+01  0.469070
  1 S  4.39043700E+00  0.360455

  2 S  1.16263580E+01 -0.114961
  2 S  2.71628000E+00 -0.169118
  2 S  7.72218000E-01  1.145852

  3 P  1.16263580E+01  0.067580
  3 P  2.71628000E+00  0.323907
  3 P  7.72218000E-01  0.740895

  4 S  2.12031300E-01  1.000000

  5 P  2.12031300E-01  1.000000

  6 D  8.00000000E-01  1.000000

  F (Fluorine)
  ------------
            Exponent  Coefficients 
       -------------- ---------------------------------------------------------
  1 S  7.00171309E+03  0.001820
  1 S  1.05136609E+03  0.013916
  1 S  2.39285690E+02  0.068405
  1 S  6.73974453E+01  0.233186
  1 S  2.15199573E+01  0.471267
  1 S  7.40310130E+00  0.356619

  2 S  2.08479528E+01 -0.108507
  2 S  4.80830834E+00 -0.146452
  2 S  1.34406986E+00  1.128689

  3 P  2.08479528E+01  0.071629
  3 P  4.80830834E+00  0.345912
  3 P  1.34406986E+00  0.722470

  4 S  3.58151393E-01  1.000000

  5 P  3.58151393E-01  1.000000

  6 D  8.00000000E-01  1.000000

  H (Hydrogen)
  ------------
            Exponent  Coefficients 
       -------------- ---------------------------------------------------------
  1 S  1.87311370E+01  0.033495
  1 S  2.82539370E+00  0.234727
  1 S  6.40121700E-01  0.813757

  2 S  1.61277800E-01  1.000000



 Summary of "ao basis" -> "" (cartesian)
 ------------------------------------------------------------------------------
       Tag                 Description            Shells   Functions and Types
 ---------------- ------------------------------  ------  ---------------------
 C                           6-31g*                  6       15   3s2p1d
 N                           6-31g*                  6       15   3s2p1d
 F                           6-31g*                  6       15   3s2p1d
 H                           6-31g                   2        2   2s



                                 NWChem DFT Module
                                 -----------------


                                     Test TPSS




 Summary of "ao basis" -> "ao basis" (cartesian)
 ------------------------------------------------------------------------------
       Tag                 Description            Shells   Functions and Types
 ---------------- ------------------------------  ------  ---------------------
 C                           6-31g*                  6       15   3s2p1d
 N                           6-31g*                  6       15   3s2p1d
 F                           6-31g*                  6       15   3s2p1d
 H                           6-31g                   2        2   2s


  Caching 1-el integrals 

            General Information
            -------------------
          SCF calculation type: DFT
          Wavefunction type:  closed shell.
          No. of atoms     :     5
          No. of electrons :    24
           Alpha electrons :    12
            Beta electrons :    12
          Charge           :     0
          Spin multiplicity:     1
          Use of symmetry is: off; symmetry adaption is: off
          Maximum number of iterations:  30
          AO basis - number of functions:    49
                     number of shells:    22
          Convergence on energy requested:  1.00D-06
          Convergence on density requested:  1.00D-05
          Convergence on gradient requested:  5.00D-04

              XC Information
              --------------
                  TPSS metaGGA Exchange Functional  1.000          
             TPSS03 metaGGA Correlation Functional  1.000          

             Grid Information
             ----------------
          Grid used for XC integration:  xfine     
          Radial quadrature: Mura-Knowles        
          Angular quadrature: Lebedev. 
          Tag              B.-S. Rad. Rad. Pts. Rad. Cut. Ang. Pts.
          ---              ---------- --------- --------- ---------
          H                   0.35      100           8.0      1202
          N                   0.65      100           7.0      1454
          C                   0.70      100           7.0      1454
          F                   0.50      100           8.0      1454
          Grid pruning is: on 
          Number of quadrature shells:   500
          Spatial weights used:  Erf1

          Convergence Information
          -----------------------
          Convergence aids based upon iterative change in 
          total energy or number of iterations. 
          Levelshifting, if invoked, occurs when the 
          HOMO/LUMO gap drops below (HL_TOL):  1.00D-02
          DIIS, if invoked, will attempt to extrapolate 
          using up to (NFOCK): 10 stored Fock matrices.

                    Damping( 0%)  Levelshifting(0.5)       DIIS
                  --------------- ------------------- ---------------
          dE  on:    start            ASAP                start   
          dE off:    2 iters         30 iters            30 iters 


      Screening Tolerance Information
      -------------------------------
          Density screening/tol_rho:  1.00D-10
          AO Gaussian exp screening on grid/accAOfunc:  14
          CD Gaussian exp screening on grid/accCDfunc:  20
          XC Gaussian exp screening on grid/accXCfunc:  20
          Schwarz screening/accCoul:  1.00D-08


      Superposition of Atomic Density Guess
      -------------------------------------

 Sum of atomic energies:        -192.32278949

      Non-variational initial energy
      ------------------------------

 Total energy =    -193.147498
 1-e energy   =    -394.179153
 2-e energy   =     135.616868
 HOMO         =      -0.281088
 LUMO         =      -0.025805

   Time after variat. SCF:      0.1
   Time prior to 1st pass:      0.1

 Grid_pts file          = ./tpss.gridpts.0
 Record size in doubles =  12289        No. of grid_pts per rec  =   3070
 Max. records in memory =     67        Max. recs in file   = 253312716


           Memory utilization after 1st SCF pass: 
           Heap Space remaining (MW):       50.99            50986336
          Stack Space remaining (MW):       86.25            86246748

   convergence    iter        energy       DeltaE   RMS-Dens  Diis-err    time
 ---------------- ----- ----------------- --------- --------- ---------  ------
 d= 0,ls=0.0,diis     1   -193.6594983316 -2.59D+02  5.51D-02  1.18D+00     0.6
 d= 0,ls=0.0,diis     2   -192.2677415411  1.39D+00  4.91D-02  1.17D+01     1.1
 d= 0,ls=0.0,diis     3   -193.7472583000 -1.48D+00  1.19D-02  7.17D-01     1.6
 d= 0,ls=0.0,diis     4   -193.8130185796 -6.58D-02  2.16D-03  6.67D-02     2.0
 d= 0,ls=0.0,diis     5   -193.8188323532 -5.81D-03  5.26D-04  1.25D-03     2.5
  Resetting Diis
 d= 0,ls=0.0,diis     6   -193.8189855658 -1.53D-04  1.60D-04  6.42D-05     3.0
 d= 0,ls=0.0,diis     7   -193.8189922733 -6.71D-06  1.05D-04  6.28D-06     3.5
 d= 0,ls=0.0,diis     8   -193.8189901394  2.13D-06  8.41D-05  2.55D-05     4.0
 d= 0,ls=0.0,diis     9   -193.8189925077 -2.37D-06  3.07D-05  4.98D-06     4.5
 d= 0,ls=0.0,diis    10   -193.8189930803 -5.73D-07  4.86D-06  1.60D-07     5.0


         Total DFT energy =     -193.818993080254
      One electron energy =     -395.410381338341
           Coulomb energy =      159.615277306997
    Exchange-Corr. energy =      -23.438676843822
 Nuclear repulsion energy =       65.414787794912

 Numeric. integr. density =       24.000000014848

     Total iterative time =      4.9s



                       DFT Final Molecular Orbital Analysis
                       ------------------------------------

 Vector    1  Occ=2.000000D+00  E=-2.447591D+01
              MO Center= -2.2D-01, -1.2D+00, -1.9D-02, r^2= 1.2D-02
   Bfn.  Coefficient  Atom+Function         Bfn.  Coefficient  Atom+Function  
  ----- ------------  ---------------      ----- ------------  ---------------
    35      0.993425  5 F  s          

 Vector    2  Occ=2.000000D+00  E=-1.409251D+01
              MO Center= -2.4D-01,  1.2D+00, -9.8D-02, r^2= 2.0D-02
   Bfn.  Coefficient  Atom+Function         Bfn.  Coefficient  Atom+Function  
  ----- ------------  ---------------      ----- ------------  ---------------
     3      0.993561  2 N  s                  4      0.031767  2 N  s          

 Vector    3  Occ=2.000000D+00  E=-1.016258D+01
              MO Center=  4.3D-01,  2.1D-02,  3.4D-02, r^2= 2.8D-02
   Bfn.  Coefficient  Atom+Function         Bfn.  Coefficient  Atom+Function  
  ----- ------------  ---------------      ----- ------------  ---------------
    18      0.994172  3 C  s                 19      0.038722  3 C  s          

 Vector    4  Occ=2.000000D+00  E=-1.177117D+00
              MO Center= -1.3D-01, -9.9D-01, -1.2D-02, r^2= 4.0D-01
   Bfn.  Coefficient  Atom+Function         Bfn.  Coefficient  Atom+Function  
  ----- ------------  ---------------      ----- ------------  ---------------
    36      0.505643  5 F  s                 40      0.437168  5 F  s          
    35     -0.219749  5 F  s                 19      0.119810  3 C  s          
    21     -0.096036  3 C  py                38      0.087921  5 F  py         
    18     -0.064380  3 C  s                 20     -0.052038  3 C  px         
    37      0.051960  5 F  px                42      0.041340  5 F  py         

 Vector    5  Occ=2.000000D+00  E=-7.945149D-01
              MO Center= -3.1D-02,  8.3D-01,  7.0D-02, r^2= 9.5D-01
   Bfn.  Coefficient  Atom+Function         Bfn.  Coefficient  Atom+Function  
  ----- ------------  ---------------      ----- ------------  ---------------
     4      0.367581  2 N  s                  8      0.360791  2 N  s          
    19      0.243238  3 C  s                  3     -0.175537  2 N  s          
    21      0.145774  3 C  py                 1      0.130865  1 H  s          
    23      0.129236  3 C  s                 18     -0.114786  3 C  s          
    40     -0.115153  5 F  s                 36     -0.094119  5 F  s          

 Vector    6  Occ=2.000000D+00  E=-6.037246D-01
              MO Center=  2.2D-01, -1.5D-01,  3.4D-02, r^2= 1.9D+00
   Bfn.  Coefficient  Atom+Function         Bfn.  Coefficient  Atom+Function  
  ----- ------------  ---------------      ----- ------------  ---------------
    19      0.305401  3 C  s                 23      0.255959  3 C  s          
    40     -0.244361  5 F  s                 38      0.241650  5 F  py         
     8     -0.210034  2 N  s                 37      0.205415  5 F  px         
     4     -0.176306  2 N  s                 33      0.168506  4 H  s          
    21     -0.139141  3 C  py                36     -0.139444  5 F  s          

 Vector    7  Occ=2.000000D+00  E=-4.962949D-01
              MO Center=  3.2D-01, -5.4D-01, -3.6D-02, r^2= 1.4D+00
   Bfn.  Coefficient  Atom+Function         Bfn.  Coefficient  Atom+Function  
  ----- ------------  ---------------      ----- ------------  ---------------
    38      0.448690  5 F  py                20     -0.341054  3 C  px         
    42      0.264457  5 F  py                33     -0.197255  4 H  s          
    21     -0.177744  3 C  py                40     -0.166645  5 F  s          
    34     -0.122410  4 H  s                 24     -0.099037  3 C  px         
     5     -0.088420  2 N  px                23     -0.074720  3 C  s          

 Vector    8  Occ=2.000000D+00  E=-4.618142D-01
              MO Center= -1.2D-01,  2.7D-01,  7.5D-02, r^2= 1.9D+00
   Bfn.  Coefficient  Atom+Function         Bfn.  Coefficient  Atom+Function  
  ----- ------------  ---------------      ----- ------------  ---------------
    37      0.306063  5 F  px                 6      0.262985  2 N  py         
    21     -0.227816  3 C  py                 1      0.201593  1 H  s          
    39      0.197715  5 F  pz                 7      0.193569  2 N  pz         
    41      0.188066  5 F  px                20      0.170214  3 C  px         
    22      0.142096  3 C  pz                43      0.126669  5 F  pz         

 Vector    9  Occ=2.000000D+00  E=-4.278161D-01
              MO Center= -1.3D-01, -7.3D-01,  4.5D-02, r^2= 1.2D+00
   Bfn.  Coefficient  Atom+Function         Bfn.  Coefficient  Atom+Function  
  ----- ------------  ---------------      ----- ------------  ---------------
    39      0.543107  5 F  pz                43      0.359855  5 F  pz         
    22      0.205747  3 C  pz                37     -0.183436  5 F  px         
    26      0.133954  3 C  pz                 6     -0.117789  2 N  py         
    21      0.117291  3 C  py                41     -0.115302  5 F  px         
     8     -0.104741  2 N  s                 23      0.079452  3 C  s          

 Vector   10  Occ=2.000000D+00  E=-3.540962D-01
              MO Center=  2.5D-04, -4.6D-01, -8.5D-03, r^2= 1.8D+00
   Bfn.  Coefficient  Atom+Function         Bfn.  Coefficient  Atom+Function  
  ----- ------------  ---------------      ----- ------------  ---------------
    37      0.485865  5 F  px                41      0.330292  5 F  px         
    38     -0.243325  5 F  py                 8      0.211780  2 N  s          
    20     -0.185868  3 C  px                34     -0.169071  4 H  s          
     6     -0.167566  2 N  py                 7     -0.165303  2 N  pz         
    42     -0.164552  5 F  py                33     -0.158854  4 H  s          

 Vector   11  Occ=2.000000D+00  E=-2.798959D-01
              MO Center= -1.1D-01,  7.3D-01, -1.4D-01, r^2= 1.7D+00
   Bfn.  Coefficient  Atom+Function         Bfn.  Coefficient  Atom+Function  
  ----- ------------  ---------------      ----- ------------  ---------------
     7      0.362951  2 N  pz                 8     -0.307167  2 N  s          
    22      0.245605  3 C  pz                11      0.243169  2 N  pz         
    39     -0.240293  5 F  pz                 6     -0.210736  2 N  py         
    43     -0.183162  5 F  pz                 4     -0.158429  2 N  s          
    10     -0.153686  2 N  py                26      0.149853  3 C  pz         

 Vector   12  Occ=2.000000D+00  E=-1.774390D-01
              MO Center= -1.5D-01,  1.0D+00, -7.7D-02, r^2= 1.2D+00
   Bfn.  Coefficient  Atom+Function         Bfn.  Coefficient  Atom+Function  
  ----- ------------  ---------------      ----- ------------  ---------------
     5      0.520858  2 N  px                 9      0.405132  2 N  px         
     6      0.260674  2 N  py                10      0.228706  2 N  py         
    40      0.170935  5 F  s                 38      0.162740  5 F  py         
    34     -0.153521  4 H  s                 25      0.148915  3 C  py         
    42      0.141102  5 F  py                33     -0.085688  4 H  s          

 Vector   13  Occ=0.000000D+00  E=-1.113587D-01
              MO Center=  1.8D-01,  3.1D-01,  4.3D-02, r^2= 1.7D+00
   Bfn.  Coefficient  Atom+Function         Bfn.  Coefficient  Atom+Function  
  ----- ------------  ---------------      ----- ------------  ---------------
    22      0.564427  3 C  pz                26      0.457306  3 C  pz         
     8      0.296679  2 N  s                  7     -0.268725  2 N  pz         
    39     -0.253499  5 F  pz                11     -0.236149  2 N  pz         
    43     -0.217947  5 F  pz                 2     -0.209456  1 H  s          
    23      0.156243  3 C  s                  1     -0.150596  1 H  s          

 Vector   14  Occ=0.000000D+00  E= 7.876454D-02
              MO Center=  8.3D-01,  2.1D-01,  7.1D-02, r^2= 3.1D+00
   Bfn.  Coefficient  Atom+Function         Bfn.  Coefficient  Atom+Function  
  ----- ------------  ---------------      ----- ------------  ---------------
    23      1.599485  3 C  s                 34     -1.340814  4 H  s          
     8     -0.747679  2 N  s                  2      0.732026  1 H  s          
    40     -0.442485  5 F  s                 11     -0.297140  2 N  pz         
    24      0.271256  3 C  px                42     -0.247702  5 F  py         
    19      0.238752  3 C  s                 38     -0.208968  5 F  py         

 Vector   15  Occ=0.000000D+00  E= 1.209275D-01
              MO Center=  1.0D-01,  1.2D+00,  6.8D-01, r^2= 3.4D+00
   Bfn.  Coefficient  Atom+Function         Bfn.  Coefficient  Atom+Function  
  ----- ------------  ---------------      ----- ------------  ---------------
     2      1.534737  1 H  s                  8     -1.208527  2 N  s          
    34      1.060153  4 H  s                 11     -0.674375  2 N  pz         
    24     -0.576770  3 C  px                23     -0.512021  3 C  s          
     7     -0.267949  2 N  pz                20     -0.225185  3 C  px         
    26      0.219994  3 C  pz                25      0.189665  3 C  py         

 Vector   16  Occ=0.000000D+00  E= 1.602758D-01
              MO Center=  4.9D-01, -5.9D-02,  2.5D-02, r^2= 2.4D+00
   Bfn.  Coefficient  Atom+Function         Bfn.  Coefficient  Atom+Function  
  ----- ------------  ---------------      ----- ------------  ---------------
    34     -1.025544  4 H  s                 25      0.978155  3 C  py         
    40      0.852208  5 F  s                 24      0.770249  3 C  px         
     8     -0.636803  2 N  s                 20      0.436938  3 C  px         
     9     -0.411914  2 N  px                 2      0.398925  1 H  s          
    42      0.382160  5 F  py                21      0.352899  3 C  py         

 Vector   17  Occ=0.000000D+00  E= 2.722182D-01
              MO Center=  2.5D-01,  4.5D-01,  1.9D-02, r^2= 2.3D+00
   Bfn.  Coefficient  Atom+Function         Bfn.  Coefficient  Atom+Function  
  ----- ------------  ---------------      ----- ------------  ---------------
    25     -1.586352  3 C  py                 8      1.544815  2 N  s          
    23     -1.508290  3 C  s                 10     -1.255473  2 N  py         
    24      0.965590  3 C  px                 2      0.675412  1 H  s          
     9      0.651447  2 N  px                34     -0.446373  4 H  s          
     6     -0.357272  2 N  py                20      0.311605  3 C  px         

 Vector   18  Occ=0.000000D+00  E= 4.849932D-01
              MO Center=  4.2D-01, -2.4D-01,  9.5D-03, r^2= 1.9D+00
   Bfn.  Coefficient  Atom+Function         Bfn.  Coefficient  Atom+Function  
  ----- ------------  ---------------      ----- ------------  ---------------
    25      1.350552  3 C  py                21     -0.910431  3 C  py         
    40      0.738515  5 F  s                 23     -0.730662  3 C  s          
    24      0.363962  3 C  px                19      0.352126  3 C  s          
     8     -0.292859  2 N  s                 38     -0.269336  5 F  py         
    10     -0.204122  2 N  py                45      0.173252  5 F  dxy        

 Vector   19  Occ=0.000000D+00  E= 4.989625D-01
              MO Center=  4.9D-01,  2.8D-02,  2.1D-02, r^2= 2.0D+00
   Bfn.  Coefficient  Atom+Function         Bfn.  Coefficient  Atom+Function  
  ----- ------------  ---------------      ----- ------------  ---------------
    26      1.226882  3 C  pz                22     -0.966631  3 C  pz         
    24      0.393260  3 C  px                 8      0.260938  2 N  s          
    20     -0.203887  3 C  px                23     -0.192273  3 C  s          
     6      0.137127  2 N  py                10     -0.130155  2 N  py         
    40      0.125284  5 F  s                 25     -0.121812  3 C  py         

 Vector   20  Occ=0.000000D+00  E= 5.547674D-01
              MO Center= -1.8D-01,  2.1D-01,  2.0D-01, r^2= 1.8D+00
   Bfn.  Coefficient  Atom+Function         Bfn.  Coefficient  Atom+Function  
  ----- ------------  ---------------      ----- ------------  ---------------
    24      1.546639  3 C  px                23     -1.322609  3 C  s          
    19      0.845419  3 C  s                 25     -0.740277  3 C  py         
     8      0.728449  2 N  s                 20     -0.650588  3 C  px         
    34     -0.610119  4 H  s                 21      0.348576  3 C  py         
     2      0.305173  1 H  s                 26     -0.286020  3 C  pz         

 Vector   21  Occ=0.000000D+00  E= 6.471706D-01
              MO Center=  5.7D-01,  4.0D-01, -7.9D-02, r^2= 2.1D+00
   Bfn.  Coefficient  Atom+Function         Bfn.  Coefficient  Atom+Function  
  ----- ------------  ---------------      ----- ------------  ---------------
    23      1.055158  3 C  s                 24      1.045235  3 C  px         
    33     -0.685228  4 H  s                 19     -0.570224  3 C  s          
     5     -0.524645  2 N  px                34     -0.397152  4 H  s          
     9      0.340351  2 N  px                20     -0.226259  3 C  px         
     8      0.218358  2 N  s                 11     -0.193579  2 N  pz         

 Vector   22  Occ=0.000000D+00  E= 6.926683D-01
              MO Center= -4.1D-01,  1.6D+00, -2.2D-01, r^2= 1.4D+00
   Bfn.  Coefficient  Atom+Function         Bfn.  Coefficient  Atom+Function  
  ----- ------------  ---------------      ----- ------------  ---------------
    10      1.173505  2 N  py                23      0.773780  3 C  s          
     6     -0.610558  2 N  py                 7      0.581622  2 N  pz         
     9     -0.538403  2 N  px                11     -0.453439  2 N  pz         
     1     -0.397518  1 H  s                 25      0.335722  3 C  py         
     5      0.246587  2 N  px                 8     -0.243988  2 N  s          

 Vector   23  Occ=0.000000D+00  E= 7.737772D-01
              MO Center= -1.3D-01,  1.1D+00, -9.9D-02, r^2= 2.2D+00
   Bfn.  Coefficient  Atom+Function         Bfn.  Coefficient  Atom+Function  
  ----- ------------  ---------------      ----- ------------  ---------------
    24      1.469128  3 C  px                 9     -0.889060  2 N  px         
    34     -0.891746  4 H  s                 10     -0.861236  2 N  py         
     5      0.636217  2 N  px                11     -0.626829  2 N  pz         
    23      0.573687  3 C  s                  6      0.383159  2 N  py         
    20     -0.348035  3 C  px                 1      0.342048  1 H  s          

 Vector   24  Occ=0.000000D+00  E= 8.133357D-01
              MO Center=  9.8D-01,  2.4D-01, -1.2D-01, r^2= 2.3D+00
   Bfn.  Coefficient  Atom+Function         Bfn.  Coefficient  Atom+Function  
  ----- ------------  ---------------      ----- ------------  ---------------
    34     -1.646062  4 H  s                 23      1.577734  3 C  s          
    33      0.875303  4 H  s                 19     -0.777847  3 C  s          
    24      0.607534  3 C  px                20     -0.478457  3 C  px         
     9      0.423236  2 N  px                11     -0.403918  2 N  pz         
     1      0.255853  1 H  s                  5     -0.252750  2 N  px         

 Vector   25  Occ=0.000000D+00  E= 8.360259D-01
              MO Center=  1.2D-01,  8.9D-01,  8.3D-02, r^2= 2.7D+00
   Bfn.  Coefficient  Atom+Function         Bfn.  Coefficient  Atom+Function  
  ----- ------------  ---------------      ----- ------------  ---------------
    23      1.691907  3 C  s                 34     -1.290114  4 H  s          
    24      1.152428  3 C  px                 1     -0.869059  1 H  s          
    19     -0.773531  3 C  s                 11      0.766489  2 N  pz         
    26     -0.534788  3 C  pz                 9     -0.470916  2 N  px         
     2      0.395046  1 H  s                 20     -0.354836  3 C  px         

 Vector   26  Occ=0.000000D+00  E= 9.177020D-01
              MO Center= -2.9D-01,  1.3D+00,  3.0D-01, r^2= 2.1D+00
   Bfn.  Coefficient  Atom+Function         Bfn.  Coefficient  Atom+Function  
  ----- ------------  ---------------      ----- ------------  ---------------
    23      2.282086  3 C  s                  2     -1.736102  1 H  s          
    10      1.372753  2 N  py                11      1.182190  2 N  pz         
     9     -0.945806  2 N  px                25      0.837232  3 C  py         
     7     -0.704625  2 N  pz                19     -0.607383  3 C  s          
     6     -0.511688  2 N  py                 1      0.439501  1 H  s          

 Vector   27  Occ=0.000000D+00  E= 1.055480D+00
              MO Center= -3.9D-01, -1.3D+00, -1.3D-02, r^2= 1.6D+00
   Bfn.  Coefficient  Atom+Function         Bfn.  Coefficient  Atom+Function  
  ----- ------------  ---------------      ----- ------------  ---------------
    40      2.296361  5 F  s                 36     -1.118345  5 F  s          
    42     -0.766616  5 F  py                 8     -0.719372  2 N  s          
    38      0.549202  5 F  py                49     -0.533694  5 F  dzz        
    44     -0.522427  5 F  dxx               47     -0.477223  5 F  dyy        
    25      0.474728  3 C  py                41     -0.402424  5 F  px         

 Vector   28  Occ=0.000000D+00  E= 1.119199D+00
              MO Center= -5.4D-03,  5.6D-01,  5.0D-02, r^2= 2.4D+00
   Bfn.  Coefficient  Atom+Function         Bfn.  Coefficient  Atom+Function  
  ----- ------------  ---------------      ----- ------------  ---------------
     8      4.424220  2 N  s                 23     -2.805234  3 C  s          
     4     -1.463505  2 N  s                 10     -1.243353  2 N  py         
    25     -1.179524  3 C  py                24      0.806407  3 C  px         
    40      0.768998  5 F  s                  9      0.654758  2 N  px         
     2     -0.526437  1 H  s                 11      0.486725  2 N  pz         

 Vector   29  Occ=0.000000D+00  E= 1.164243D+00
              MO Center= -1.4D-01, -8.3D-01, -1.5D-02, r^2= 1.5D+00
   Bfn.  Coefficient  Atom+Function         Bfn.  Coefficient  Atom+Function  
  ----- ------------  ---------------      ----- ------------  ---------------
    43      1.031709  5 F  pz                39     -0.844198  5 F  pz         
     8      0.624877  2 N  s                 26     -0.455923  3 C  pz         
    11      0.411721  2 N  pz                29     -0.348137  3 C  dxz        
     4     -0.248938  2 N  s                 24      0.244073  3 C  px         
    34     -0.211991  4 H  s                 31     -0.192139  3 C  dyz        

 Vector   30  Occ=0.000000D+00  E= 1.306845D+00
              MO Center= -1.8D-01, -8.6D-01, -7.7D-03, r^2= 1.9D+00
   Bfn.  Coefficient  Atom+Function         Bfn.  Coefficient  Atom+Function  
  ----- ------------  ---------------      ----- ------------  ---------------
     8      2.174510  2 N  s                 24      1.466112  3 C  px         
    41     -1.071255  5 F  px                25     -1.023462  3 C  py         
    23     -0.863499  3 C  s                 10     -0.727726  2 N  py         
    37      0.685560  5 F  px                34     -0.662629  4 H  s          
    42      0.634892  5 F  py                 4     -0.510779  2 N  s          

 Vector   31  Occ=0.000000D+00  E= 1.384385D+00
              MO Center= -2.5D-02, -4.4D-02, -1.9D-02, r^2= 1.8D+00
   Bfn.  Coefficient  Atom+Function         Bfn.  Coefficient  Atom+Function  
  ----- ------------  ---------------      ----- ------------  ---------------
    31      0.974290  3 C  dyz               48     -0.531278  5 F  dyz        
    46     -0.463202  5 F  dxz                8     -0.452574  2 N  s          
    16     -0.416474  2 N  dyz               40     -0.390020  5 F  s          
    14      0.370158  2 N  dxz               43      0.338867  5 F  pz         
    17      0.318271  2 N  dzz               11     -0.252582  2 N  pz         

 Vector   32  Occ=0.000000D+00  E= 1.425232D+00
              MO Center=  1.1D-01, -1.5D-01,  8.4D-03, r^2= 1.7D+00
   Bfn.  Coefficient  Atom+Function         Bfn.  Coefficient  Atom+Function  
  ----- ------------  ---------------      ----- ------------  ---------------
    29      1.067865  3 C  dxz               48     -0.612189  5 F  dyz        
     8     -0.563599  2 N  s                 16      0.480413  2 N  dyz        
    40      0.470005  5 F  s                 25      0.424390  3 C  py         
    41      0.318819  5 F  px                43      0.319814  5 F  pz         
    10      0.248591  2 N  py                45     -0.245715  5 F  dxy        

 Vector   33  Occ=0.000000D+00  E= 1.631066D+00
              MO Center= -7.3D-03, -4.4D-01, -3.0D-02, r^2= 1.8D+00
   Bfn.  Coefficient  Atom+Function         Bfn.  Coefficient  Atom+Function  
  ----- ------------  ---------------      ----- ------------  ---------------
    40      3.070985  5 F  s                 36     -1.423671  5 F  s          
    25      0.852315  3 C  py                42      0.806480  5 F  py         
    47     -0.722391  5 F  dyy               23     -0.699819  3 C  s          
     8     -0.659901  2 N  s                 41      0.531084  5 F  px         
    45     -0.479339  5 F  dxy               38     -0.432995  5 F  py         

 Vector   34  Occ=0.000000D+00  E= 1.685356D+00
              MO Center=  5.9D-03, -2.5D-01, -3.0D-02, r^2= 1.9D+00
   Bfn.  Coefficient  Atom+Function         Bfn.  Coefficient  Atom+Function  
  ----- ------------  ---------------      ----- ------------  ---------------
     8      0.895842  2 N  s                 25     -0.854283  3 C  py         
    23     -0.841518  3 C  s                 40     -0.792913  5 F  s          
    49      0.643427  5 F  dzz               28      0.622246  3 C  dxy        
    14      0.471252  2 N  dxz               44     -0.471386  5 F  dxx        
    45      0.399084  5 F  dxy                9      0.324656  2 N  px         

 Vector   35  Occ=0.000000D+00  E= 1.708294D+00
              MO Center= -1.5D-01,  6.9D-01, -8.6D-02, r^2= 1.5D+00
   Bfn.  Coefficient  Atom+Function         Bfn.  Coefficient  Atom+Function  
  ----- ------------  ---------------      ----- ------------  ---------------
    14      1.232427  2 N  dxz               16      0.657481  2 N  dyz        
    24     -0.336190  3 C  px                28     -0.332430  3 C  dxy        
    46      0.328127  5 F  dxz               48      0.309720  5 F  dyz        
    44      0.304294  5 F  dxx               25      0.259874  3 C  py         
    45      0.249362  5 F  dxy               12     -0.223786  2 N  dxx        

 Vector   36  Occ=0.000000D+00  E= 1.734819D+00
              MO Center= -8.4D-02, -6.2D-01,  2.2D-02, r^2= 1.5D+00
   Bfn.  Coefficient  Atom+Function         Bfn.  Coefficient  Atom+Function  
  ----- ------------  ---------------      ----- ------------  ---------------
    46      1.034389  5 F  dxz               48     -0.721062  5 F  dyz        
    14     -0.467778  2 N  dxz               24     -0.427774  3 C  px         
    45      0.418948  5 F  dxy               33      0.377521  4 H  s          
    16     -0.337768  2 N  dyz               47     -0.336196  5 F  dyy        
    28     -0.321080  3 C  dxy               23     -0.280247  3 C  s          

 Vector   37  Occ=0.000000D+00  E= 1.800746D+00
              MO Center= -8.7D-02, -5.2D-01, -1.1D-01, r^2= 1.6D+00
   Bfn.  Coefficient  Atom+Function         Bfn.  Coefficient  Atom+Function  
  ----- ------------  ---------------      ----- ------------  ---------------
    46      1.047604  5 F  dxz               40     -0.706399  5 F  s          
    23      0.660333  3 C  s                 45     -0.559506  5 F  dxy        
    47      0.517870  5 F  dyy               14      0.505206  2 N  dxz        
    16     -0.360277  2 N  dyz               33     -0.337242  4 H  s          
    28      0.317278  3 C  dxy                8     -0.297401  2 N  s          

 Vector   38  Occ=0.000000D+00  E= 1.859304D+00
              MO Center= -9.1D-03, -1.2D-01,  2.8D-02, r^2= 2.1D+00
   Bfn.  Coefficient  Atom+Function         Bfn.  Coefficient  Atom+Function  
  ----- ------------  ---------------      ----- ------------  ---------------
    40      2.452291  5 F  s                 24      1.408631  3 C  px         
    23     -1.076549  3 C  s                 36     -0.852851  5 F  s          
    44     -0.601359  5 F  dxx               13      0.595673  2 N  dxy        
    47     -0.559838  5 F  dyy               42      0.525906  5 F  py         
     8      0.497042  2 N  s                 25      0.491460  3 C  py         

 Vector   39  Occ=0.000000D+00  E= 1.985951D+00
              MO Center=  1.7D-01, -1.4D-01,  1.0D-02, r^2= 1.4D+00
   Bfn.  Coefficient  Atom+Function         Bfn.  Coefficient  Atom+Function  
  ----- ------------  ---------------      ----- ------------  ---------------
    23      1.589902  3 C  s                 40     -1.112218  5 F  s          
    32     -0.920577  3 C  dzz                8     -0.824436  2 N  s          
    45      0.690301  5 F  dxy               19     -0.456197  3 C  s          
    24     -0.398540  3 C  px                30      0.384541  3 C  dyy        
    36      0.338459  5 F  s                 33     -0.305501  4 H  s          

 Vector   40  Occ=0.000000D+00  E= 2.106882D+00
              MO Center= -2.6D-02,  5.6D-01,  5.6D-02, r^2= 1.6D+00
   Bfn.  Coefficient  Atom+Function         Bfn.  Coefficient  Atom+Function  
  ----- ------------  ---------------      ----- ------------  ---------------
     8      1.500352  2 N  s                 13     -0.925433  2 N  dxy        
    29      0.917406  3 C  dxz               11      0.731106  2 N  pz         
    23     -0.598860  3 C  s                  1     -0.579811  1 H  s          
     4     -0.503241  2 N  s                 48      0.500748  5 F  dyz        
    31     -0.486254  3 C  dyz               17      0.471587  2 N  dzz        

 Vector   41  Occ=0.000000D+00  E= 2.203176D+00
              MO Center=  1.2D-01,  1.4D-01, -2.0D-02, r^2= 1.6D+00
   Bfn.  Coefficient  Atom+Function         Bfn.  Coefficient  Atom+Function  
  ----- ------------  ---------------      ----- ------------  ---------------
    28      1.019520  3 C  dxy                8     -0.804123  2 N  s          
    13      0.781983  2 N  dxy               29      0.683634  3 C  dxz        
    23      0.523066  3 C  s                 10      0.509861  2 N  py         
    48      0.483522  5 F  dyz               16     -0.455834  2 N  dyz        
    45      0.421692  5 F  dxy               17      0.400107  2 N  dzz        

 Vector   42  Occ=0.000000D+00  E= 2.353126D+00
              MO Center= -5.2D-02,  3.9D-01, -4.0D-02, r^2= 1.9D+00
   Bfn.  Coefficient  Atom+Function         Bfn.  Coefficient  Atom+Function  
  ----- ------------  ---------------      ----- ------------  ---------------
     8      1.295428  2 N  s                 48     -0.902800  5 F  dyz        
    16      0.818527  2 N  dyz                1     -0.765807  1 H  s          
    29     -0.739377  3 C  dxz               23     -0.680730  3 C  s          
    12     -0.614302  2 N  dxx               28      0.571985  3 C  dxy        
    31     -0.550788  3 C  dyz               24      0.513256  3 C  px         

 Vector   43  Occ=0.000000D+00  E= 2.466344D+00
              MO Center=  3.8D-02,  2.0D-01, -4.5D-03, r^2= 1.7D+00
   Bfn.  Coefficient  Atom+Function         Bfn.  Coefficient  Atom+Function  
  ----- ------------  ---------------      ----- ------------  ---------------
    31      1.476048  3 C  dyz               16      0.995717  2 N  dyz        
    48      0.860673  5 F  dyz                8      0.834500  2 N  s          
    14     -0.731320  2 N  dxz               46      0.652159  5 F  dxz        
    23     -0.539702  3 C  s                  1     -0.509185  1 H  s          
    13     -0.347852  2 N  dxy               24      0.312205  3 C  px         

 Vector   44  Occ=0.000000D+00  E= 2.578898D+00
              MO Center= -1.3D-02,  6.3D-01, -4.6D-02, r^2= 1.6D+00
   Bfn.  Coefficient  Atom+Function         Bfn.  Coefficient  Atom+Function  
  ----- ------------  ---------------      ----- ------------  ---------------
     8      2.023172  2 N  s                 23     -1.670233  3 C  s          
    10     -1.289998  2 N  py                24      1.040152  3 C  px         
    15      0.948013  2 N  dyy               28      0.821405  3 C  dxy        
    25     -0.681562  3 C  py                40      0.638765  5 F  s          
    27     -0.633554  3 C  dxx               17     -0.555909  2 N  dzz        

 Vector   45  Occ=0.000000D+00  E= 2.744959D+00
              MO Center=  6.7D-02,  1.1D-01, -1.9D-02, r^2= 1.7D+00
   Bfn.  Coefficient  Atom+Function         Bfn.  Coefficient  Atom+Function  
  ----- ------------  ---------------      ----- ------------  ---------------
    13      1.244437  2 N  dxy               28     -1.202108  3 C  dxy        
     8     -0.973559  2 N  s                 23      0.822657  3 C  s          
    30      0.733153  3 C  dyy               40      0.672346  5 F  s          
    47      0.665497  5 F  dyy               21      0.642675  3 C  py         
    27     -0.640550  3 C  dxx               25      0.596855  3 C  py         

 Vector   46  Occ=0.000000D+00  E= 2.943300D+00
              MO Center=  7.7D-03, -6.3D-01, -5.6D-03, r^2= 1.3D+00
   Bfn.  Coefficient  Atom+Function         Bfn.  Coefficient  Atom+Function  
  ----- ------------  ---------------      ----- ------------  ---------------
    40      2.100972  5 F  s                 23     -1.552014  3 C  s          
    45      1.525710  5 F  dxy               42      1.264511  5 F  py         
    19     -1.063418  3 C  s                 36     -0.998583  5 F  s          
    28     -0.929131  3 C  dxy               21      0.783408  3 C  py         
    47      0.739502  5 F  dyy               41      0.718351  5 F  px         

 Vector   47  Occ=0.000000D+00  E= 3.670613D+00
              MO Center= -2.2D-01,  1.2D+00, -8.9D-02, r^2= 1.0D+00
   Bfn.  Coefficient  Atom+Function         Bfn.  Coefficient  Atom+Function  
  ----- ------------  ---------------      ----- ------------  ---------------
     8      3.569020  2 N  s                 12     -1.532096  2 N  dxx        
    17     -1.504108  2 N  dzz               15     -1.443952  2 N  dyy        
    23     -1.117304  3 C  s                  4      1.057565  2 N  s          
    40      0.788400  5 F  s                  2     -0.614674  1 H  s          
    19      0.588260  3 C  s                 24      0.589369  3 C  px         

 Vector   48  Occ=0.000000D+00  E= 4.053979D+00
              MO Center=  4.8D-02, -6.7D-01,  2.6D-03, r^2= 1.6D+00
   Bfn.  Coefficient  Atom+Function         Bfn.  Coefficient  Atom+Function  
  ----- ------------  ---------------      ----- ------------  ---------------
    40      6.604611  5 F  s                 44     -2.130487  5 F  dxx        
    49     -2.060120  5 F  dzz               47     -2.037072  5 F  dyy        
    19     -1.995032  3 C  s                 23     -1.995380  3 C  s          
    36     -1.530720  5 F  s                 30      1.400255  3 C  dyy        
    32      1.234300  3 C  dzz               27      1.165367  3 C  dxx        

 Vector   49  Occ=0.000000D+00  E= 4.214299D+00
              MO Center=  2.5D-01, -2.7D-01,  2.2D-02, r^2= 1.7D+00
   Bfn.  Coefficient  Atom+Function         Bfn.  Coefficient  Atom+Function  
  ----- ------------  ---------------      ----- ------------  ---------------
    40      6.785230  5 F  s                 49     -2.108929  5 F  dzz        
    19      2.058420  3 C  s                 44     -1.871411  5 F  dxx        
    30     -1.838340  3 C  dyy               36     -1.740662  5 F  s          
    27     -1.447283  3 C  dxx               47     -1.360685  5 F  dyy        
    42      1.288010  5 F  py                32     -1.075753  3 C  dzz        


 center of mass
 --------------
 x =  -0.05108870 y =  -0.11090912 z =  -0.02706111

 moments of inertia (a.u.)
 ------------------
         177.277805604554           0.000000000000           0.000000000000
           0.000000000000          25.609104683858           0.000000000000
           0.000000000000           0.000000000000         197.243046469324

     Multipole analysis of the density
     ---------------------------------

     L   x y z        total         alpha         beta         nuclear
     -   - - -        -----         -----         ----         -------
     0   0 0 0     -0.000000    -12.000000    -12.000000     24.000000

     1   1 0 0      0.554011      0.277005      0.277005     -0.000000
     1   0 1 0     -0.278848     -0.139424     -0.139424     -0.000000
     1   0 0 1      0.522752      0.261376      0.261376      0.000000

     2   2 0 0    -11.799023    -13.807422    -13.807422     15.815822
     2   1 1 0     -0.468490      0.590225      0.590225     -1.648939
     2   1 0 1     -0.576557      0.192996      0.192996     -0.962548
     2   0 2 0    -13.647242    -51.755813    -51.755813     89.864384
     2   0 1 1      1.762392     -0.274840     -0.274840      2.312073
     2   0 0 2    -11.588162     -7.073563     -7.073563      2.558963


 Task  times  cpu:        5.0s     wall:        5.0s


                                NWChem Input Module
                                -------------------



                                 NWChem DFT Module
                                 -----------------


                                     Test TPSS




 Summary of "ao basis" -> "ao basis" (cartesian)
 ------------------------------------------------------------------------------
       Tag                 Description            Shells   Functions and Types
 ---------------- ------------------------------  ------  ---------------------
 C                           6-31g*                  6       15   3s2p1d
 N                           6-31g*                  6       15   3s2p1d
 F                           6-31g*                  6       15   3s2p1d
 H                           6-31g                   2        2   2s


  Caching 1-el integrals 

            General Information
            -------------------
          SCF calculation type: DFT
          Wavefunction type:  spin polarized.
          No. of atoms     :     5
          No. of electrons :    24
           Alpha electrons :    12
            Beta electrons :    12
          Charge           :     0
          Spin multiplicity:     1
          Use of symmetry is: off; symmetry adaption is: off
          Maximum number of iterations:  30
          AO basis - number of functions:    49
                     number of shells:    22
          Convergence on energy requested:  1.00D-06
          Convergence on density requested:  1.00D-05
          Convergence on gradient requested:  5.00D-04

              XC Information
              --------------
                  TPSS metaGGA Exchange Functional  1.000          
             TPSS03 metaGGA Correlation Functional  1.000          

             Grid Information
             ----------------
          Grid used for XC integration:  xfine     
          Radial quadrature: Mura-Knowles        
          Angular quadrature: Lebedev. 
          Tag              B.-S. Rad. Rad. Pts. Rad. Cut. Ang. Pts.
          ---              ---------- --------- --------- ---------
          H                   0.35      100           8.0      1202
          N                   0.65      100           7.0      1454
          C                   0.70      100           7.0      1454
          F                   0.50      100           8.0      1454
          Grid pruning is: on 
          Number of quadrature shells:   500
          Spatial weights used:  Erf1

          Convergence Information
          -----------------------
          Convergence aids based upon iterative change in 
          total energy or number of iterations. 
          Levelshifting, if invoked, occurs when the 
          HOMO/LUMO gap drops below (HL_TOL):  1.00D-02
          DIIS, if invoked, will attempt to extrapolate 
          using up to (NFOCK): 10 stored Fock matrices.

                    Damping( 0%)  Levelshifting(0.5)       DIIS
                  --------------- ------------------- ---------------
          dE  on:    start            ASAP                start   
          dE off:    2 iters         30 iters            30 iters 


      Screening Tolerance Information
      -------------------------------
          Density screening/tol_rho:  1.00D-10
          AO Gaussian exp screening on grid/accAOfunc:  14
          CD Gaussian exp screening on grid/accCDfunc:  20
          XC Gaussian exp screening on grid/accXCfunc:  20
          Schwarz screening/accCoul:  1.00D-08


      Superposition of Atomic Density Guess
      -------------------------------------

 Sum of atomic energies:        -192.32278949

      Non-variational initial energy
      ------------------------------

 Total energy =    -193.147498
 1-e energy   =    -394.179153
 2-e energy   =     135.616868
 HOMO         =      -0.281088
 LUMO         =      -0.025805

   Time after variat. SCF:      5.1
   Time prior to 1st pass:      5.1

 Grid_pts file          = ./tpss.gridpts.0
 Record size in doubles =  12289        No. of grid_pts per rec  =   3070
 Max. records in memory =     67        Max. recs in file   = 253312716


           Memory utilization after 1st SCF pass: 
           Heap Space remaining (MW):       50.99            50986336
          Stack Space remaining (MW):       86.25            86246580

   convergence    iter        energy       DeltaE   RMS-Dens  Diis-err    time
 ---------------- ----- ----------------- --------- --------- ---------  ------
 d= 0,ls=0.0,diis     1   -193.6594980185 -2.59D+02  2.75D-02  2.94D-01     5.9
                                                     2.75D-02  2.94D-01
 d= 0,ls=0.0,diis     2   -192.2677415066  1.39D+00  2.46D-02  2.93D+00     6.9
                                                     2.46D-02  2.93D+00
 d= 0,ls=0.0,diis     3   -193.7472580604 -1.48D+00  5.94D-03  1.79D-01     8.0
                                                     5.94D-03  1.79D-01
 d= 0,ls=0.0,diis     4   -193.8130182628 -6.58D-02  1.08D-03  1.67D-02     9.2
                                                     1.08D-03  1.67D-02
 d= 0,ls=0.0,diis     5   -193.8188320431 -5.81D-03  2.63D-04  3.12D-04    10.3
                                                     2.63D-04  3.12D-04
  Resetting Diis
 d= 0,ls=0.0,diis     6   -193.8189855581 -1.54D-04  7.98D-05  1.60D-05    11.5
                                                     7.98D-05  1.60D-05
 d= 0,ls=0.0,diis     7   -193.8189922657 -6.71D-06  5.24D-05  1.57D-06    12.7
                                                     5.24D-05  1.57D-06
 d= 0,ls=0.0,diis     8   -193.8189901321  2.13D-06  4.20D-05  6.37D-06    13.9
                                                     4.20D-05  6.37D-06
 d= 0,ls=0.0,diis     9   -193.8189925002 -2.37D-06  1.54D-05  1.25D-06    15.1
                                                     1.54D-05  1.25D-06
 d= 0,ls=0.0,diis    10   -193.8189930727 -5.73D-07  2.43D-06  4.00D-08    16.4
                                                     2.43D-06  4.00D-08


         Total DFT energy =     -193.818993072731
      One electron energy =     -395.410381292099
           Coulomb energy =      159.615277257808
    Exchange-Corr. energy =      -23.438676833353
 Nuclear repulsion energy =       65.414787794912

 Numeric. integr. density =       24.000000015011

     Total iterative time =     11.3s



                    DFT Final Alpha Molecular Orbital Analysis
                    ------------------------------------------

 Vector    1  Occ=1.000000D+00  E=-2.447591D+01
              MO Center= -2.2D-01, -1.2D+00, -1.9D-02, r^2= 1.2D-02
   Bfn.  Coefficient  Atom+Function         Bfn.  Coefficient  Atom+Function  
  ----- ------------  ---------------      ----- ------------  ---------------
    35      0.993425  5 F  s          

 Vector    2  Occ=1.000000D+00  E=-1.409251D+01
              MO Center= -2.4D-01,  1.2D+00, -9.8D-02, r^2= 2.0D-02
   Bfn.  Coefficient  Atom+Function         Bfn.  Coefficient  Atom+Function  
  ----- ------------  ---------------      ----- ------------  ---------------
     3      0.993561  2 N  s                  4      0.031767  2 N  s          

 Vector    3  Occ=1.000000D+00  E=-1.016258D+01
              MO Center=  4.3D-01,  2.1D-02,  3.4D-02, r^2= 2.8D-02
   Bfn.  Coefficient  Atom+Function         Bfn.  Coefficient  Atom+Function  
  ----- ------------  ---------------      ----- ------------  ---------------
    18      0.994172  3 C  s                 19      0.038722  3 C  s          

 Vector    4  Occ=1.000000D+00  E=-1.177117D+00
              MO Center= -1.3D-01, -9.9D-01, -1.2D-02, r^2= 4.0D-01
   Bfn.  Coefficient  Atom+Function         Bfn.  Coefficient  Atom+Function  
  ----- ------------  ---------------      ----- ------------  ---------------
    36      0.505643  5 F  s                 40      0.437168  5 F  s          
    35     -0.219749  5 F  s                 19      0.119810  3 C  s          
    21     -0.096036  3 C  py                38      0.087921  5 F  py         
    18     -0.064380  3 C  s                 20     -0.052038  3 C  px         
    37      0.051960  5 F  px                42      0.041340  5 F  py         

 Vector    5  Occ=1.000000D+00  E=-7.945149D-01
              MO Center= -3.1D-02,  8.3D-01,  7.0D-02, r^2= 9.5D-01
   Bfn.  Coefficient  Atom+Function         Bfn.  Coefficient  Atom+Function  
  ----- ------------  ---------------      ----- ------------  ---------------
     4      0.367581  2 N  s                  8      0.360791  2 N  s          
    19      0.243238  3 C  s                  3     -0.175537  2 N  s          
    21      0.145774  3 C  py                 1      0.130865  1 H  s          
    23      0.129236  3 C  s                 18     -0.114786  3 C  s          
    40     -0.115153  5 F  s                 36     -0.094119  5 F  s          

 Vector    6  Occ=1.000000D+00  E=-6.037246D-01
              MO Center=  2.2D-01, -1.5D-01,  3.4D-02, r^2= 1.9D+00
   Bfn.  Coefficient  Atom+Function         Bfn.  Coefficient  Atom+Function  
  ----- ------------  ---------------      ----- ------------  ---------------
    19      0.305401  3 C  s                 23      0.255958  3 C  s          
    40     -0.244360  5 F  s                 38      0.241650  5 F  py         
     8     -0.210034  2 N  s                 37      0.205415  5 F  px         
     4     -0.176306  2 N  s                 33      0.168506  4 H  s          
    21     -0.139141  3 C  py                36     -0.139444  5 F  s          

 Vector    7  Occ=1.000000D+00  E=-4.962949D-01
              MO Center=  3.2D-01, -5.4D-01, -3.6D-02, r^2= 1.4D+00
   Bfn.  Coefficient  Atom+Function         Bfn.  Coefficient  Atom+Function  
  ----- ------------  ---------------      ----- ------------  ---------------
    38      0.448690  5 F  py                20     -0.341054  3 C  px         
    42      0.264457  5 F  py                33     -0.197255  4 H  s          
    21     -0.177744  3 C  py                40     -0.166645  5 F  s          
    34     -0.122410  4 H  s                 24     -0.099037  3 C  px         
     5     -0.088420  2 N  px                23     -0.074720  3 C  s          

 Vector    8  Occ=1.000000D+00  E=-4.618142D-01
              MO Center= -1.2D-01,  2.7D-01,  7.5D-02, r^2= 1.9D+00
   Bfn.  Coefficient  Atom+Function         Bfn.  Coefficient  Atom+Function  
  ----- ------------  ---------------      ----- ------------  ---------------
    37      0.306063  5 F  px                 6      0.262985  2 N  py         
    21     -0.227816  3 C  py                 1      0.201593  1 H  s          
    39      0.197715  5 F  pz                 7      0.193569  2 N  pz         
    41      0.188066  5 F  px                20      0.170214  3 C  px         
    22      0.142096  3 C  pz                43      0.126669  5 F  pz         

 Vector    9  Occ=1.000000D+00  E=-4.278161D-01
              MO Center= -1.3D-01, -7.3D-01,  4.5D-02, r^2= 1.2D+00
   Bfn.  Coefficient  Atom+Function         Bfn.  Coefficient  Atom+Function  
  ----- ------------  ---------------      ----- ------------  ---------------
    39      0.543107  5 F  pz                43      0.359855  5 F  pz         
    22      0.205747  3 C  pz                37     -0.183436  5 F  px         
    26      0.133954  3 C  pz                 6     -0.117789  2 N  py         
    21      0.117291  3 C  py                41     -0.115302  5 F  px         
     8     -0.104741  2 N  s                 23      0.079452  3 C  s          

 Vector   10  Occ=1.000000D+00  E=-3.540962D-01
              MO Center=  2.5D-04, -4.6D-01, -8.5D-03, r^2= 1.8D+00
   Bfn.  Coefficient  Atom+Function         Bfn.  Coefficient  Atom+Function  
  ----- ------------  ---------------      ----- ------------  ---------------
    37      0.485865  5 F  px                41      0.330292  5 F  px         
    38     -0.243325  5 F  py                 8      0.211780  2 N  s          
    20     -0.185868  3 C  px                34     -0.169071  4 H  s          
     6     -0.167566  2 N  py                 7     -0.165303  2 N  pz         
    42     -0.164552  5 F  py                33     -0.158854  4 H  s          

 Vector   11  Occ=1.000000D+00  E=-2.798959D-01
              MO Center= -1.1D-01,  7.3D-01, -1.4D-01, r^2= 1.7D+00
   Bfn.  Coefficient  Atom+Function         Bfn.  Coefficient  Atom+Function  
  ----- ------------  ---------------      ----- ------------  ---------------
     7      0.362951  2 N  pz                 8     -0.307167  2 N  s          
    22      0.245605  3 C  pz                11      0.243169  2 N  pz         
    39     -0.240293  5 F  pz                 6     -0.210736  2 N  py         
    43     -0.183162  5 F  pz                 4     -0.158429  2 N  s          
    10     -0.153686  2 N  py                26      0.149853  3 C  pz         

 Vector   12  Occ=1.000000D+00  E=-1.774389D-01
              MO Center= -1.5D-01,  1.0D+00, -7.7D-02, r^2= 1.2D+00
   Bfn.  Coefficient  Atom+Function         Bfn.  Coefficient  Atom+Function  
  ----- ------------  ---------------      ----- ------------  ---------------
     5      0.520858  2 N  px                 9      0.405132  2 N  px         
     6      0.260674  2 N  py                10      0.228706  2 N  py         
    40      0.170935  5 F  s                 38      0.162740  5 F  py         
    34     -0.153521  4 H  s                 25      0.148915  3 C  py         
    42      0.141102  5 F  py                33     -0.085688  4 H  s          

 Vector   13  Occ=0.000000D+00  E=-1.113587D-01
              MO Center=  1.8D-01,  3.1D-01,  4.3D-02, r^2= 1.7D+00
   Bfn.  Coefficient  Atom+Function         Bfn.  Coefficient  Atom+Function  
  ----- ------------  ---------------      ----- ------------  ---------------
    22      0.564427  3 C  pz                26      0.457306  3 C  pz         
     8      0.296679  2 N  s                  7     -0.268725  2 N  pz         
    39     -0.253499  5 F  pz                11     -0.236149  2 N  pz         
    43     -0.217947  5 F  pz                 2     -0.209456  1 H  s          
    23      0.156243  3 C  s                  1     -0.150596  1 H  s          

 Vector   14  Occ=0.000000D+00  E= 7.876452D-02
              MO Center=  8.3D-01,  2.1D-01,  7.1D-02, r^2= 3.1D+00
   Bfn.  Coefficient  Atom+Function         Bfn.  Coefficient  Atom+Function  
  ----- ------------  ---------------      ----- ------------  ---------------
    23      1.599484  3 C  s                 34     -1.340814  4 H  s          
     8     -0.747679  2 N  s                  2      0.732027  1 H  s          
    40     -0.442486  5 F  s                 11     -0.297140  2 N  pz         
    24      0.271256  3 C  px                42     -0.247702  5 F  py         
    19      0.238752  3 C  s                 38     -0.208968  5 F  py         

 Vector   15  Occ=0.000000D+00  E= 1.209275D-01
              MO Center=  1.0D-01,  1.2D+00,  6.8D-01, r^2= 3.4D+00
   Bfn.  Coefficient  Atom+Function         Bfn.  Coefficient  Atom+Function  
  ----- ------------  ---------------      ----- ------------  ---------------
     2      1.534737  1 H  s                  8     -1.208527  2 N  s          
    34      1.060154  4 H  s                 11     -0.674375  2 N  pz         
    24     -0.576771  3 C  px                23     -0.512022  3 C  s          
     7     -0.267949  2 N  pz                20     -0.225185  3 C  px         
    26      0.219994  3 C  pz                25      0.189665  3 C  py         

 Vector   16  Occ=0.000000D+00  E= 1.602757D-01
              MO Center=  4.9D-01, -5.9D-02,  2.5D-02, r^2= 2.4D+00
   Bfn.  Coefficient  Atom+Function         Bfn.  Coefficient  Atom+Function  
  ----- ------------  ---------------      ----- ------------  ---------------
    34     -1.025544  4 H  s                 25      0.978156  3 C  py         
    40      0.852208  5 F  s                 24      0.770249  3 C  px         
     8     -0.636804  2 N  s                 20      0.436938  3 C  px         
     9     -0.411914  2 N  px                 2      0.398926  1 H  s          
    42      0.382160  5 F  py                21      0.352899  3 C  py         

 Vector   17  Occ=0.000000D+00  E= 2.722182D-01
              MO Center=  2.5D-01,  4.5D-01,  1.9D-02, r^2= 2.3D+00
   Bfn.  Coefficient  Atom+Function         Bfn.  Coefficient  Atom+Function  
  ----- ------------  ---------------      ----- ------------  ---------------
    25     -1.586352  3 C  py                 8      1.544815  2 N  s          
    23     -1.508290  3 C  s                 10     -1.255473  2 N  py         
    24      0.965589  3 C  px                 2      0.675412  1 H  s          
     9      0.651446  2 N  px                34     -0.446373  4 H  s          
     6     -0.357272  2 N  py                20      0.311605  3 C  px         

 Vector   18  Occ=0.000000D+00  E= 4.849932D-01
              MO Center=  4.2D-01, -2.4D-01,  9.5D-03, r^2= 1.9D+00
   Bfn.  Coefficient  Atom+Function         Bfn.  Coefficient  Atom+Function  
  ----- ------------  ---------------      ----- ------------  ---------------
    25      1.350552  3 C  py                21     -0.910431  3 C  py         
    40      0.738515  5 F  s                 23     -0.730662  3 C  s          
    24      0.363962  3 C  px                19      0.352126  3 C  s          
     8     -0.292859  2 N  s                 38     -0.269336  5 F  py         
    10     -0.204122  2 N  py                45      0.173252  5 F  dxy        

 Vector   19  Occ=0.000000D+00  E= 4.989625D-01
              MO Center=  4.9D-01,  2.8D-02,  2.1D-02, r^2= 2.0D+00
   Bfn.  Coefficient  Atom+Function         Bfn.  Coefficient  Atom+Function  
  ----- ------------  ---------------      ----- ------------  ---------------
    26      1.226882  3 C  pz                22     -0.966631  3 C  pz         
    24      0.393260  3 C  px                 8      0.260938  2 N  s          
    20     -0.203887  3 C  px                23     -0.192273  3 C  s          
     6      0.137127  2 N  py                10     -0.130155  2 N  py         
    40      0.125284  5 F  s                 25     -0.121812  3 C  py         

 Vector   20  Occ=0.000000D+00  E= 5.547674D-01
              MO Center= -1.8D-01,  2.1D-01,  2.0D-01, r^2= 1.8D+00
   Bfn.  Coefficient  Atom+Function         Bfn.  Coefficient  Atom+Function  
  ----- ------------  ---------------      ----- ------------  ---------------
    24      1.546639  3 C  px                23     -1.322609  3 C  s          
    19      0.845419  3 C  s                 25     -0.740276  3 C  py         
     8      0.728449  2 N  s                 20     -0.650588  3 C  px         
    34     -0.610119  4 H  s                 21      0.348576  3 C  py         
     2      0.305172  1 H  s                 26     -0.286020  3 C  pz         

 Vector   21  Occ=0.000000D+00  E= 6.471706D-01
              MO Center=  5.7D-01,  4.0D-01, -7.9D-02, r^2= 2.1D+00
   Bfn.  Coefficient  Atom+Function         Bfn.  Coefficient  Atom+Function  
  ----- ------------  ---------------      ----- ------------  ---------------
    23      1.055158  3 C  s                 24      1.045235  3 C  px         
    33     -0.685228  4 H  s                 19     -0.570225  3 C  s          
     5     -0.524645  2 N  px                34     -0.397152  4 H  s          
     9      0.340351  2 N  px                20     -0.226258  3 C  px         
     8      0.218359  2 N  s                 11     -0.193579  2 N  pz         

 Vector   22  Occ=0.000000D+00  E= 6.926683D-01
              MO Center= -4.1D-01,  1.6D+00, -2.2D-01, r^2= 1.4D+00
   Bfn.  Coefficient  Atom+Function         Bfn.  Coefficient  Atom+Function  
  ----- ------------  ---------------      ----- ------------  ---------------
    10      1.173505  2 N  py                23      0.773780  3 C  s          
     6     -0.610558  2 N  py                 7      0.581622  2 N  pz         
     9     -0.538403  2 N  px                11     -0.453439  2 N  pz         
     1     -0.397518  1 H  s                 25      0.335722  3 C  py         
     5      0.246587  2 N  px                 8     -0.243988  2 N  s          

 Vector   23  Occ=0.000000D+00  E= 7.737771D-01
              MO Center= -1.3D-01,  1.1D+00, -9.9D-02, r^2= 2.2D+00
   Bfn.  Coefficient  Atom+Function         Bfn.  Coefficient  Atom+Function  
  ----- ------------  ---------------      ----- ------------  ---------------
    24      1.469128  3 C  px                 9     -0.889060  2 N  px         
    34     -0.891746  4 H  s                 10     -0.861235  2 N  py         
     5      0.636217  2 N  px                11     -0.626829  2 N  pz         
    23      0.573687  3 C  s                  6      0.383159  2 N  py         
    20     -0.348035  3 C  px                 1      0.342048  1 H  s          

 Vector   24  Occ=0.000000D+00  E= 8.133357D-01
              MO Center=  9.8D-01,  2.4D-01, -1.2D-01, r^2= 2.3D+00
   Bfn.  Coefficient  Atom+Function         Bfn.  Coefficient  Atom+Function  
  ----- ------------  ---------------      ----- ------------  ---------------
    34     -1.646063  4 H  s                 23      1.577735  3 C  s          
    33      0.875303  4 H  s                 19     -0.777848  3 C  s          
    24      0.607535  3 C  px                20     -0.478457  3 C  px         
     9      0.423236  2 N  px                11     -0.403918  2 N  pz         
     1      0.255852  1 H  s                  5     -0.252750  2 N  px         

 Vector   25  Occ=0.000000D+00  E= 8.360259D-01
              MO Center=  1.2D-01,  8.9D-01,  8.3D-02, r^2= 2.7D+00
   Bfn.  Coefficient  Atom+Function         Bfn.  Coefficient  Atom+Function  
  ----- ------------  ---------------      ----- ------------  ---------------
    23      1.691906  3 C  s                 34     -1.290113  4 H  s          
    24      1.152429  3 C  px                 1     -0.869058  1 H  s          
    19     -0.773530  3 C  s                 11      0.766490  2 N  pz         
    26     -0.534788  3 C  pz                 9     -0.470916  2 N  px         
     2      0.395045  1 H  s                 20     -0.354836  3 C  px         

 Vector   26  Occ=0.000000D+00  E= 9.177021D-01
              MO Center= -2.9D-01,  1.3D+00,  3.0D-01, r^2= 2.1D+00
   Bfn.  Coefficient  Atom+Function         Bfn.  Coefficient  Atom+Function  
  ----- ------------  ---------------      ----- ------------  ---------------
    23      2.282085  3 C  s                  2     -1.736102  1 H  s          
    10      1.372753  2 N  py                11      1.182190  2 N  pz         
     9     -0.945805  2 N  px                25      0.837232  3 C  py         
     7     -0.704625  2 N  pz                19     -0.607383  3 C  s          
     6     -0.511688  2 N  py                 1      0.439501  1 H  s          

 Vector   27  Occ=0.000000D+00  E= 1.055480D+00
              MO Center= -3.9D-01, -1.3D+00, -1.3D-02, r^2= 1.6D+00
   Bfn.  Coefficient  Atom+Function         Bfn.  Coefficient  Atom+Function  
  ----- ------------  ---------------      ----- ------------  ---------------
    40      2.296360  5 F  s                 36     -1.118345  5 F  s          
    42     -0.766616  5 F  py                 8     -0.719370  2 N  s          
    38      0.549202  5 F  py                49     -0.533694  5 F  dzz        
    44     -0.522426  5 F  dxx               47     -0.477222  5 F  dyy        
    25      0.474727  3 C  py                41     -0.402424  5 F  px         

 Vector   28  Occ=0.000000D+00  E= 1.119199D+00
              MO Center= -5.4D-03,  5.6D-01,  5.0D-02, r^2= 2.4D+00
   Bfn.  Coefficient  Atom+Function         Bfn.  Coefficient  Atom+Function  
  ----- ------------  ---------------      ----- ------------  ---------------
     8      4.424220  2 N  s                 23     -2.805235  3 C  s          
     4     -1.463505  2 N  s                 10     -1.243353  2 N  py         
    25     -1.179524  3 C  py                24      0.806408  3 C  px         
    40      0.768998  5 F  s                  9      0.654759  2 N  px         
     2     -0.526437  1 H  s                 11      0.486725  2 N  pz         

 Vector   29  Occ=0.000000D+00  E= 1.164243D+00
              MO Center= -1.4D-01, -8.3D-01, -1.5D-02, r^2= 1.5D+00
   Bfn.  Coefficient  Atom+Function         Bfn.  Coefficient  Atom+Function  
  ----- ------------  ---------------      ----- ------------  ---------------
    43      1.031709  5 F  pz                39     -0.844198  5 F  pz         
     8      0.624876  2 N  s                 26     -0.455923  3 C  pz         
    11      0.411721  2 N  pz                29     -0.348137  3 C  dxz        
     4     -0.248938  2 N  s                 24      0.244073  3 C  px         
    34     -0.211991  4 H  s                 31     -0.192139  3 C  dyz        

 Vector   30  Occ=0.000000D+00  E= 1.306845D+00
              MO Center= -1.8D-01, -8.6D-01, -7.7D-03, r^2= 1.9D+00
   Bfn.  Coefficient  Atom+Function         Bfn.  Coefficient  Atom+Function  
  ----- ------------  ---------------      ----- ------------  ---------------
     8      2.174509  2 N  s                 24      1.466112  3 C  px         
    41     -1.071255  5 F  px                25     -1.023462  3 C  py         
    23     -0.863499  3 C  s                 10     -0.727726  2 N  py         
    37      0.685560  5 F  px                34     -0.662629  4 H  s          
    42      0.634892  5 F  py                 4     -0.510779  2 N  s          

 Vector   31  Occ=0.000000D+00  E= 1.384385D+00
              MO Center= -2.5D-02, -4.4D-02, -1.9D-02, r^2= 1.8D+00
   Bfn.  Coefficient  Atom+Function         Bfn.  Coefficient  Atom+Function  
  ----- ------------  ---------------      ----- ------------  ---------------
    31      0.974290  3 C  dyz               48     -0.531278  5 F  dyz        
    46     -0.463202  5 F  dxz                8     -0.452573  2 N  s          
    16     -0.416474  2 N  dyz               40     -0.390020  5 F  s          
    14      0.370158  2 N  dxz               43      0.338867  5 F  pz         
    17      0.318271  2 N  dzz               11     -0.252582  2 N  pz         

 Vector   32  Occ=0.000000D+00  E= 1.425232D+00
              MO Center=  1.1D-01, -1.5D-01,  8.4D-03, r^2= 1.7D+00
   Bfn.  Coefficient  Atom+Function         Bfn.  Coefficient  Atom+Function  
  ----- ------------  ---------------      ----- ------------  ---------------
    29      1.067865  3 C  dxz               48     -0.612189  5 F  dyz        
     8     -0.563599  2 N  s                 16      0.480414  2 N  dyz        
    40      0.470005  5 F  s                 25      0.424390  3 C  py         
    41      0.318819  5 F  px                43      0.319814  5 F  pz         
    10      0.248591  2 N  py                45     -0.245714  5 F  dxy        

 Vector   33  Occ=0.000000D+00  E= 1.631066D+00
              MO Center= -7.3D-03, -4.4D-01, -3.0D-02, r^2= 1.8D+00
   Bfn.  Coefficient  Atom+Function         Bfn.  Coefficient  Atom+Function  
  ----- ------------  ---------------      ----- ------------  ---------------
    40      3.070985  5 F  s                 36     -1.423671  5 F  s          
    25      0.852315  3 C  py                42      0.806479  5 F  py         
    47     -0.722391  5 F  dyy               23     -0.699819  3 C  s          
     8     -0.659902  2 N  s                 41      0.531084  5 F  px         
    45     -0.479339  5 F  dxy               38     -0.432995  5 F  py         

 Vector   34  Occ=0.000000D+00  E= 1.685356D+00
              MO Center=  5.9D-03, -2.5D-01, -3.0D-02, r^2= 1.9D+00
   Bfn.  Coefficient  Atom+Function         Bfn.  Coefficient  Atom+Function  
  ----- ------------  ---------------      ----- ------------  ---------------
     8      0.895842  2 N  s                 25     -0.854283  3 C  py         
    23     -0.841518  3 C  s                 40     -0.792912  5 F  s          
    49      0.643427  5 F  dzz               28      0.622246  3 C  dxy        
    14      0.471252  2 N  dxz               44     -0.471386  5 F  dxx        
    45      0.399084  5 F  dxy                9      0.324656  2 N  px         

 Vector   35  Occ=0.000000D+00  E= 1.708294D+00
              MO Center= -1.5D-01,  6.9D-01, -8.6D-02, r^2= 1.5D+00
   Bfn.  Coefficient  Atom+Function         Bfn.  Coefficient  Atom+Function  
  ----- ------------  ---------------      ----- ------------  ---------------
    14      1.232427  2 N  dxz               16      0.657482  2 N  dyz        
    24     -0.336190  3 C  px                28     -0.332429  3 C  dxy        
    46      0.328127  5 F  dxz               48      0.309720  5 F  dyz        
    44      0.304294  5 F  dxx               25      0.259873  3 C  py         
    45      0.249362  5 F  dxy               12     -0.223786  2 N  dxx        

 Vector   36  Occ=0.000000D+00  E= 1.734819D+00
              MO Center= -8.4D-02, -6.2D-01,  2.2D-02, r^2= 1.5D+00
   Bfn.  Coefficient  Atom+Function         Bfn.  Coefficient  Atom+Function  
  ----- ------------  ---------------      ----- ------------  ---------------
    46      1.034389  5 F  dxz               48     -0.721061  5 F  dyz        
    14     -0.467778  2 N  dxz               24     -0.427774  3 C  px         
[...]

 Vector   30  Occ=0.000000D+00  E= 1.331224D+00
              MO Center= -1.9D-01, -9.0D-01, -1.0D-02, r^2= 1.8D+00
   Bfn.  Coefficient  Atom+Function         Bfn.  Coefficient  Atom+Function  
  ----- ------------  ---------------      ----- ------------  ---------------
     8      2.025259  2 N  s                 24      1.456342  3 C  px         
    41     -1.078507  5 F  px                25     -0.994001  3 C  py         
    23     -0.824085  3 C  s                 10     -0.704809  2 N  py         
    37      0.697265  5 F  px                34     -0.659127  4 H  s          
    42      0.656089  5 F  py                 4     -0.455266  2 N  s          

 Vector   31  Occ=0.000000D+00  E= 1.420359D+00
              MO Center= -3.4D-02,  8.1D-02, -2.7D-02, r^2= 1.8D+00
   Bfn.  Coefficient  Atom+Function         Bfn.  Coefficient  Atom+Function  
  ----- ------------  ---------------      ----- ------------  ---------------
    31      0.908302  3 C  dyz               16     -0.514222  2 N  dyz        
    48     -0.457189  5 F  dyz               46     -0.444293  5 F  dxz        
    40     -0.417617  5 F  s                 14      0.401456  2 N  dxz        
    17      0.344963  2 N  dzz               43      0.295600  5 F  pz         
     8     -0.261368  2 N  s                  1      0.232106  1 H  s          

 Vector   32  Occ=0.000000D+00  E= 1.473231D+00
              MO Center=  9.5D-02, -1.1D-01,  8.3D-03, r^2= 1.7D+00
   Bfn.  Coefficient  Atom+Function         Bfn.  Coefficient  Atom+Function  
  ----- ------------  ---------------      ----- ------------  ---------------
    29      1.000611  3 C  dxz               48     -0.668788  5 F  dyz        
    16      0.513509  2 N  dyz                8     -0.489993  2 N  s          
    40      0.457991  5 F  s                 25      0.370379  3 C  py         
    14      0.326032  2 N  dxz               43      0.322435  5 F  pz         
    13      0.258201  2 N  dxy               41      0.241410  5 F  px         

 Vector   33  Occ=0.000000D+00  E= 1.657746D+00
              MO Center= -6.4D-02, -2.7D-01, -3.9D-02, r^2= 1.9D+00
   Bfn.  Coefficient  Atom+Function         Bfn.  Coefficient  Atom+Function  
  ----- ------------  ---------------      ----- ------------  ---------------
    40      2.836369  5 F  s                 36     -1.334472  5 F  s          
    23     -0.847601  3 C  s                 42      0.779309  5 F  py         
    25      0.659583  3 C  py                47     -0.634914  5 F  dyy        
    41      0.495916  5 F  px                45     -0.486904  5 F  dxy        
     8     -0.451307  2 N  s                 38     -0.436238  5 F  py         

 Vector   34  Occ=0.000000D+00  E= 1.698429D+00
              MO Center= -1.5D-01,  7.1D-01, -9.1D-02, r^2= 1.6D+00
   Bfn.  Coefficient  Atom+Function         Bfn.  Coefficient  Atom+Function  
  ----- ------------  ---------------      ----- ------------  ---------------
    14      1.304330  2 N  dxz               40     -1.099290  5 F  s          
    16      0.695556  2 N  dyz               36      0.451375  5 F  s          
    25     -0.428759  3 C  py                 8      0.413163  2 N  s          
    48      0.395413  5 F  dyz               45      0.391936  5 F  dxy        
    49      0.335721  5 F  dzz               24     -0.305783  3 C  px         

 Vector   35  Occ=0.000000D+00  E= 1.717186D+00
              MO Center= -1.0D-03, -3.1D-01, -3.5D-02, r^2= 1.8D+00
   Bfn.  Coefficient  Atom+Function         Bfn.  Coefficient  Atom+Function  
  ----- ------------  ---------------      ----- ------------  ---------------
    40      1.081674  5 F  s                 25      0.907516  3 C  py         
    28     -0.662735  3 C  dxy                8     -0.656195  2 N  s          
    49     -0.597781  5 F  dzz               23      0.527292  3 C  s          
    44      0.484595  5 F  dxx               12     -0.385917  2 N  dxx        
    36     -0.349030  5 F  s                 14      0.342009  2 N  dxz        

 Vector   36  Occ=0.000000D+00  E= 1.769824D+00
              MO Center= -5.0D-02, -8.1D-01,  3.9D-02, r^2= 1.2D+00
   Bfn.  Coefficient  Atom+Function         Bfn.  Coefficient  Atom+Function  
  ----- ------------  ---------------      ----- ------------  ---------------
    46      1.113023  5 F  dxz               48     -0.655081  5 F  dyz        
    45      0.475203  5 F  dxy               24     -0.472648  3 C  px         
    33      0.408236  4 H  s                 47     -0.375758  5 F  dyy        
    28     -0.316406  3 C  dxy               25      0.287083  3 C  py         
    23     -0.276946  3 C  s                 27     -0.267977  3 C  dxx        

 Vector   37  Occ=0.000000D+00  E= 1.829391D+00
              MO Center= -8.6D-02, -5.8D-01, -1.1D-01, r^2= 1.6D+00
   Bfn.  Coefficient  Atom+Function         Bfn.  Coefficient  Atom+Function  
  ----- ------------  ---------------      ----- ------------  ---------------
    46      1.008975  5 F  dxz               40     -0.870943  5 F  s          
    23      0.697311  3 C  s                 45     -0.588621  5 F  dxy        
    47      0.574558  5 F  dyy               14      0.432652  2 N  dxz        
    16     -0.382058  2 N  dyz               33     -0.330184  4 H  s          
    36      0.312861  5 F  s                 25     -0.310685  3 C  py         

 Vector   38  Occ=0.000000D+00  E= 1.885536D+00
              MO Center= -1.6D-02, -1.3D-01,  2.7D-02, r^2= 2.1D+00
   Bfn.  Coefficient  Atom+Function         Bfn.  Coefficient  Atom+Function  
  ----- ------------  ---------------      ----- ------------  ---------------
    40      2.450669  5 F  s                 24      1.405549  3 C  px         
    23     -1.056968  3 C  s                 36     -0.873548  5 F  s          
    44     -0.641624  5 F  dxx               13      0.628396  2 N  dxy        
    42      0.552470  5 F  py                47     -0.534006  5 F  dyy        
    33     -0.503410  4 H  s                 10     -0.458088  2 N  py         

 Vector   39  Occ=0.000000D+00  E= 2.057412D+00
              MO Center=  1.9D-01, -4.9D-02,  1.9D-02, r^2= 1.4D+00
   Bfn.  Coefficient  Atom+Function         Bfn.  Coefficient  Atom+Function  
  ----- ------------  ---------------      ----- ------------  ---------------
    23      1.506157  3 C  s                 40     -0.934562  5 F  s          
    32     -0.917842  3 C  dzz                8     -0.769361  2 N  s          
    45      0.615371  5 F  dxy               19     -0.500904  3 C  s          
    30      0.382654  3 C  dyy                1      0.351878  1 H  s          
    16     -0.336315  2 N  dyz               24     -0.331245  3 C  px         

 Vector   40  Occ=0.000000D+00  E= 2.136971D+00
              MO Center= -2.7D-02,  5.7D-01,  6.6D-02, r^2= 1.6D+00
   Bfn.  Coefficient  Atom+Function         Bfn.  Coefficient  Atom+Function  
  ----- ------------  ---------------      ----- ------------  ---------------
     8      1.752767  2 N  s                 13     -1.007435  2 N  dxy        
    29      0.862084  3 C  dxz               23     -0.769042  3 C  s          
    11      0.748354  2 N  pz                 1     -0.641348  1 H  s          
     4     -0.550265  2 N  s                 31     -0.477495  3 C  dyz        
    48      0.436142  5 F  dyz               12     -0.433126  2 N  dxx        

 Vector   41  Occ=0.000000D+00  E= 2.238642D+00
              MO Center=  1.3D-01,  1.4D-01, -1.9D-02, r^2= 1.6D+00
   Bfn.  Coefficient  Atom+Function         Bfn.  Coefficient  Atom+Function  
  ----- ------------  ---------------      ----- ------------  ---------------
    28      0.997475  3 C  dxy                8     -0.745096  2 N  s          
    29      0.743013  3 C  dxz               13      0.718310  2 N  dxy        
    23      0.554114  3 C  s                 10      0.543075  2 N  py         
    17      0.457785  2 N  dzz               48      0.446601  5 F  dyz        
    45      0.427194  5 F  dxy               16     -0.397654  2 N  dyz        

 Vector   42  Occ=0.000000D+00  E= 2.380188D+00
              MO Center= -5.4D-02,  5.0D-01, -4.9D-02, r^2= 1.8D+00
   Bfn.  Coefficient  Atom+Function         Bfn.  Coefficient  Atom+Function  
  ----- ------------  ---------------      ----- ------------  ---------------
     8      1.354046  2 N  s                 16      0.983273  2 N  dyz        
    29     -0.840350  3 C  dxz               48     -0.795762  5 F  dyz        
     1     -0.777570  1 H  s                 23     -0.719413  3 C  s          
    12     -0.616136  2 N  dxx               24      0.568036  3 C  px         
    28      0.567474  3 C  dxy               40      0.440813  5 F  s          

 Vector   43  Occ=0.000000D+00  E= 2.518616D+00
              MO Center=  9.2D-02, -1.5D-02,  3.3D-03, r^2= 1.6D+00
   Bfn.  Coefficient  Atom+Function         Bfn.  Coefficient  Atom+Function  
  ----- ------------  ---------------      ----- ------------  ---------------
    31      1.576931  3 C  dyz               48      0.979103  5 F  dyz        
    16      0.842268  2 N  dyz               46      0.703105  5 F  dxz        
    14     -0.658522  2 N  dxz                8      0.532867  2 N  s          
     1     -0.369543  1 H  s                 23     -0.358114  3 C  s          
    43      0.332651  5 F  pz                13     -0.225475  2 N  dxy        

 Vector   44  Occ=0.000000D+00  E= 2.601308D+00
              MO Center=  1.7D-02,  6.1D-01, -4.2D-02, r^2= 1.6D+00
   Bfn.  Coefficient  Atom+Function         Bfn.  Coefficient  Atom+Function  
  ----- ------------  ---------------      ----- ------------  ---------------
     8      2.079844  2 N  s                 23     -1.749646  3 C  s          
    10     -1.301695  2 N  py                24      1.012620  3 C  px         
    15      0.924794  2 N  dyy               28      0.895130  3 C  dxy        
    25     -0.715277  3 C  py                27     -0.638659  3 C  dxx        
    40      0.616405  5 F  s                 17     -0.563292  2 N  dzz        

 Vector   45  Occ=0.000000D+00  E= 2.780390D+00
              MO Center=  9.4D-02,  5.3D-02, -1.4D-02, r^2= 1.7D+00
   Bfn.  Coefficient  Atom+Function         Bfn.  Coefficient  Atom+Function  
  ----- ------------  ---------------      ----- ------------  ---------------
    13      1.195215  2 N  dxy               28     -1.187031  3 C  dxy        
     8     -0.951167  2 N  s                 23      0.820861  3 C  s          
    30      0.762616  3 C  dyy               27     -0.673762  3 C  dxx        
    47      0.665901  5 F  dyy               40      0.619644  5 F  s          
    21      0.601714  3 C  py                25      0.571244  3 C  py         

 Vector   46  Occ=0.000000D+00  E= 2.991758D+00
              MO Center=  1.0D-02, -6.5D-01, -4.3D-03, r^2= 1.3D+00
   Bfn.  Coefficient  Atom+Function         Bfn.  Coefficient  Atom+Function  
  ----- ------------  ---------------      ----- ------------  ---------------
    40      2.096516  5 F  s                 45      1.531074  5 F  dxy        
    23     -1.518209  3 C  s                 42      1.273409  5 F  py         
    19     -1.027054  3 C  s                 36     -0.999319  5 F  s          
    28     -0.954997  3 C  dxy               21      0.810598  3 C  py         
    47      0.754240  5 F  dyy               41      0.721957  5 F  px         

 Vector   47  Occ=0.000000D+00  E= 3.661186D+00
              MO Center= -2.3D-01,  1.2D+00, -9.1D-02, r^2= 1.0D+00
   Bfn.  Coefficient  Atom+Function         Bfn.  Coefficient  Atom+Function  
  ----- ------------  ---------------      ----- ------------  ---------------
     8      3.552663  2 N  s                 12     -1.527812  2 N  dxx        
    17     -1.510716  2 N  dzz               15     -1.463842  2 N  dyy        
    23     -1.119040  3 C  s                  4      1.066310  2 N  s          
    40      0.739927  5 F  s                  2     -0.616961  1 H  s          
    24      0.570087  3 C  px                19      0.532364  3 C  s          

 Vector   48  Occ=0.000000D+00  E= 4.102923D+00
              MO Center= -1.9D-02, -8.0D-01, -1.7D-03, r^2= 1.6D+00
   Bfn.  Coefficient  Atom+Function         Bfn.  Coefficient  Atom+Function  
  ----- ------------  ---------------      ----- ------------  ---------------
    40      7.419176  5 F  s                 44     -2.348987  5 F  dxx        
    49     -2.315774  5 F  dzz               47     -2.185747  5 F  dyy        
    23     -2.027258  3 C  s                 36     -1.742043  5 F  s          
    19     -1.730939  3 C  s                 30      1.146806  3 C  dyy        
    32      1.095362  3 C  dzz               27      0.970695  3 C  dxx        

 Vector   49  Occ=0.000000D+00  E= 4.271446D+00
              MO Center=  3.3D-01, -1.6D-01,  2.8D-02, r^2= 1.5D+00
   Bfn.  Coefficient  Atom+Function         Bfn.  Coefficient  Atom+Function  
  ----- ------------  ---------------      ----- ------------  ---------------
    40      5.867854  5 F  s                 19      2.331960  3 C  s          
    30     -2.004127  3 C  dyy               49     -1.824292  5 F  dzz        
    27     -1.596224  3 C  dxx               44     -1.583077  5 F  dxx        
    36     -1.521406  5 F  s                 32     -1.234204  3 C  dzz        
    42      1.196446  5 F  py                47     -1.092222  5 F  dyy        


   alpha - beta orbital overlaps 
   ----------------------------- 


   alpha      1      2      3      4      5      6      7      8      9     10
    beta      1      2      3      4      5      6      7      8      9     10
 overlap   1.000  1.000  1.000  1.000  0.999  0.998  0.994  0.992  0.983  0.957


   alpha     11     12     13     14     15     16     17     18     19     20
    beta     11     12     13     14     15     16     17     19     18     20
 overlap   0.947  0.980  0.992  0.973  0.969  0.986  0.994  0.778  0.887  0.878


   alpha     21     22     23     24     25     26     27     28     29     30
    beta     21     22     23     24     25     26     27     28     29     30
 overlap   0.952  0.985  0.959  0.985  0.991  0.992  0.916  0.915  0.998  0.978


   alpha     31     32     33     34     35     36     37     38     39     40
    beta     31     32     33     34     35     36     37     38     39     40
 overlap   0.973  0.983  0.809  0.784  0.964  0.986  0.984  0.984  0.992  0.993


   alpha     41     42     43     44     45     46     47     48     49
    beta     41     42     43     44     45     46     47     48     49
 overlap   0.997  0.995  0.998  0.999  0.999  0.999  1.000  0.991  0.991

     --------------------------
     Expectation value of S2:  
     --------------------------
      <S2> =      2.0049 (Exact =     2.0000)


 center of mass
 --------------
 x =  -0.05108870 y =  -0.11090912 z =  -0.02706111

 moments of inertia (a.u.)
 ------------------
         177.277805604554           0.000000000000           0.000000000000
           0.000000000000          25.609104683858           0.000000000000
           0.000000000000           0.000000000000         197.243046469324

     Multipole analysis of the density
     ---------------------------------

     L   x y z        total         alpha         beta         nuclear
     -   - - -        -----         -----         ----         -------
     0   0 0 0     -0.000000    -13.000000    -11.000000     24.000000

     1   1 0 0      0.273680      0.031531      0.242149     -0.000000
     1   0 1 0      0.285240     -0.993147      1.278387     -0.000000
     1   0 0 1      0.493414      0.206514      0.286900      0.000000

     2   2 0 0    -11.312167    -15.023861    -12.104128     15.815822
     2   1 1 0     -0.164141      1.149635      0.335164     -1.648939
     2   1 0 1     -0.765442     -0.054600      0.251707     -0.962548
     2   0 2 0    -12.882552    -55.387931    -47.359005     89.864384
     2   0 1 1      1.969566     -0.022153     -0.320354      2.312073
     2   0 0 2    -12.528812     -8.687619     -6.400157      2.558963


 Task  times  cpu:        7.0s     wall:        7.1s


                                NWChem Input Module
                                -------------------


 Summary of allocated global arrays
-----------------------------------
  No active global arrays



                         GA Statistics for process    0
                         ------------------------------

       create   destroy   get      put      acc     scatter   gather  read&inc
calls:  887      887     4.54e+04 2436     2.78e+04    0        0     2478     
number of processes/call 1.11e+00 1.57e+00 1.06e+00 0.00e+00 0.00e+00
bytes total:             6.03e+07 7.43e+06 3.25e+07 0.00e+00 0.00e+00 1.98e+04
bytes remote:            1.27e+07 1.55e+06 5.99e+06 0.00e+00 0.00e+00 0.00e+00
Max memory consumed for GA by this process: 576544 bytes

MA_summarize_allocated_blocks: starting scan ...
heap block 'gridpts', handle 102, address 0x5644ee876988:
	type of elements:		double precision
	number of elements:		34435029
	address of client space:	0x5644ee876a00
	index for client space:		13624147
	total number of bytes:		275480360
MA_summarize_allocated_blocks: scan completed: 1 heap block, 0 stack blocks
MA usage statistics:

	allocation statistics:
					      heap	     stack
					      ----	     -----
	current number of blocks	         1	         0
	maximum number of blocks	        21	        53
	current total bytes		 275480360	         0
	maximum total bytes		 282086656	  22513416
	maximum total K-bytes		    282087	     22514
	maximum total M-bytes		       283	        23


                                     CITATION
                                     --------
                Please cite the following reference when publishing
                           results obtained with NWChem:

                 M. Valiev, E.J. Bylaska, N. Govind, K. Kowalski,
              T.P. Straatsma, H.J.J. van Dam, D. Wang, J. Nieplocha,
                        E. Apra, T.L. Windus, W.A. de Jong
                 "NWChem: a comprehensive and scalable open-source
                  solution for large scale molecular simulations"
                      Comput. Phys. Commun. 181, 1477 (2010)
                           doi:10.1016/j.cpc.2010.04.018

                                      AUTHORS
                                      -------
          E. Apra, E. J. Bylaska, W. A. de Jong, N. Govind, K. Kowalski,
       T. P. Straatsma, M. Valiev, H. J. J. van Dam, D. Wang, T. L. Windus,
        J. Hammond, J. Autschbach, K. Bhaskaran-Nair, J. Brabec, K. Lopata,
    S. A. Fischer, S. Krishnamoorthy, M. Jacquelin, W. Ma, M. Klemm, O. Villa,
      Y. Chen, V. Anisimov, F. Aquino, S. Hirata, M. T. Hackler, V. Konjkov,
            D. Mejia-Rodriguez, T. Risthaus, M. Malagoli, A. Marenich,
   A. Otero-de-la-Roza, J. Mullin, P. Nichols, R. Peverati, J. Pittner, Y. Zhao,
        P.-D. Fan, A. Fonari, M. J. Williamson, R. J. Harrison, J. R. Rehr,
      M. Dupuis, D. Silverstein, D. M. A. Smith, J. Nieplocha, V. Tipparaju,
    M. Krishnan, B. E. Van Kuiken, A. Vazquez-Mayagoitia, L. Jensen, M. Swart,
      Q. Wu, T. Van Voorhis, A. A. Auer, M. Nooijen, L. D. Crosby, E. Brown,
      G. Cisneros, G. I. Fann, H. Fruchtl, J. Garza, K. Hirao, R. A. Kendall,
      J. A. Nichols, K. Tsemekhman, K. Wolinski, J. Anchell, D. E. Bernholdt,
      P. Borowski, T. Clark, D. Clerc, H. Dachsel, M. J. O. Deegan, K. Dyall,
    D. Elwood, E. Glendening, M. Gutowski, A. C. Hess, J. Jaffe, B. G. Johnson,
     J. Ju, R. Kobayashi, R. Kutteh, Z. Lin, R. Littlefield, X. Long, B. Meng,
      T. Nakajima, S. Niu, L. Pollack, M. Rosing, K. Glaesemann, G. Sandrone,
      M. Stave, H. Taylor, G. Thomas, J. H. van Lenthe, A. T. Wong, Z. Zhang.

 Total times  cpu:       23.4s     wall:       23.5s
